<event>
 5    1  0.2847672E-003  0.3212463E+02  0.7818608E-02  0.1609214E+00
         11   -1    0    0    0    0  0.00000000000E+00  0.00000000000E+00  0.99992086949E+03  0.99992086949E+03  0.51100000000E-03 0.  1.
         -2   -1    0    0    0  501 -0.00000000000E+00 -0.00000000000E+00 -0.28436635957E+01  0.28436647390E+01  0.25500000000E-02 0.  1.
         11    1    1    2    0    0 -0.15422847585E+02 -0.57723832678E+01  0.74603487266E+02  0.76399377934E+02  0.51100000000E-03 0.  1.
         22    1    1    2    0    0 -0.10965141952E+02 -0.62969086642E+01  0.21634137313E+02  0.25058357768E+02  0.00000000000E+00 0.  1.
         -2    1    1    2    0  501  0.26387989538E+02  0.12069291932E+02  0.90083958131E+03  0.90130679852E+03  0.25500000000E-02 0.  1.
<mgrwt>
<rscale>  0 0.29017130E+02</rscale>
<asrwt>0</asrwt>
<pdfrwt beam="1">  1       11 0.10000000E+01 0.32124628E+02</pdfrwt>
<pdfrwt beam="2">  1       -2 0.43745216E-03 0.29017130E+02</pdfrwt>
<totfact> 0.36039961E+04</totfact>
</mgrwt>
</event>
<event>
 5    1  0.2847672E-003  0.1563901E+03  0.7818608E-02  0.1445823E+00
         11   -1    0    0    0    0  0.00000000000E+00  0.00000000000E+00  0.99990876449E+03  0.99990876449E+03  0.51100000000E-03 0. -1.
         -2   -1    0    0    0  501 -0.00000000000E+00 -0.00000000000E+00 -0.11477581346E+03  0.11477581349E+03  0.25500000000E-02 0.  1.
         11    1    1    2    0    0  0.14153843299E+03  0.67373258913E+02  0.92574648780E+03  0.93892430137E+03  0.51100000000E-03 0. -1.
         22    1    1    2    0    0 -0.11333051901E+02  0.11193070213E+02 -0.14343950138E+02  0.21435293134E+02  0.00000000000E+00 0.  1.
         -2    1    1    2    0  501 -0.13020538109E+03 -0.78566329126E+02 -0.26269586634E+02  0.15432498348E+03  0.25500000000E-02 0.  1.
<mgrwt>
<rscale>  0 0.49910796E+02</rscale>
<asrwt>0</asrwt>
<pdfrwt beam="1">  1       11 0.10000000E+01 0.15639007E+03</pdfrwt>
<pdfrwt beam="2">  1       -2 0.17656206E-01 0.49910796E+02</pdfrwt>
<totfact> 0.19456610E+02</totfact>
</mgrwt>
</event>
<event>
 5    1  0.2847672E-003  0.3037287E+03  0.7818608E-02  0.1211905E+00
         11   -1    0    0    0    0  0.00000000000E+00  0.00000000000E+00  0.10002196467E+04  0.10002196467E+04  0.51100000000E-03 0. -1.
          2   -1    0    0  501    0 -0.00000000000E+00 -0.00000000000E+00 -0.31814881898E+03  0.31814881899E+03  0.25500000000E-02 0. -1.
         11    1    1    2    0    0 -0.29616343629E+03 -0.43115211509E+02  0.80679531904E+03  0.86051751248E+03  0.51100000000E-03 0. -1.
         22    1    1    2    0    0 -0.54748610081E+02  0.35984564954E+02  0.32648609844E+02  0.73199938152E+02  0.00000000000E+00 0. -1.
          2    1    1    2  501    0  0.35091204637E+03  0.71306465551E+01 -0.15737310116E+03  0.38465101506E+03  0.25500000000E-02 0. -1.
<mgrwt>
<rscale>  0 0.14106375E+03</rscale>
<asrwt>0</asrwt>
<pdfrwt beam="1">  1       11 0.10000000E+01 0.30372870E+03</pdfrwt>
<pdfrwt beam="2">  1        2 0.48956722E-01 0.14106375E+03</pdfrwt>
<totfact> 0.12724356E+02</totfact>
</mgrwt>
</event>
<event>
 5    1  0.2847672E-003  0.1102356E+03  0.7818608E-02  0.1422742E+00
         11   -1    0    0    0    0  0.00000000000E+00  0.00000000000E+00  0.99986218332E+03  0.99986218332E+03  0.51100000000E-03 0. -1.
          2   -1    0    0  501    0 -0.00000000000E+00 -0.00000000000E+00 -0.20889181022E+02  0.20889181178E+02  0.25500000000E-02 0. -1.
         11    1    1    2    0    0 -0.10028122409E+03 -0.90392105405E+02  0.53342991515E+03  0.55024951703E+03  0.51100000000E-03 0. -1.
         22    1    1    2    0    0  0.56251228254E+02  0.58366969539E+02  0.15515827626E+03  0.17505711784E+03  0.00000000000E+00 0. -1.
          2    1    1    2  501    0  0.44029995837E+02  0.32025135866E+02  0.29038481089E+03  0.29544472962E+03  0.25500000000E-02 0. -1.
<mgrwt>
<rscale>  0 0.54444925E+02</rscale>
<asrwt>0</asrwt>
<pdfrwt beam="1">  1       11 0.10000000E+01 0.11023561E+03</pdfrwt>
<pdfrwt beam="2">  1        2 0.32132772E-02 0.54444925E+02</pdfrwt>
<totfact> 0.29720890E+03</totfact>
</mgrwt>
</event>
<event>
 5    1  0.2847672E-003  0.1958263E+03  0.7818608E-02  0.1383138E+00
         11   -1    0    0    0    0  0.00000000000E+00  0.00000000000E+00  0.10002600587E+04  0.10002600587E+04  0.51100000000E-03 0. -1.
          2   -1    0    0  501    0 -0.00000000000E+00 -0.00000000000E+00 -0.10470942536E+03  0.10470942540E+03  0.25500000000E-02 0. -1.
         11    1    1    2    0    0  0.45612783742E+02  0.20275260071E+03  0.44409758414E+03  0.49031806756E+03  0.51100000000E-03 0. -1.
         22    1    1    2    0    0 -0.67031189898E+01 -0.19569687644E+02 -0.63457376597E+02  0.66743862065E+02  0.00000000000E+00 0. -1.
          2    1    1    2  501    0 -0.38909664752E+02 -0.18318291307E+03  0.51491042580E+03  0.54790755447E+03  0.25500000000E-02 0. -1.
<mgrwt>
<rscale>  0 0.63646145E+02</rscale>
<asrwt>0</asrwt>
<pdfrwt beam="1">  1       11 0.10000000E+01 0.19582630E+03</pdfrwt>
<pdfrwt beam="2">  1        2 0.16113331E-01 0.63646145E+02</pdfrwt>
<totfact> 0.41591491E+02</totfact>
</mgrwt>
</event>
<event>
 5    1  0.2847672E-003  0.1951096E+03  0.7818608E-02  0.1297389E+00
         11   -1    0    0    0    0  0.00000000000E+00  0.00000000000E+00  0.10002967892E+04  0.10002967892E+04  0.51100000000E-03 0. -1.
         -2   -1    0    0    0  501 -0.00000000000E+00 -0.00000000000E+00 -0.92142397958E+02  0.92142397994E+02  0.25500000000E-02 0. -1.
         11    1    1    2    0    0 -0.58486032029E+02 -0.17386032013E+03  0.59758371000E+03  0.62510344529E+03  0.51100000000E-03 0. -1.
         22    1    1    2    0    0  0.51349912462E+01 -0.43355762233E+02 -0.34821486519E+02  0.55844661135E+02  0.00000000000E+00 0. -1.
         -2    1    1    2    0  501  0.53351040782E+02  0.21721608236E+03  0.34539216774E+03  0.41149108075E+03  0.25500000000E-02 0. -1.
<mgrwt>
<rscale>  0 0.92294363E+02</rscale>
<asrwt>0</asrwt>
<pdfrwt beam="1">  1       11 0.10000000E+01 0.19510959E+03</pdfrwt>
<pdfrwt beam="2">  1       -2 0.14179960E-01 0.92294363E+02</pdfrwt>
<totfact> 0.28669218E+02</totfact>
</mgrwt>
</event>
<event>
 5    1  0.2847672E-003  0.9047064E+02  0.7818608E-02  0.1594321E+00
         11   -1    0    0    0    0  0.00000000000E+00  0.00000000000E+00  0.10001778462E+04  0.10001778462E+04  0.51100000000E-03 0.  1.
         -2   -1    0    0    0  501 -0.00000000000E+00 -0.00000000000E+00 -0.11949315728E+02  0.11949316000E+02  0.25500000000E-02 0.  1.
         11    1    1    2    0    0  0.70228184770E+02 -0.49873472107E+02  0.50288961119E+03  0.51021301649E+03  0.51100000000E-03 0.  1.
         22    1    1    2    0    0  0.93605514674E+01 -0.39944562552E+01  0.37760095703E+01  0.10855130254E+02  0.00000000000E+00 0.  1.
         -2    1    1    2    0  501 -0.79588736238E+02  0.53867928362E+02  0.48156290971E+03  0.49105901546E+03  0.25500000000E-02 0.  1.
<mgrwt>
<rscale>  0 0.30343677E+02</rscale>
<asrwt>0</asrwt>
<pdfrwt beam="1">  1       11 0.10000000E+01 0.90470641E+02</pdfrwt>
<pdfrwt beam="2">  1       -2 0.18386832E-02 0.30343677E+02</pdfrwt>
<totfact> 0.51328568E+03</totfact>
</mgrwt>
</event>
<event>
 5    1  0.2847672E-003  0.3662371E+03  0.7818608E-02  0.1270321E+00
         11   -1    0    0    0    0  0.00000000000E+00  0.00000000000E+00  0.10004147436E+04  0.10004147436E+04  0.51100000000E-03 0.  1.
          2   -1    0    0  501    0 -0.00000000000E+00 -0.00000000000E+00 -0.11253482783E+04  0.11253482783E+04  0.25500000000E-02 0.  1.
         11    1    1    2    0    0 -0.25982795960E+03 -0.25791543040E+03  0.92534398468E+03  0.99513437677E+03  0.51100000000E-03 0.  1.
         22    1    1    2    0    0  0.17983131760E+02 -0.24068644026E+02 -0.21812840090E+02  0.37128057396E+02  0.00000000000E+00 0.  1.
          2    1    1    2  501    0  0.24184482784E+03  0.28198407443E+03 -0.10284646793E+04  0.10935005878E+04  0.25500000000E-02 0.  1.
<mgrwt>
<rscale>  0 0.10489774E+03</rscale>
<asrwt>0</asrwt>
<pdfrwt beam="1">  1       11 0.10000000E+01 0.36623711E+03</pdfrwt>
<pdfrwt beam="2">  1        2 0.17320230E+00 0.10489774E+03</pdfrwt>
<totfact> 0.29137659E+01</totfact>
</mgrwt>
</event>
<event>
 5    1  0.2847672E-003  0.7899600E+02  0.7818608E-02  0.1577180E+00
         11   -1    0    0    0    0  0.00000000000E+00  0.00000000000E+00  0.10001064961E+04  0.10001064961E+04  0.51100000000E-03 0. -1.
         -2   -1    0    0    0  501 -0.00000000000E+00 -0.00000000000E+00 -0.10009819907E+02  0.10009820232E+02  0.25500000000E-02 0. -1.
         11    1    1    2    0    0  0.39422723363E+02 -0.66304511599E+02  0.33631283731E+03  0.34504603159E+03  0.51100000000E-03 0. -1.
         22    1    1    2    0    0  0.12114267526E+02  0.45669351364E+01  0.10201711399E+02  0.16482939352E+02  0.00000000000E+00 0. -1.
         -2    1    1    2    0  501 -0.51536990888E+02  0.61737576462E+02  0.64358212745E+03  0.64858734535E+03  0.25500000000E-02 0. -1.
<mgrwt>
<rscale>  0 0.31980038E+02</rscale>
<asrwt>0</asrwt>
<pdfrwt beam="1">  1       11 0.10000000E+01 0.78996004E+02</pdfrwt>
<pdfrwt beam="2">  1       -2 0.15401363E-02 0.31980038E+02</pdfrwt>
<totfact> 0.66213953E+03</totfact>
</mgrwt>
</event>
<event>
 5    1  0.2847672E-003  0.1677310E+03  0.7818608E-02  0.1302901E+00
         11   -1    0    0    0    0  0.00000000000E+00  0.00000000000E+00  0.10000828516E+04  0.10000828516E+04  0.51100000000E-03 0.  1.
          2   -1    0    0  501    0 -0.00000000000E+00 -0.00000000000E+00 -0.42223144445E+03  0.42223144446E+03  0.25500000000E-02 0.  1.
         11    1    1    2    0    0  0.14935767149E+03  0.77994677710E+02  0.96318546989E+03  0.97781242229E+03  0.51100000000E-03 0.  1.
         22    1    1    2    0    0 -0.11310802028E+01 -0.48256409246E+02 -0.19787552245E+03  0.20367788972E+03  0.00000000000E+00 0.  1.
          2    1    1    2  501    0 -0.14822659128E+03 -0.29738268464E+02 -0.18745854026E+03  0.24082398406E+03  0.25500000000E-02 0.  1.
<mgrwt>
<rscale>  0 0.89979535E+02</rscale>
<asrwt>0</asrwt>
<pdfrwt beam="1">  1       11 0.10000000E+01 0.16773096E+03</pdfrwt>
<pdfrwt beam="2">  1        2 0.64964064E-01 0.89979535E+02</pdfrwt>
<totfact> 0.94420248E+01</totfact>
</mgrwt>
</event>
<event>
 5    1  0.2847672E-003  0.3118609E+03  0.7818608E-02  0.1090596E+00
         11   -1    0    0    0    0  0.00000000000E+00  0.00000000000E+00  0.10003648051E+04  0.10003648051E+04  0.51100000000E-03 0. -1.
          2   -1    0    0  501    0 -0.00000000000E+00 -0.00000000000E+00 -0.18036880577E+03  0.18036880579E+03  0.25500000000E-02 0. -1.
         11    1    1    2    0    0 -0.14536966639E+03 -0.15177571412E+03 -0.62195391261E+01  0.21025434590E+03  0.51100000000E-03 0. -1.
         22    1    1    2    0    0 -0.10136559392E+03  0.28873927711E+00  0.70015808532E+01  0.10160752499E+03  0.00000000000E+00 0. -1.
          2    1    1    2  501    0  0.24673526031E+03  0.15148697484E+03  0.81921395765E+03  0.86887174004E+03  0.25500000000E-02 0. -1.
<mgrwt>
<rscale>  0 0.28952822E+03</rscale>
<asrwt>0</asrwt>
<pdfrwt beam="1">  1       11 0.10000000E+01 0.31186089E+03</pdfrwt>
<pdfrwt beam="2">  1        2 0.27759169E-01 0.28952822E+03</pdfrwt>
<totfact> 0.23684907E+02</totfact>
</mgrwt>
</event>
<event>
 5    1  0.2847672E-003  0.1037438E+03  0.7818608E-02  0.1272615E+00
         11   -1    0    0    0    0  0.00000000000E+00  0.00000000000E+00  0.10002318617E+04  0.10002318617E+04  0.51100000000E-03 0.  1.
          2   -1    0    0  501    0 -0.00000000000E+00 -0.00000000000E+00 -0.41632723133E+02  0.41632723211E+02  0.25500000000E-02 0.  1.
         11    1    1    2    0    0 -0.79754508012E+02 -0.82781094128E+02  0.57540119652E+03  0.58677084799E+03  0.51100000000E-03 0.  1.
         22    1    1    2    0    0 -0.28393763642E+02  0.96698559893E+02  0.30415787638E+03  0.32041977321E+03  0.00000000000E+00 0.  1.
          2    1    1    2  501    0  0.10814827165E+03 -0.13917465765E+02  0.79040065667E+02  0.13467396371E+03  0.25500000000E-02 0.  1.
<mgrwt>
<rscale>  0 0.10374378E+03</rscale>
<asrwt>0</asrwt>
<pdfrwt beam="1">  1       11 0.10000000E+01 0.10078104E+03</pdfrwt>
<pdfrwt beam="2">  1        2 0.64065192E-02 0.10374378E+03</pdfrwt>
<totfact> 0.13032178E+03</totfact>
</mgrwt>
</event>
<event>
 5    1  0.2847672E-003  0.9439280E+02  0.7818608E-02  0.1292550E+00
         11   -1    0    0    0    0  0.00000000000E+00  0.00000000000E+00  0.10002598189E+04  0.10002598189E+04  0.51100000000E-03 0. -1.
          2   -1    0    0  501    0 -0.00000000000E+00 -0.00000000000E+00 -0.14420644365E+02  0.14420644591E+02  0.25500000000E-02 0. -1.
         11    1    1    2    0    0  0.66231115963E+02 -0.84484753808E+02  0.59664568040E+03  0.60622627977E+03  0.51100000000E-03 0. -1.
         22    1    1    2    0    0 -0.26806753820E+02  0.36826341633E+01  0.15973415787E+03  0.16200976833E+03  0.00000000000E+00 0. -1.
          2    1    1    2  501    0 -0.39424362143E+02  0.80802119645E+02  0.22945933628E+03  0.24644441540E+03  0.25500000000E-02 0. -1.
<mgrwt>
<rscale>  0 0.94392803E+02</rscale>
<asrwt>0</asrwt>
<pdfrwt beam="1">  1       11 0.10000000E+01 0.27058526E+02</pdfrwt>
<pdfrwt beam="2">  1        2 0.22191370E-02 0.94392803E+02</pdfrwt>
<totfact> 0.51954879E+03</totfact>
</mgrwt>
</event>
<event>
 5    1  0.2847672E-003  0.1042864E+03  0.7818608E-02  0.1480931E+00
         11   -1    0    0    0    0  0.00000000000E+00  0.00000000000E+00  0.99985380803E+03  0.99985380803E+03  0.51100000000E-03 0. -1.
         -2   -1    0    0    0  501 -0.00000000000E+00 -0.00000000000E+00 -0.15106759209E+02  0.15106759424E+02  0.25500000000E-02 0. -1.
         11    1    1    2    0    0  0.90366352612E+02  0.46630631030E+02  0.56586643327E+03  0.57493070342E+03  0.51100000000E-03 0. -1.
         22    1    1    2    0    0 -0.23798415283E+01  0.18378361560E+02  0.24272086220E+02  0.30537877936E+02  0.00000000000E+00 0.  1.
         -2    1    1    2    0  501 -0.87986511084E+02 -0.65008992590E+02  0.39460852933E+03  0.40949198610E+03  0.25500000000E-02 0. -1.
<mgrwt>
<rscale>  0 0.43961511E+02</rscale>
<asrwt>0</asrwt>
<pdfrwt beam="1">  1       11 0.10000000E+01 0.10428635E+03</pdfrwt>
<pdfrwt beam="2">  1       -2 0.23237770E-02 0.43961511E+02</pdfrwt>
<totfact> 0.39396598E+03</totfact>
</mgrwt>
</event>
<event>
 5    1  0.2847672E-003  0.6235424E+02  0.7818608E-02  0.1616211E+00
         11   -1    0    0    0    0  0.00000000000E+00  0.00000000000E+00  0.10002833859E+04  0.10002833859E+04  0.51100000000E-03 0. -1.
          2   -1    0    0  501    0 -0.00000000000E+00 -0.00000000000E+00 -0.12557740405E+02  0.12557740664E+02  0.25500000000E-02 0. -1.
         11    1    1    2    0    0  0.36794177010E+02 -0.61927051266E+02  0.30481137605E+03  0.31320719358E+03  0.51100000000E-03 0. -1.
         22    1    1    2    0    0 -0.42323174560E+01  0.12244753312E+02 -0.11397273793E+01  0.13005593920E+02  0.00000000000E+00 0. -1.
          2    1    1    2  501    0 -0.32561859554E+02  0.49682297954E+02  0.68405399686E+03  0.68662833910E+03  0.25500000000E-02 0. -1.
<mgrwt>
<rscale>  0 0.28422414E+02</rscale>
<asrwt>0</asrwt>
<pdfrwt beam="1">  1       11 0.10000000E+01 0.62354243E+02</pdfrwt>
<pdfrwt beam="2">  1        2 0.19325075E-02 0.28422414E+02</pdfrwt>
<totfact> 0.52194285E+03</totfact>
</mgrwt>
</event>
<event>
 5    1  0.2847672E-003  0.1129147E+03  0.7818608E-02  0.1313200E+00
         11   -1    0    0    0    0  0.00000000000E+00  0.00000000000E+00  0.10003822960E+04  0.10003822960E+04  0.51100000000E-03 0. -1.
          2   -1    0    0  501    0 -0.00000000000E+00 -0.00000000000E+00 -0.32038582912E+02  0.32038583013E+02  0.25500000000E-02 0. -1.
         11    1    1    2    0    0 -0.85184261068E+02  0.10844136923E+03  0.49384978214E+03  0.51274115908E+03  0.51100000000E-03 0. -1.
         22    1    1    2    0    0 -0.71229001369E+01 -0.64897155954E+02  0.47710038399E+02  0.80861760563E+02  0.00000000000E+00 0.  1.
          2    1    1    2  501    0  0.92307161205E+02 -0.43544213280E+02  0.42678389256E+03  0.43881795938E+03  0.25500000000E-02 0. -1.
<mgrwt>
<rscale>  0 0.85859454E+02</rscale>
<asrwt>0</asrwt>
<pdfrwt beam="1">  1       11 0.10000000E+01 0.11291472E+03</pdfrwt>
<pdfrwt beam="2">  1        2 0.49308970E-02 0.85859454E+02</pdfrwt>
<totfact> 0.17927122E+03</totfact>
</mgrwt>
</event>
<event>
 5    1  0.2847672E-003  0.1762823E+03  0.7818608E-02  0.1419480E+00
         11   -1    0    0    0    0  0.00000000000E+00  0.00000000000E+00  0.10002108902E+04  0.10002108902E+04  0.51100000000E-03 0. -1.
          2   -1    0    0  501    0 -0.00000000000E+00 -0.00000000000E+00 -0.38373049155E+02  0.38373049240E+02  0.25500000000E-02 0. -1.
         11    1    1    2    0    0  0.81350187662E+01  0.17994176970E+03  0.55893282482E+03  0.58724025890E+03  0.51100000000E-03 0. -1.
         22    1    1    2    0    0 -0.15132533649E+02 -0.82637325858E+01  0.50407861872E+01  0.17963640396E+02  0.00000000000E+00 0.  1.
          2    1    1    2  501    0  0.69975148832E+01 -0.17167803711E+03  0.39786423001E+03  0.43338004012E+03  0.25500000000E-02 0. -1.
<mgrwt>
<rscale>  0 0.55131123E+02</rscale>
<asrwt>0</asrwt>
<pdfrwt beam="1">  1       11 0.10000000E+01 0.17628231E+03</pdfrwt>
<pdfrwt beam="2">  1        2 0.59047909E-02 0.55131123E+02</pdfrwt>
<totfact> 0.13672698E+03</totfact>
</mgrwt>
</event>
<event>
 5    1  0.2847672E-003  0.6225084E+02  0.7818608E-02  0.1529377E+00
         11   -1    0    0    0    0  0.00000000000E+00  0.00000000000E+00  0.99988188017E+03  0.99988188017E+03  0.51100000000E-03 0. -1.
          2   -1    0    0  501    0 -0.00000000000E+00 -0.00000000000E+00 -0.64375831678E+01  0.64375836729E+01  0.25500000000E-02 0. -1.
         11    1    1    2    0    0 -0.58141474559E+02  0.30810514908E+02  0.30443548883E+03  0.31146538451E+03  0.51100000000E-03 0. -1.
         22    1    1    2    0    0 -0.30790141360E+01 -0.22091869380E+02  0.92624813438E+02  0.95272698530E+02  0.00000000000E+00 0. -1.
          2    1    1    2  501    0  0.61220488695E+02 -0.87186455283E+01  0.59638399474E+03  0.59958138080E+03  0.25500000000E-02 0. -1.
<mgrwt>
<rscale>  0 0.37262975E+02</rscale>
<asrwt>0</asrwt>
<pdfrwt beam="1">  1       11 0.10000000E+01 0.62250836E+02</pdfrwt>
<pdfrwt beam="2">  1        2 0.99028044E-03 0.37262975E+02</pdfrwt>
<totfact> 0.13207567E+04</totfact>
</mgrwt>
</event>
<event>
 5    1  0.2847672E-003  0.2442455E+03  0.7818608E-02  0.1116996E+00
         11   -1    0    0    0    0  0.00000000000E+00  0.00000000000E+00  0.10002342861E+04  0.10002342861E+04  0.51100000000E-03 0. -1.
          2   -1    0    0  501    0 -0.00000000000E+00 -0.00000000000E+00 -0.43675521860E+03  0.43675521861E+03  0.25500000000E-02 0.  1.
         11    1    1    2    0    0  0.11547986362E+03  0.85165286132E+02  0.65181614140E+03  0.66742265998E+03  0.51100000000E-03 0. -1.
         22    1    1    2    0    0  0.13330268342E+03 -0.51308935503E+02  0.28550226680E+03  0.31923934065E+03  0.00000000000E+00 0. -1.
          2    1    1    2  501    0 -0.24878254704E+03 -0.33856350629E+02 -0.37383934075E+03  0.45032750403E+03  0.25500000000E-02 0.  1.
<mgrwt>
<rscale>  0 0.24424549E+03</rscale>
<asrwt>0</asrwt>
<pdfrwt beam="1">  1       11 0.10000000E+01 0.14283631E+03</pdfrwt>
<pdfrwt beam="2">  1        2 0.67208851E-01 0.24424549E+03</pdfrwt>
<totfact> 0.90222505E+01</totfact>
</mgrwt>
</event>
<event>
 5    1  0.2847672E-003  0.9143104E+02  0.7818608E-02  0.1359765E+00
         11   -1    0    0    0    0  0.00000000000E+00  0.00000000000E+00  0.99988185003E+03  0.99988185003E+03  0.51100000000E-03 0.  1.
          2   -1    0    0  501    0 -0.00000000000E+00 -0.00000000000E+00 -0.19218989741E+02  0.19218989911E+02  0.25500000000E-02 0.  1.
         11    1    1    2    0    0 -0.72984215339E+02  0.18216776473E+02  0.26667912573E+03  0.27708537084E+03  0.51100000000E-03 0.  1.
         22    1    1    2    0    0 -0.11571956173E+02  0.52479717308E+02  0.67877400788E+02  0.86575819004E+02  0.00000000000E+00 0.  1.
          2    1    1    2  501    0  0.84556171512E+02 -0.70696493781E+02  0.64610633377E+03  0.65543965010E+03  0.25500000000E-02 0.  1.
<mgrwt>
<rscale>  0 0.70096636E+02</rscale>
<asrwt>0</asrwt>
<pdfrwt beam="1">  1       11 0.10000000E+01 0.91431039E+02</pdfrwt>
<pdfrwt beam="2">  1        2 0.29564182E-02 0.70096636E+02</pdfrwt>
<totfact> 0.34189426E+03</totfact>
</mgrwt>
</event>
<event>
 5    1  0.2847672E-003  0.6894744E+02  0.7818608E-02  0.1363709E+00
         11   -1    0    0    0    0  0.00000000000E+00  0.00000000000E+00  0.10000317859E+04  0.10000317859E+04  0.51100000000E-03 0. -1.
          2   -1    0    0  501    0 -0.00000000000E+00 -0.00000000000E+00 -0.73279875243E+01  0.73279879680E+01  0.25500000000E-02 0. -1.
         11    1    1    2    0    0  0.44087068994E+01 -0.28986802543E+02  0.16581648515E+03  0.16838877091E+03  0.51100000000E-03 0. -1.
         22    1    1    2    0    0 -0.63570949789E+02 -0.18104575026E+02  0.36558883841E+03  0.37151613702E+03  0.00000000000E+00 0. -1.
          2    1    1    2  501    0  0.59162242890E+02  0.47091377569E+02  0.46129847478E+03  0.46745486591E+03  0.25500000000E-02 0. -1.
<mgrwt>
<rscale>  0 0.68947441E+02</rscale>
<asrwt>0</asrwt>
<pdfrwt beam="1">  1       11 0.10000000E+01 0.29320168E+02</pdfrwt>
<pdfrwt beam="2">  1        2 0.11274185E-02 0.68947441E+02</pdfrwt>
<totfact> 0.12401706E+04</totfact>
</mgrwt>
</event>
<event>
 5    1  0.2847672E-003  0.1852975E+03  0.7818608E-02  0.1162772E+00
         11   -1    0    0    0    0  0.00000000000E+00  0.00000000000E+00  0.10000164488E+04  0.10000164488E+04  0.51100000000E-03 0. -1.
          2   -1    0    0  501    0 -0.00000000000E+00 -0.00000000000E+00 -0.35608956689E+02  0.35608956781E+02  0.25500000000E-02 0. -1.
         11    1    1    2    0    0 -0.64071254593E+02  0.16695195994E+03  0.61039789097E+03  0.63605319580E+03  0.51100000000E-03 0. -1.
         22    1    1    2    0    0  0.47025292397E+02 -0.61675620824E+02  0.17076985218E+03  0.18755693201E+03  0.00000000000E+00 0.  1.
          2    1    1    2  501    0  0.17045962195E+02 -0.10527633912E+03  0.18323974901E+03  0.21201527782E+03  0.25500000000E-02 0. -1.
<mgrwt>
<rscale>  0 0.18529747E+03</rscale>
<asrwt>0</asrwt>
<pdfrwt beam="1">  1       11 0.10000000E+01 0.17882417E+03</pdfrwt>
<pdfrwt beam="2">  1        2 0.54783910E-02 0.18529747E+03</pdfrwt>
<totfact> 0.16660092E+03</totfact>
</mgrwt>
</event>
<event>
 5    1  0.2847672E-003  0.1920585E+03  0.7818608E-02  0.1156618E+00
         11   -1    0    0    0    0  0.00000000000E+00  0.00000000000E+00  0.10004690384E+04  0.10004690384E+04  0.51100000000E-03 0. -1.
          2   -1    0    0  501    0 -0.00000000000E+00 -0.00000000000E+00 -0.30854197492E+03  0.30854197493E+03  0.25500000000E-02 0. -1.
         11    1    1    2    0    0  0.14293971878E+03  0.10783400317E+03  0.96149375592E+03  0.97802360816E+03  0.51100000000E-03 0. -1.
         22    1    1    2    0    0 -0.41658707331E+02 -0.39217995310E+01 -0.96217717254E+02  0.10492224512E+03  0.00000000000E+00 0.  1.
          2    1    1    2  501    0 -0.10128101145E+03 -0.10391220364E+03 -0.17334897523E+03  0.22606516000E+03  0.25500000000E-02 0. -1.
<mgrwt>
<rscale>  0 0.19205848E+03</rscale>
<asrwt>0</asrwt>
<pdfrwt beam="1">  1       11 0.10000000E+01 0.17905288E+03</pdfrwt>
<pdfrwt beam="2">  1        2 0.47490259E-01 0.19205848E+03</pdfrwt>
<totfact> 0.13152795E+02</totfact>
</mgrwt>
</event>
<event>
 5    1  0.2847672E-003  0.4921493E+03  0.7818608E-02  0.1157104E+00
         11   -1    0    0    0    0  0.00000000000E+00  0.00000000000E+00  0.10005682216E+04  0.10005682216E+04  0.51100000000E-03 0.  1.
          2   -1    0    0  501    0 -0.00000000000E+00 -0.00000000000E+00 -0.57016560050E+03  0.57016560051E+03  0.25500000000E-02 0.  1.
         11    1    1    2    0    0  0.50100222602E+03  0.27974003626E+02  0.77253018368E+03  0.92118872119E+03  0.51100000000E-03 0.  1.
         22    1    1    2    0    0 -0.52538439371E+02 -0.52854792606E+02 -0.13658825563E+03  0.15559649189E+03  0.00000000000E+00 0.  1.
          2    1    1    2  501    0 -0.44846378665E+03  0.24880788980E+02 -0.20553930699E+03  0.49394860899E+03  0.25500000000E-02 0.  1.
<mgrwt>
<rscale>  0 0.19151302E+03</rscale>
<asrwt>0</asrwt>
<pdfrwt beam="1">  1       11 0.10000000E+01 0.49214934E+03</pdfrwt>
<pdfrwt beam="2">  1        2 0.87767625E-01 0.19151302E+03</pdfrwt>
<totfact> 0.67209678E+01</totfact>
</mgrwt>
</event>
<event>
 5    1  0.2847672E-003  0.2939889E+02  0.7818608E-02  0.1604830E+00
         11   -1    0    0    0    0  0.00000000000E+00  0.00000000000E+00  0.10000959719E+04  0.10000959719E+04  0.51100000000E-03 0. -1.
          2   -1    0    0  501    0 -0.00000000000E+00 -0.00000000000E+00 -0.10199776398E+02  0.10199776717E+02  0.25500000000E-02 0. -1.
         11    1    1    2    0    0 -0.21066438027E+02  0.34967309676E+00  0.17756168748E+02  0.27553558959E+02  0.51100000000E-03 0. -1.
         22    1    1    2    0    0  0.20976741473E+02 -0.21528586827E+02  0.38415988761E+02  0.48777986081E+02  0.00000000000E+00 0. -1.
          2    1    1    2  501    0  0.89696553903E-01  0.21178913731E+02  0.93372403804E+03  0.93396420362E+03  0.25500000000E-02 0. -1.
<mgrwt>
<rscale>  0 0.29398887E+02</rscale>
<asrwt>0</asrwt>
<pdfrwt beam="1">  1       11 0.10000000E+01 0.21069350E+02</pdfrwt>
<pdfrwt beam="2">  1        2 0.15693469E-02 0.29398887E+02</pdfrwt>
<totfact> 0.68822655E+03</totfact>
</mgrwt>
</event>
<event>
 5    1  0.2847672E-003  0.2219202E+03  0.7818608E-02  0.1132460E+00
         11   -1    0    0    0    0  0.00000000000E+00  0.00000000000E+00  0.10002786982E+04  0.10002786982E+04  0.51100000000E-03 0. -1.
          2   -1    0    0  501    0 -0.00000000000E+00 -0.00000000000E+00 -0.18365835477E+03  0.18365835479E+03  0.25500000000E-02 0. -1.
         11    1    1    2    0    0  0.13085412731E+03  0.50485919367E+02  0.77935651613E+03  0.79187638551E+03  0.51100000000E-03 0. -1.
         22    1    1    2    0    0  0.68510988874E+02  0.65653905094E+02  0.11453699157E+03  0.14873773324E+03  0.00000000000E+00 0. -1.
          2    1    1    2  501    0 -0.19936511619E+03 -0.11613982446E+03 -0.77273164322E+02  0.24332293420E+03  0.25500000000E-02 0. -1.
<mgrwt>
<rscale>  0 0.22192017E+03</rscale>
<asrwt>0</asrwt>
<pdfrwt beam="1">  1       11 0.10000000E+01 0.94890415E+02</pdfrwt>
<pdfrwt beam="2">  1        2 0.28263005E-01 0.22192017E+03</pdfrwt>
<totfact> 0.23112757E+02</totfact>
</mgrwt>
</event>
<event>
 5    1  0.2847672E-003  0.9784121E+02  0.7818608E-02  0.1375219E+00
         11   -1    0    0    0    0  0.00000000000E+00  0.00000000000E+00  0.10000870219E+04  0.10000870219E+04  0.51100000000E-03 0.  1.
          2   -1    0    0  501    0 -0.00000000000E+00 -0.00000000000E+00 -0.16605630350E+02  0.16605630546E+02  0.25500000000E-02 0.  1.
         11    1    1    2    0    0  0.10809526707E+03  0.32992084509E+02  0.62919966011E+03  0.63926933032E+03  0.51100000000E-03 0.  1.
         22    1    1    2    0    0 -0.41476286478E+02  0.15181707495E+02  0.83848233402E+02  0.94769683059E+02  0.00000000000E+00 0. -1.
          2    1    1    2  501    0 -0.66618980588E+02 -0.48173792004E+02  0.27043349801E+03  0.28265363904E+03  0.25500000000E-02 0.  1.
<mgrwt>
<rscale>  0 0.65737357E+02</rscale>
<asrwt>0</asrwt>
<pdfrwt beam="1">  1       11 0.10000000E+01 0.97841211E+02</pdfrwt>
<pdfrwt beam="2">  1        2 0.25549346E-02 0.65737357E+02</pdfrwt>
<totfact> 0.41124096E+03</totfact>
</mgrwt>
</event>
<event>
 5    1  0.2847672E-003  0.1222771E+03  0.7818608E-02  0.1527306E+00
         11   -1    0    0    0    0  0.00000000000E+00  0.00000000000E+00  0.10000457909E+04  0.10000457909E+04  0.51100000000E-03 0. -1.
         -2   -1    0    0    0  501 -0.00000000000E+00 -0.00000000000E+00 -0.73978648108E+02  0.73978648152E+02  0.25500000000E-02 0. -1.
         11    1    1    2    0    0 -0.28492439679E+02 -0.11919760218E+03  0.62070744355E+03  0.63269077594E+03  0.51100000000E-03 0. -1.
         22    1    1    2    0    0  0.11378629370E+02 -0.17478510083E+01 -0.57409058867E+02  0.58551927633E+02  0.00000000000E+00 0. -1.
         -2    1    1    2    0  501  0.17113810309E+02  0.12094545319E+03  0.36276875815E+03  0.38278173552E+03  0.25500000000E-02 0. -1.
<mgrwt>
<rscale>  0 0.37518859E+02</rscale>
<asrwt>0</asrwt>
<pdfrwt beam="1">  1       11 0.10000000E+01 0.12227710E+03</pdfrwt>
<pdfrwt beam="2">  1       -2 0.11381851E-01 0.37518859E+02</pdfrwt>
<totfact> 0.38099280E+02</totfact>
</mgrwt>
</event>
<event>
 5    1  0.2847672E-003  0.4744381E+02  0.7818608E-02  0.1627512E+00
         11   -1    0    0    0    0  0.00000000000E+00  0.00000000000E+00  0.10002955872E+04  0.10002955872E+04  0.51100000000E-03 0.  1.
          2   -1    0    0  501    0 -0.00000000000E+00 -0.00000000000E+00 -0.66896437963E+01  0.66896442823E+01  0.25500000000E-02 0.  1.
         11    1    1    2    0    0 -0.15480840413E+02 -0.58754665244E+02  0.25339732279E+03  0.26058006505E+03  0.51100000000E-03 0.  1.
         22    1    1    2    0    0  0.33552233183E+01  0.15580681161E+02  0.24097280973E+02  0.28891073003E+02  0.00000000000E+00 0.  1.
          2    1    1    2  501    0  0.12125617094E+02  0.43173984083E+02  0.71611133969E+03  0.71751409347E+03  0.25500000000E-02 0.  1.
<mgrwt>
<rscale>  0 0.27498219E+02</rscale>
<asrwt>0</asrwt>
<pdfrwt beam="1">  1       11 0.10000000E+01 0.47443807E+02</pdfrwt>
<pdfrwt beam="2">  1        2 0.10294802E-02 0.27498219E+02</pdfrwt>
<totfact> 0.11787550E+04</totfact>
</mgrwt>
</event>
<event>
 5    1  0.2847672E-003  0.7219945E+02  0.7818608E-02  0.1609158E+00
         11   -1    0    0    0    0  0.00000000000E+00  0.00000000000E+00  0.10001777450E+04  0.10001777450E+04  0.51100000000E-03 0.  1.
          2   -1    0    0  501    0 -0.00000000000E+00 -0.00000000000E+00 -0.76982646663E+01  0.76982650887E+01  0.25500000000E-02 0. -1.
         11    1    1    2    0    0  0.59348334108E+02  0.52848182687E+02  0.43377533878E+03  0.44099455746E+03  0.51100000000E-03 0.  1.
         22    1    1    2    0    0 -0.74892813884E+01 -0.89445258637E+01  0.15272107312E+02  0.19217990019E+02  0.00000000000E+00 0. -1.
          2    1    1    2  501    0 -0.51859052719E+02 -0.43903656823E+02  0.54343203422E+03  0.54766346259E+03  0.25500000000E-02 0. -1.
<mgrwt>
<rscale>  0 0.29021942E+02</rscale>
<asrwt>0</asrwt>
<pdfrwt beam="1">  1       11 0.10000000E+01 0.72199447E+02</pdfrwt>
<pdfrwt beam="2">  1        2 0.11845589E-02 0.29021942E+02</pdfrwt>
<totfact> 0.99169494E+03</totfact>
</mgrwt>
</event>
<event>
 5    1  0.2847672E-003  0.8255345E+02  0.7818608E-02  0.1506098E+00
         11   -1    0    0    0    0  0.00000000000E+00  0.00000000000E+00  0.10003190167E+04  0.10003190167E+04  0.51100000000E-03 0.  1.
          2   -1    0    0  501    0 -0.00000000000E+00 -0.00000000000E+00 -0.12584202491E+02  0.12584202749E+02  0.25500000000E-02 0.  1.
         11    1    1    2    0    0 -0.66112710645E+02 -0.60531846982E+02  0.22593195977E+03  0.24306428256E+03  0.51100000000E-03 0.  1.
         22    1    1    2    0    0 -0.36650935613E+01  0.19317559242E+02  0.55069951354E+02  0.58474785575E+02  0.00000000000E+00 0.  1.
          2    1    1    2  501    0  0.69777804206E+02  0.41214287740E+02  0.70673290306E+03  0.71136415130E+03  0.25500000000E-02 0.  1.
<mgrwt>
<rscale>  0 0.40288700E+02</rscale>
<asrwt>0</asrwt>
<pdfrwt beam="1">  1       11 0.10000000E+01 0.82553452E+02</pdfrwt>
<pdfrwt beam="2">  1        2 0.19366487E-02 0.40288700E+02</pdfrwt>
<totfact> 0.55203158E+03</totfact>
</mgrwt>
</event>
<event>
 5    1  0.2847672E-003  0.5893111E+03  0.7818608E-02  0.1318243E+00
         11   -1    0    0    0    0  0.00000000000E+00  0.00000000000E+00  0.10000156939E+04  0.10000156939E+04  0.51100000000E-03 0.  1.
          2   -1    0    0  501    0 -0.00000000000E+00 -0.00000000000E+00 -0.43665976972E+03  0.43665976972E+03  0.25500000000E-02 0.  1.
         11    1    1    2    0    0  0.52390784646E+03 -0.27585872079E+03  0.47421080684E+03  0.75858641877E+03  0.51100000000E-03 0.  1.
         22    1    1    2    0    0 -0.10810758309E+02 -0.51029938109E+01 -0.70663553692E+02  0.71667641662E+02  0.00000000000E+00 0. -1.
          2    1    1    2  501    0 -0.51309708815E+03  0.28096171460E+03  0.15980867108E+03  0.60642140323E+03  0.25500000000E-02 0.  1.
<mgrwt>
<rscale>  0 0.83934455E+02</rscale>
<asrwt>0</asrwt>
<pdfrwt beam="1">  1       11 0.10000000E+01 0.58931110E+03</pdfrwt>
<pdfrwt beam="2">  1        2 0.67179478E-01 0.83934455E+02</pdfrwt>
<totfact> 0.91173208E+01</totfact>
</mgrwt>
</event>
<event>
 5    1  0.2847672E-003  0.1576946E+03  0.7818608E-02  0.1299848E+00
         11   -1    0    0    0    0  0.00000000000E+00  0.00000000000E+00  0.10001878749E+04  0.10001878749E+04  0.51100000000E-03 0. -1.
          2   -1    0    0  501    0 -0.00000000000E+00 -0.00000000000E+00 -0.29694596286E+03  0.29694596287E+03  0.25500000000E-02 0.  1.
         11    1    1    2    0    0 -0.34406408784E+02 -0.15385076783E+03  0.94794519011E+03  0.96096511028E+03  0.51100000000E-03 0. -1.
         22    1    1    2    0    0  0.51325503691E+02 -0.12407647043E+02 -0.10816577211E+03  0.12036648740E+03  0.00000000000E+00 0. -1.
          2    1    1    2  501    0 -0.16919094907E+02  0.16625841487E+03 -0.13653750595E+03  0.21580224009E+03  0.25500000000E-02 0.  1.
<mgrwt>
<rscale>  0 0.91251841E+02</rscale>
<asrwt>0</asrwt>
<pdfrwt beam="1">  1       11 0.10000000E+01 0.15769462E+03</pdfrwt>
<pdfrwt beam="2">  1        2 0.45692576E-01 0.91251841E+02</pdfrwt>
<totfact> 0.13654816E+02</totfact>
</mgrwt>
</event>
<event>
 5    1  0.2847672E-003  0.2761493E+03  0.7818608E-02  0.1334109E+00
         11   -1    0    0    0    0  0.00000000000E+00  0.00000000000E+00  0.99997378438E+03  0.99997378438E+03  0.51100000000E-03 0.  1.
          2   -1    0    0  501    0 -0.00000000000E+00 -0.00000000000E+00 -0.23901280753E+03  0.23901280755E+03  0.25500000000E-02 0.  1.
         11    1    1    2    0    0  0.83855627690E+02 -0.26641492795E+03  0.85225946974E+03  0.89685834104E+03  0.51100000000E-03 0.  1.
         22    1    1    2    0    0 -0.41693684111E+01  0.21774145538E+02 -0.81703308742E+02  0.84657709078E+02  0.00000000000E+00 0. -1.
          2    1    1    2  501    0 -0.79686259278E+02  0.24464078241E+03 -0.95951841434E+01  0.25747054181E+03  0.25500000000E-02 0.  1.
<mgrwt>
<rscale>  0 0.78244215E+02</rscale>
<asrwt>0</asrwt>
<pdfrwt beam="1">  1       11 0.10000000E+01 0.27614935E+03</pdfrwt>
<pdfrwt beam="2">  1        2 0.36770236E-01 0.78244215E+02</pdfrwt>
<totfact> 0.17104314E+02</totfact>
</mgrwt>
</event>
<event>
 5    1  0.2847672E-003  0.1701436E+03  0.7818608E-02  0.1334568E+00
         11   -1    0    0    0    0  0.00000000000E+00  0.00000000000E+00  0.10002933312E+04  0.10002933312E+04  0.51100000000E-03 0. -1.
          2   -1    0    0  501    0 -0.00000000000E+00 -0.00000000000E+00 -0.29019076468E+03  0.29019076469E+03  0.25500000000E-02 0. -1.
         11    1    1    2    0    0 -0.12621532334E+03  0.11450308736E+03  0.95406654238E+03  0.96916677211E+03  0.51100000000E-03 0. -1.
         22    1    1    2    0    0 -0.17936346965E+02 -0.31026993691E+02 -0.79626726726E+02  0.87320115031E+02  0.00000000000E+00 0. -1.
          2    1    1    2  501    0  0.14415167030E+03 -0.83476093673E+02 -0.16433724910E+03  0.23399720878E+03  0.25500000000E-02 0. -1.
<mgrwt>
<rscale>  0 0.78087537E+02</rscale>
<asrwt>0</asrwt>
<pdfrwt beam="1">  1       11 0.10000000E+01 0.17014356E+03</pdfrwt>
<pdfrwt beam="2">  1        2 0.44657827E-01 0.78087537E+02</pdfrwt>
<totfact> 0.13966184E+02</totfact>
</mgrwt>
</event>
<event>
 5    1  0.2847672E-003  0.2382708E+03  0.7818608E-02  0.1224684E+00
         11   -1    0    0    0    0  0.00000000000E+00  0.00000000000E+00  0.10001113248E+04  0.10001113248E+04  0.51100000000E-03 0. -1.
         -2   -1    0    0    0  501 -0.00000000000E+00 -0.00000000000E+00 -0.19882928921E+03  0.19882928923E+03  0.25500000000E-02 0.  1.
         11    1    1    2    0    0 -0.12507359532E+03 -0.19832481316E+03  0.78885928781E+03  0.82296726042E+03  0.51100000000E-03 0. -1.
         22    1    1    2    0    0  0.30808439337E+02 -0.66180811410E+02  0.55744252365E+02  0.91850320658E+02  0.00000000000E+00 0.  1.
         -2    1    1    2    0  501  0.94265155978E+02  0.26450562457E+03 -0.43321504623E+02  0.28412303291E+03  0.25500000000E-02 0.  1.
<mgrwt>
<rscale>  0 0.13188579E+03</rscale>
<asrwt>0</asrwt>
<pdfrwt beam="1">  1       11 0.10000000E+01 0.23827075E+03</pdfrwt>
<pdfrwt beam="2">  1       -2 0.30592526E-01 0.13188579E+03</pdfrwt>
<totfact> 0.78724441E+01</totfact>
</mgrwt>
</event>
<event>
 5    1  0.2847672E-003  0.2336948E+03  0.7818608E-02  0.1261861E+00
         11   -1    0    0    0    0  0.00000000000E+00  0.00000000000E+00  0.10003945222E+04  0.10003945222E+04  0.51100000000E-03 0. -1.
         -2   -1    0    0    0  501 -0.00000000000E+00 -0.00000000000E+00 -0.10217128858E+03  0.10217128861E+03  0.25500000000E-02 0. -1.
         11    1    1    2    0    0 -0.36899773879E+02 -0.23557453533E+03  0.55627620570E+03  0.60522737218E+03  0.51100000000E-03 0. -1.
         22    1    1    2    0    0 -0.46691903549E+02  0.20824229728E+02 -0.30376437540E+02  0.59468566137E+02  0.00000000000E+00 0. -1.
         -2    1    1    2    0  501  0.83591677428E+02  0.21475030560E+03  0.37232346542E+03  0.43786987245E+03  0.25500000000E-02 0. -1.
<mgrwt>
<rscale>  0 0.10930547E+03</rscale>
<asrwt>0</asrwt>
<pdfrwt beam="1">  1       11 0.10000000E+01 0.23369483E+03</pdfrwt>
<pdfrwt beam="2">  1       -2 0.15724861E-01 0.10930547E+03</pdfrwt>
<totfact> 0.24450128E+02</totfact>
</mgrwt>
</event>
<event>
 5    1  0.2847672E-003  0.1974805E+03  0.7818608E-02  0.1312496E+00
         11   -1    0    0    0    0  0.00000000000E+00  0.00000000000E+00  0.99999704457E+03  0.99999704457E+03  0.51100000000E-03 0.  1.
          2   -1    0    0  501    0 -0.00000000000E+00 -0.00000000000E+00 -0.36175811561E+03  0.36175811562E+03  0.25500000000E-02 0.  1.
         11    1    1    2    0    0  0.19663099096E+03 -0.55907480526E+01  0.94063070422E+03  0.96097925305E+03  0.51100000000E-03 0.  1.
         22    1    1    2    0    0  0.20188092384E+02 -0.31682217100E+02 -0.77747515322E+02  0.86348121538E+02  0.00000000000E+00 0.  1.
          2    1    1    2  501    0 -0.21681908334E+03  0.37272965152E+02 -0.22464425994E+03  0.31442778561E+03  0.25500000000E-02 0.  1.
<mgrwt>
<rscale>  0 0.86132809E+02</rscale>
<asrwt>0</asrwt>
<pdfrwt beam="1">  1       11 0.10000000E+01 0.19748048E+03</pdfrwt>
<pdfrwt beam="2">  1        2 0.55654929E-01 0.86132809E+02</pdfrwt>
<totfact> 0.11109192E+02</totfact>
</mgrwt>
</event>
<event>
 5    1  0.2847672E-003  0.2009435E+03  0.7818608E-02  0.1405952E+00
         11   -1    0    0    0    0  0.00000000000E+00  0.00000000000E+00  0.10000092369E+04  0.10000092369E+04  0.51100000000E-03 0.  1.
          2   -1    0    0  501    0 -0.00000000000E+00 -0.00000000000E+00 -0.39989089054E+03  0.39989089055E+03  0.25500000000E-02 0.  1.
         11    1    1    2    0    0 -0.22440147905E+02 -0.19961045326E+03  0.95472155497E+03  0.97562346262E+03  0.51100000000E-03 0.  1.
         22    1    1    2    0    0 -0.16798339990E+02 -0.39105465913E+00 -0.83120688143E+02  0.84802039760E+02  0.00000000000E+00 0.  1.
          2    1    1    2  501    0  0.39238487894E+02  0.20000150792E+03 -0.27148252050E+03  0.33947462504E+03  0.25500000000E-02 0.  1.
<mgrwt>
<rscale>  0 0.58107077E+02</rscale>
<asrwt>0</asrwt>
<pdfrwt beam="1">  1       11 0.10000000E+01 0.20094354E+03</pdfrwt>
<pdfrwt beam="2">  1        2 0.61522242E-01 0.58107077E+02</pdfrwt>
<totfact> 0.10013544E+02</totfact>
</mgrwt>
</event>
<event>
 5    1  0.2847672E-003  0.2792317E+03  0.7818608E-02  0.1248500E+00
         11   -1    0    0    0    0  0.00000000000E+00  0.00000000000E+00  0.10005292584E+04  0.10005292584E+04  0.51100000000E-03 0. -1.
          2   -1    0    0  501    0 -0.00000000000E+00 -0.00000000000E+00 -0.42283236485E+03  0.42283236486E+03  0.25500000000E-02 0. -1.
         11    1    1    2    0    0  0.49562717435E+02  0.27933023571E+03  0.90593784584E+03  0.94931829439E+03  0.51100000000E-03 0. -1.
         22    1    1    2    0    0  0.75624688192E+01 -0.48253255772E+02 -0.19548109920E+03  0.20149051534E+03  0.00000000000E+00 0. -1.
          2    1    1    2  501    0 -0.57125186254E+02 -0.23107697994E+03 -0.13275985310E+03  0.27255281353E+03  0.25500000000E-02 0. -1.
<mgrwt>
<rscale>  0 0.11678318E+03</rscale>
<asrwt>0</asrwt>
<pdfrwt beam="1">  1       11 0.10000000E+01 0.27923171E+03</pdfrwt>
<pdfrwt beam="2">  1        2 0.65085560E-01 0.11678318E+03</pdfrwt>
<totfact> 0.94060023E+01</totfact>
</mgrwt>
</event>
<event>
 5    1  0.2847672E-003  0.1471308E+03  0.7818608E-02  0.1451390E+00
         11   -1    0    0    0    0  0.00000000000E+00  0.00000000000E+00  0.99983749338E+03  0.99983749338E+03  0.51100000000E-03 0. -1.
          2   -1    0    0  501    0 -0.00000000000E+00 -0.00000000000E+00 -0.60976438915E+02  0.60976438969E+02  0.25500000000E-02 0.  1.
         11    1    1    2    0    0  0.11403647048E+03 -0.96335779204E+02  0.88053061284E+03  0.89309521279E+03  0.51100000000E-03 0. -1.
         22    1    1    2    0    0 -0.11282698358E+02  0.11693796932E+02 -0.89560712330E+01  0.18554120320E+02  0.00000000000E+00 0.  1.
          2    1    1    2  501    0 -0.10275377212E+03  0.84641982272E+02  0.67286512863E+02  0.14916459925E+03  0.25500000000E-02 0.  1.
<mgrwt>
<rscale>  0 0.48895735E+02</rscale>
<asrwt>0</asrwt>
<pdfrwt beam="1">  1       11 0.10000000E+01 0.14713082E+03</pdfrwt>
<pdfrwt beam="2">  1        2 0.93794659E-02 0.48895735E+02</pdfrwt>
<totfact> 0.76781042E+02</totfact>
</mgrwt>
</event>
<event>
 5    1  0.2847672E-003  0.2613327E+03  0.7818608E-02  0.1171924E+00
         11   -1    0    0    0    0  0.00000000000E+00  0.00000000000E+00  0.10002446531E+04  0.10002446531E+04  0.51100000000E-03 0.  1.
          2   -1    0    0  501    0 -0.00000000000E+00 -0.00000000000E+00 -0.20690520099E+03  0.20690520101E+03  0.25500000000E-02 0.  1.
         11    1    1    2    0    0 -0.12604138202E+02  0.26069910453E+03  0.66860614776E+03  0.71774443100E+03  0.51100000000E-03 0.  1.
         22    1    1    2    0    0  0.11827062949E+03  0.18129773595E+00 -0.78748272500E+02  0.14208893373E+03  0.00000000000E+00 0.  1.
          2    1    1    2  501    0 -0.10566649128E+03 -0.26088040227E+03  0.20348157682E+03  0.34731648936E+03  0.25500000000E-02 0.  1.
<mgrwt>
<rscale>  0 0.17580676E+03</rscale>
<asrwt>0</asrwt>
<pdfrwt beam="1">  1       11 0.10000000E+01 0.26133268E+03</pdfrwt>
<pdfrwt beam="2">  1        2 0.31839356E-01 0.17580676E+03</pdfrwt>
<totfact> 0.20207219E+02</totfact>
</mgrwt>
</event>
<event>
 5    1  0.2847672E-003  0.5767491E+02  0.7818608E-02  0.1603884E+00
         11   -1    0    0    0    0  0.00000000000E+00  0.00000000000E+00  0.99992555951E+03  0.99992555951E+03  0.51100000000E-03 0. -1.
          2   -1    0    0  501    0 -0.00000000000E+00 -0.00000000000E+00 -0.57683696747E+01  0.57683702383E+01  0.25500000000E-02 0. -1.
         11    1    1    2    0    0 -0.50642017909E+02  0.30973197147E+02  0.25161493458E+03  0.25852278086E+03  0.51100000000E-03 0. -1.
         22    1    1    2    0    0 -0.45046551648E+01 -0.14381685047E+02  0.49575487199E+02  0.51815574049E+02  0.00000000000E+00 0. -1.
          2    1    1    2  501    0  0.55146673074E+02 -0.16591512100E+02  0.69296676806E+03  0.69535557484E+03  0.25500000000E-02 0. -1.
<mgrwt>
<rscale>  0 0.29482173E+02</rscale>
<asrwt>0</asrwt>
<pdfrwt beam="1">  1       11 0.10000000E+01 0.57674911E+02</pdfrwt>
<pdfrwt beam="2">  1        2 0.88737545E-03 0.29482173E+02</pdfrwt>
<totfact> 0.14547740E+04</totfact>
</mgrwt>
</event>
<event>
 5    1  0.2847672E-003  0.3888773E+03  0.7818608E-02  0.1047701E+00
         11   -1    0    0    0    0  0.00000000000E+00  0.00000000000E+00  0.10005143811E+04  0.10005143811E+04  0.51100000000E-03 0. -1.
          2   -1    0    0  501    0 -0.00000000000E+00 -0.00000000000E+00 -0.11745168822E+04  0.11745168822E+04  0.25500000000E-02 0. -1.
         11    1    1    2    0    0  0.30804137717E+02 -0.38070990907E+03  0.92955099259E+03  0.10049646648E+04  0.51100000000E-03 0. -1.
         22    1    1    2    0    0  0.38209209377E+01  0.40999638557E+02 -0.19878582206E+03  0.20300584438E+03  0.00000000000E+00 0. -1.
          2    1    1    2  501    0 -0.34625058654E+02  0.33971027051E+03 -0.90476767159E+03  0.96706075411E+03  0.25500000000E-02 0. -1.
<mgrwt>
<rscale>  0 0.38887727E+03</rscale>
<asrwt>0</asrwt>
<pdfrwt beam="1">  1       11 0.10000000E+01 0.38195409E+03</pdfrwt>
<pdfrwt beam="2">  1        2 0.18078785E+00 0.38887727E+03</pdfrwt>
<totfact> 0.25336451E+01</totfact>
</mgrwt>
</event>
<event>
 5    1  0.2847672E-003  0.1563275E+03  0.7818608E-02  0.1363451E+00
         11   -1    0    0    0    0  0.00000000000E+00  0.00000000000E+00  0.10006538551E+04  0.10006538551E+04  0.51100000000E-03 0.  1.
          2   -1    0    0  501    0 -0.00000000000E+00 -0.00000000000E+00 -0.88055420605E+02  0.88055420642E+02  0.25500000000E-02 0.  1.
         11    1    1    2    0    0  0.60743696736E+02 -0.14781214550E+03  0.89447588785E+03  0.90863927991E+03  0.51100000000E-03 0.  1.
         22    1    1    2    0    0  0.22420468416E+01  0.30392026692E+02 -0.25634497338E+02  0.39822474989E+02  0.00000000000E+00 0. -1.
          2    1    1    2  501    0 -0.62985743578E+02  0.11742011881E+03  0.43757043975E+02  0.14024752083E+03  0.25500000000E-02 0.  1.
<mgrwt>
<rscale>  0 0.69021890E+02</rscale>
<asrwt>0</asrwt>
<pdfrwt beam="1">  1       11 0.10000000E+01 0.15632754E+03</pdfrwt>
<pdfrwt beam="2">  1        2 0.13555845E-01 0.69021890E+02</pdfrwt>
<totfact> 0.50922505E+02</totfact>
</mgrwt>
</event>
<event>
 5    1  0.2847672E-003  0.2027484E+03  0.7818608E-02  0.1212419E+00
         11   -1    0    0    0    0  0.00000000000E+00  0.00000000000E+00  0.10002679208E+04  0.10002679208E+04  0.51100000000E-03 0. -1.
          2   -1    0    0  501    0 -0.00000000000E+00 -0.00000000000E+00 -0.15600832124E+03  0.15600832126E+03  0.25500000000E-02 0. -1.
         11    1    1    2    0    0  0.18710553734E+03 -0.15515159411E+03  0.75236176196E+03  0.79065082061E+03  0.51100000000E-03 0. -1.
         22    1    1    2    0    0 -0.63313321479E+02  0.74292208839E+02 -0.88926069575E+02  0.13204451833E+03  0.00000000000E+00 0. -1.
          2    1    1    2  501    0 -0.12379221586E+03  0.80859385266E+02  0.18082390719E+03  0.23358090314E+03  0.25500000000E-02 0. -1.
<mgrwt>
<rscale>  0 0.14067861E+03</rscale>
<asrwt>0</asrwt>
<pdfrwt beam="1">  1       11 0.10000000E+01 0.20274835E+03</pdfrwt>
<pdfrwt beam="2">  1        2 0.24007710E-01 0.14067861E+03</pdfrwt>
<totfact> 0.27413484E+02</totfact>
</mgrwt>
</event>
<event>
 5    1  0.2847672E-003  0.5579808E+02  0.7818608E-02  0.1416362E+00
         11   -1    0    0    0    0  0.00000000000E+00  0.00000000000E+00  0.10002249017E+04  0.10002249017E+04  0.51100000000E-03 0. -1.
          2   -1    0    0  501    0 -0.00000000000E+00 -0.00000000000E+00 -0.10125266642E+02  0.10125266963E+02  0.25500000000E-02 0. -1.
         11    1    1    2    0    0 -0.21455035985E+02  0.17656453346E+02  0.16382511705E+03  0.16616479137E+03  0.51100000000E-03 0. -1.
         22    1    1    2    0    0  0.44117441295E+02  0.35142006791E+02  0.93737331704E+02  0.10939833921E+03  0.00000000000E+00 0.  1.
          2    1    1    2  501    0 -0.22662405311E+02 -0.52798460137E+02  0.73253718626E+03  0.73478703804E+03  0.25500000000E-02 0. -1.
<mgrwt>
<rscale>  0 0.55798083E+02</rscale>
<asrwt>0</asrwt>
<pdfrwt beam="1">  1       11 0.10000000E+01 0.27786128E+02</pdfrwt>
<pdfrwt beam="2">  1        2 0.15580836E-02 0.55798083E+02</pdfrwt>
<totfact> 0.77554110E+03</totfact>
</mgrwt>
</event>
<event>
 5    1  0.2847672E-003  0.2998566E+02  0.7818608E-02  0.1598247E+00
         11   -1    0    0    0    0  0.00000000000E+00  0.00000000000E+00  0.10000961191E+04  0.10000961191E+04  0.51100000000E-03 0.  1.
          2   -1    0    0  501    0 -0.00000000000E+00 -0.00000000000E+00 -0.67313280060E+01  0.67313284890E+01  0.25500000000E-02 0.  1.
         11    1    1    2    0    0 -0.69905708439E+01  0.11272934939E+02  0.34655166504E+02  0.37106976548E+02  0.51100000000E-03 0.  1.
         22    1    1    2    0    0 -0.24283413981E+02 -0.17655628386E+02  0.37868274173E+02  0.48326096440E+02  0.00000000000E+00 0.  1.
          2    1    1    2  501    0  0.31273984825E+02  0.63826934466E+01  0.92084135046E+03  0.92139437465E+03  0.25500000000E-02 0.  1.
<mgrwt>
<rscale>  0 0.29985661E+02</rscale>
<asrwt>0</asrwt>
<pdfrwt beam="1">  1       11 0.10000000E+01 0.13264514E+02</pdfrwt>
<pdfrwt beam="2">  1        2 0.10356885E-02 0.29985661E+02</pdfrwt>
<totfact> 0.11910218E+04</totfact>
</mgrwt>
</event>
<event>
 5    1  0.2847672E-003  0.1313290E+03  0.7818608E-02  0.1233139E+00
         11   -1    0    0    0    0  0.00000000000E+00  0.00000000000E+00  0.10006734280E+04  0.10006734280E+04  0.51100000000E-03 0. -1.
          2   -1    0    0  501    0 -0.00000000000E+00 -0.00000000000E+00 -0.18893362008E+02  0.18893362180E+02  0.25500000000E-02 0. -1.
         11    1    1    2    0    0  0.98947123313E+02 -0.58689705021E+02  0.61950227388E+03  0.63009370892E+03  0.51100000000E-03 0. -1.
         22    1    1    2    0    0  0.35134637045E+01 -0.15061437227E+02  0.58445993058E+02  0.60457633291E+02  0.00000000000E+00 0.  1.
          2    1    1    2  501    0 -0.10246058702E+03  0.73751142248E+02  0.30383179904E+03  0.32901544795E+03  0.25500000000E-02 0. -1.
<mgrwt>
<rscale>  0 0.12624343E+03</rscale>
<asrwt>0</asrwt>
<pdfrwt beam="1">  1       11 0.10000000E+01 0.13132899E+03</pdfrwt>
<pdfrwt beam="2">  1        2 0.29086284E-02 0.12624343E+03</pdfrwt>
<totfact> 0.37328945E+03</totfact>
</mgrwt>
</event>
<event>
 5    1  0.2847672E-003  0.1516822E+03  0.7818608E-02  0.1513194E+00
         11   -1    0    0    0    0  0.00000000000E+00  0.00000000000E+00  0.10004268842E+04  0.10004268842E+04  0.51100000000E-03 0.  1.
          2   -1    0    0  501    0 -0.00000000000E+00 -0.00000000000E+00 -0.44336086470E+02  0.44336086543E+02  0.25500000000E-02 0.  1.
         11    1    1    2    0    0  0.95474115761E+02  0.11859675804E+03  0.80556904769E+03  0.81983046320E+03  0.51100000000E-03 0.  1.
         22    1    1    2    0    0 -0.94948606016E+01  0.37223439026E+01 -0.30047039811E+01  0.10631860984E+02  0.00000000000E+00 0.  1.
          2    1    1    2  501    0 -0.85979255159E+02 -0.12231910195E+03  0.15352645398E+03  0.21430064651E+03  0.25500000000E-02 0.  1.
<mgrwt>
<rscale>  0 0.39330925E+02</rscale>
<asrwt>0</asrwt>
<pdfrwt beam="1">  1       11 0.10000000E+01 0.15168216E+03</pdfrwt>
<pdfrwt beam="2">  1        2 0.68238479E-02 0.39330925E+02</pdfrwt>
<totfact> 0.11061709E+03</totfact>
</mgrwt>
</event>
<event>
 5    1  0.2847672E-003  0.3363364E+02  0.7818608E-02  0.1644822E+00
         11   -1    0    0    0    0  0.00000000000E+00  0.00000000000E+00  0.99996681830E+03  0.99996681830E+03  0.51100000000E-03 0. -1.
          2   -1    0    0  501    0 -0.00000000000E+00 -0.00000000000E+00 -0.42654610155E+01  0.42654617777E+01  0.25500000000E-02 0. -1.
         11    1    1    2    0    0 -0.32884372382E+01 -0.51599759263E+02  0.22429511945E+03  0.23017743066E+03  0.51100000000E-03 0. -1.
         22    1    1    2    0    0  0.17641033790E+01  0.20276959869E+02  0.10759077422E+03  0.10949904958E+03  0.00000000000E+00 0. -1.
          2    1    1    2  501    0  0.15243338592E+01  0.31322799394E+02  0.66381546362E+03  0.66455579984E+03  0.25500000000E-02 0. -1.
<mgrwt>
<rscale>  0 0.26164168E+02</rscale>
<asrwt>0</asrwt>
<pdfrwt beam="1">  1       11 0.10000000E+01 0.33633636E+02</pdfrwt>
<pdfrwt beam="2">  1        2 0.65620304E-03 0.26164168E+02</pdfrwt>
<totfact> 0.21069722E+04</totfact>
</mgrwt>
</event>
<event>
 5    1  0.2847672E-003  0.1175708E+03  0.7818608E-02  0.1247159E+00
         11   -1    0    0    0    0  0.00000000000E+00  0.00000000000E+00  0.10003250216E+04  0.10003250216E+04  0.51100000000E-03 0.  1.
          2   -1    0    0  501    0 -0.00000000000E+00 -0.00000000000E+00 -0.35432026069E+02  0.35432026161E+02  0.25500000000E-02 0.  1.
         11    1    1    2    0    0  0.12831812947E+02 -0.61557931819E+02  0.61374037968E+02  0.87868122378E+02  0.51100000000E-03 0.  1.
         22    1    1    2    0    0  0.11417658156E+03  0.24403883422E+02  0.19631494508E+03  0.22841059294E+03  0.00000000000E+00 0.  1.
          2    1    1    2  501    0 -0.12700839451E+03  0.37154048398E+02  0.70720401249E+03  0.71947833245E+03  0.25500000000E-02 0.  1.
<mgrwt>
<rscale>  0 0.11757076E+03</rscale>
<asrwt>0</asrwt>
<pdfrwt beam="1">  1       11 0.10000000E+01 0.62881145E+02</pdfrwt>
<pdfrwt beam="2">  1        2 0.54528525E-02 0.11757076E+03</pdfrwt>
<totfact> 0.16182350E+03</totfact>
</mgrwt>
</event>
<event>
 5    1  0.2847672E-003  0.1712267E+03  0.7818608E-02  0.1298001E+00
         11   -1    0    0    0    0  0.00000000000E+00  0.00000000000E+00  0.10002877897E+04  0.10002877897E+04  0.51100000000E-03 0.  1.
          2   -1    0    0  501    0 -0.00000000000E+00 -0.00000000000E+00 -0.42141234793E+02  0.42141234870E+02  0.25500000000E-02 0.  1.
         11    1    1    2    0    0 -0.15485163144E+03 -0.39017237214E+02  0.46535416124E+03  0.49199173564E+03  0.51100000000E-03 0.  1.
         22    1    1    2    0    0 -0.36505820454E+02  0.33381992122E+02  0.64323209066E+02  0.81144978586E+02  0.00000000000E+00 0.  1.
          2    1    1    2  501    0  0.19135745190E+03  0.56352450920E+01  0.42846918461E+03  0.46929231035E+03  0.25500000000E-02 0.  1.
<mgrwt>
<rscale>  0 0.92033452E+02</rscale>
<asrwt>0</asrwt>
<pdfrwt beam="1">  1       11 0.10000000E+01 0.17122673E+03</pdfrwt>
<pdfrwt beam="2">  1        2 0.64851325E-02 0.92033452E+02</pdfrwt>
<totfact> 0.12711826E+03</totfact>
</mgrwt>
</event>
<event>
 5    1  0.2847672E-003  0.8671660E+02  0.7818608E-02  0.1311004E+00
         11   -1    0    0    0    0  0.00000000000E+00  0.00000000000E+00  0.99979314394E+03  0.99979314394E+03  0.51100000000E-03 0. -1.
          2   -1    0    0  501    0 -0.00000000000E+00 -0.00000000000E+00 -0.19461147558E+02  0.19461147725E+02  0.25500000000E-02 0. -1.
         11    1    1    2    0    0 -0.32503988617E+02 -0.57835240922E+02  0.10414786680E+03  0.12348361238E+03  0.51100000000E-03 0. -1.
         22    1    1    2    0    0  0.74023219547E+02 -0.34482342867E+02  0.47777958526E+03  0.48470795444E+03  0.00000000000E+00 0.  1.
          2    1    1    2  501    0 -0.41519230929E+02  0.92317583789E+02  0.39840454433E+03  0.41106272485E+03  0.25500000000E-02 0. -1.
<mgrwt>
<rscale>  0 0.86716596E+02</rscale>
<asrwt>0</asrwt>
<pdfrwt beam="1">  1       11 0.10000000E+01 0.66343265E+02</pdfrwt>
<pdfrwt beam="2">  1        2 0.29934033E-02 0.86716596E+02</pdfrwt>
<totfact> 0.34481116E+03</totfact>
</mgrwt>
</event>
<event>
 5    1  0.2847672E-003  0.5985360E+02  0.7818608E-02  0.1600159E+00
         11   -1    0    0    0    0  0.00000000000E+00  0.00000000000E+00  0.10002865975E+04  0.10002865975E+04  0.51100000000E-03 0.  1.
          2   -1    0    0  501    0 -0.00000000000E+00 -0.00000000000E+00 -0.62764983409E+01  0.62764988589E+01  0.25500000000E-02 0. -1.
         11    1    1    2    0    0 -0.39568898383E+02 -0.46461858094E+02  0.32006834417E+03  0.32583453917E+03  0.51100000000E-03 0.  1.
         22    1    1    2    0    0 -0.91746888448E+01  0.11677294465E+02  0.25359295194E+02  0.29387547944E+02  0.00000000000E+00 0.  1.
          2    1    1    2  501    0  0.48743587228E+02  0.34784563629E+02  0.64858245982E+03  0.65134100926E+03  0.25500000000E-02 0. -1.
<mgrwt>
<rscale>  0 0.29813570E+02</rscale>
<asrwt>0</asrwt>
<pdfrwt beam="1">  1       11 0.10000000E+01 0.59853599E+02</pdfrwt>
<pdfrwt beam="2">  1        2 0.96589188E-03 0.29813570E+02</pdfrwt>
<totfact> 0.13040703E+04</totfact>
</mgrwt>
</event>
<event>
 5    1  0.2847672E-003  0.2357718E+02  0.7818608E-02  0.1682321E+00
         11   -1    0    0    0    0  0.00000000000E+00  0.00000000000E+00  0.10001628921E+04  0.10001628921E+04  0.51100000000E-03 0.  1.
          2   -1    0    0  501    0 -0.00000000000E+00 -0.00000000000E+00 -0.39816153802E+01  0.39816161968E+01  0.25500000000E-02 0.  1.
         11    1    1    2    0    0 -0.18266550234E+02  0.77232350379E+01  0.42925054305E+02  0.47285045250E+02  0.51100000000E-03 0.  1.
         22    1    1    2    0    0 -0.19677433100E+01  0.22554962969E+02  0.88943037058E+02  0.91779421492E+02  0.00000000000E+00 0.  1.
          2    1    1    2  501    0  0.20234293544E+02 -0.30278198007E+02  0.86431318536E+03  0.86508004155E+03  0.25500000000E-02 0.  1.
<mgrwt>
<rscale>  0 0.23577182E+02</rscale>
<asrwt>0</asrwt>
<pdfrwt beam="1">  1       11 0.10000000E+01 0.19832186E+02</pdfrwt>
<pdfrwt beam="2">  1        2 0.61265604E-03 0.23577182E+02</pdfrwt>
<totfact> 0.22477597E+04</totfact>
</mgrwt>
</event>
<event>
 5    1  0.2847672E-003  0.1001293E+03  0.7818608E-02  0.1465985E+00
         11   -1    0    0    0    0  0.00000000000E+00  0.00000000000E+00  0.10000219860E+04  0.10000219860E+04  0.51100000000E-03 0. -1.
          2   -1    0    0  501    0 -0.00000000000E+00 -0.00000000000E+00 -0.41514288702E+02  0.41514288780E+02  0.25500000000E-02 0. -1.
         11    1    1    2    0    0 -0.95294627840E+02 -0.69752003017E+02  0.14214740271E+03  0.18480338773E+03  0.51100000000E-03 0. -1.
         22    1    1    2    0    0  0.20247421763E+02  0.71448178853E+01 -0.10650350135E+02  0.23967404295E+02  0.00000000000E+00 0. -1.
          2    1    1    2  501    0  0.75047206077E+02  0.62607185132E+02  0.82701064469E+03  0.83276548272E+03  0.25500000000E-02 0. -1.
<mgrwt>
<rscale>  0 0.46366818E+02</rscale>
<asrwt>0</asrwt>
<pdfrwt beam="1">  1       11 0.10000000E+01 0.10012932E+03</pdfrwt>
<pdfrwt beam="2">  1        2 0.63869539E-02 0.46366818E+02</pdfrwt>
<totfact> 0.12194195E+03</totfact>
</mgrwt>
</event>
<event>
 5    1  0.2847672E-003  0.1064626E+03  0.7818608E-02  0.1442463E+00
         11   -1    0    0    0    0  0.00000000000E+00  0.00000000000E+00  0.10002978593E+04  0.10002978593E+04  0.51100000000E-03 0. -1.
          2   -1    0    0  501    0 -0.00000000000E+00 -0.00000000000E+00 -0.52306323034E+02  0.52306323096E+02  0.25500000000E-02 0. -1.
         11    1    1    2    0    0  0.11330980029E+03  0.34134722249E+02  0.60464409434E+03  0.61611587459E+03  0.51100000000E-03 0. -1.
         22    1    1    2    0    0 -0.23566584291E+02 -0.44881462592E+01 -0.37263501818E+02  0.44318121799E+02  0.00000000000E+00 0. -1.
          2    1    1    2  501    0 -0.89743216001E+02 -0.29646575990E+02  0.38061094378E+03  0.39217018604E+03  0.25500000000E-02 0. -1.
<mgrwt>
<rscale>  0 0.50537639E+02</rscale>
<asrwt>0</asrwt>
<pdfrwt beam="1">  1       11 0.10000000E+01 0.10646256E+03</pdfrwt>
<pdfrwt beam="2">  1        2 0.80495233E-02 0.50537639E+02</pdfrwt>
<totfact> 0.92560992E+02</totfact>
</mgrwt>
</event>
<event>
 5    1  0.2847672E-003  0.7207503E+02  0.7818608E-02  0.1486328E+00
         11   -1    0    0    0    0  0.00000000000E+00  0.00000000000E+00  0.10004376095E+04  0.10004376095E+04  0.51100000000E-03 0. -1.
         -2   -1    0    0    0  501 -0.00000000000E+00 -0.00000000000E+00 -0.12613821087E+02  0.12613821345E+02  0.25500000000E-02 0. -1.
         11    1    1    2    0    0 -0.68174252507E+02  0.56986807517E+02  0.44168462211E+03  0.45053360623E+03  0.51100000000E-03 0. -1.
         22    1    1    2    0    0  0.23891100085E+02 -0.97811464007E+01  0.20653278062E+02  0.33060752908E+02  0.00000000000E+00 0. -1.
         -2    1    1    2    0  501  0.44283152422E+02 -0.47205661116E+02  0.52548588821E+03  0.52945707167E+03  0.25500000000E-02 0. -1.
<mgrwt>
<rscale>  0 0.43135527E+02</rscale>
<asrwt>0</asrwt>
<pdfrwt beam="1">  1       11 0.10000000E+01 0.72075034E+02</pdfrwt>
<pdfrwt beam="2">  1       -2 0.19414370E-02 0.43135527E+02</pdfrwt>
<totfact> 0.50579710E+03</totfact>
</mgrwt>
</event>
<event>
 5    1  0.2847672E-003  0.1657256E+03  0.7818608E-02  0.1386489E+00
         11   -1    0    0    0    0  0.00000000000E+00  0.00000000000E+00  0.99993108420E+03  0.99993108420E+03  0.51100000000E-03 0. -1.
          2   -1    0    0  501    0 -0.00000000000E+00 -0.00000000000E+00 -0.82553715958E+02  0.82553715997E+02  0.25500000000E-02 0. -1.
         11    1    1    2    0    0  0.10650096635E+03 -0.12321350233E+03  0.83251848267E+03  0.84829891369E+03  0.51100000000E-03 0. -1.
         22    1    1    2    0    0  0.16465848526E+02 -0.17169142200E+02 -0.88191876897E+01  0.25370882584E+02  0.00000000000E+00 0.  1.
          2    1    1    2  501    0 -0.12296681488E+03  0.14038264453E+03  0.93678073268E+02  0.20881500392E+03  0.25500000000E-02 0. -1.
<mgrwt>
<rscale>  0 0.62788552E+02</rscale>
<asrwt>0</asrwt>
<pdfrwt beam="1">  1       11 0.10000000E+01 0.16572564E+03</pdfrwt>
<pdfrwt beam="2">  1        2 0.12699696E-01 0.62788552E+02</pdfrwt>
<totfact> 0.54635568E+02</totfact>
</mgrwt>
</event>
<event>
 5    1  0.2847672E-003  0.2733647E+02  0.7818608E-02  0.1629546E+00
         11   -1    0    0    0    0  0.00000000000E+00  0.00000000000E+00  0.10004408999E+04  0.10004408999E+04  0.51100000000E-03 0.  1.
          2   -1    0    0  501    0 -0.00000000000E+00 -0.00000000000E+00 -0.43742131246E+01  0.43742138678E+01  0.25500000000E-02 0.  1.
         11    1    1    2    0    0  0.13781154825E+02 -0.95026432631E+01  0.29689206324E+02  0.34083271993E+02  0.51100000000E-03 0.  1.
         22    1    1    2    0    0 -0.27149185612E+02 -0.82276464903E+01  0.96809216484E+02  0.10088011123E+03  0.00000000000E+00 0.  1.
          2    1    1    2  501    0  0.13368030788E+02  0.17730289753E+02  0.86956826396E+03  0.86985173054E+03  0.25500000000E-02 0.  1.
<mgrwt>
<rscale>  0 0.27336472E+02</rscale>
<asrwt>0</asrwt>
<pdfrwt beam="1">  1       11 0.10000000E+01 0.16739795E+02</pdfrwt>
<pdfrwt beam="2">  1        2 0.67325261E-03 0.27336472E+02</pdfrwt>
<totfact> 0.20583313E+04</totfact>
</mgrwt>
</event>
<event>
 5    1  0.2847672E-003  0.2127780E+03  0.7818608E-02  0.1139385E+00
         11   -1    0    0    0    0  0.00000000000E+00  0.00000000000E+00  0.10000663993E+04  0.10000663993E+04  0.51100000000E-03 0. -1.
          2   -1    0    0  501    0 -0.00000000000E+00 -0.00000000000E+00 -0.22821236222E+03  0.22821236223E+03  0.25500000000E-02 0. -1.
         11    1    1    2    0    0  0.17974491768E+03  0.93565572979E+02  0.93717008155E+03  0.95882767671E+03  0.51100000000E-03 0. -1.
         22    1    1    2    0    0 -0.96380626891E+02 -0.34752966275E+02 -0.12008344399E+03  0.15785128262E+03  0.00000000000E+00 0. -1.
          2    1    1    2  501    0 -0.83364290793E+02 -0.58812606704E+02 -0.45232600510E+02  0.11159980216E+03  0.25500000000E-02 0. -1.
<mgrwt>
<rscale>  0 0.21277804E+03</rscale>
<asrwt>0</asrwt>
<pdfrwt beam="1">  1       11 0.10000000E+01 0.20263946E+03</pdfrwt>
<pdfrwt beam="2">  1        2 0.35111924E-01 0.21277804E+03</pdfrwt>
<totfact> 0.18216891E+02</totfact>
</mgrwt>
</event>
<event>
 5    1  0.2847672E-003  0.8772165E+02  0.7818608E-02  0.1589794E+00
         11   -1    0    0    0    0  0.00000000000E+00  0.00000000000E+00  0.10000359113E+04  0.10000359113E+04  0.51100000000E-03 0. -1.
          2   -1    0    0  501    0 -0.00000000000E+00 -0.00000000000E+00 -0.87663857477E+01  0.87663861186E+01  0.25500000000E-02 0. -1.
         11    1    1    2    0    0  0.57815349708E+02  0.62066121513E+02  0.44735075311E+03  0.45532133094E+03  0.51100000000E-03 0. -1.
         22    1    1    2    0    0 -0.29086674834E+01  0.10389484152E+02  0.40103385256E+02  0.41529305755E+02  0.00000000000E+00 0. -1.
          2    1    1    2  501    0 -0.54906682225E+02 -0.72455605665E+02  0.50381538720E+03  0.51195166074E+03  0.25500000000E-02 0. -1.
<mgrwt>
<rscale>  0 0.30764033E+02</rscale>
<asrwt>0</asrwt>
<pdfrwt beam="1">  1       11 0.10000000E+01 0.87721654E+02</pdfrwt>
<pdfrwt beam="2">  1        2 0.13487232E-02 0.30764033E+02</pdfrwt>
<totfact> 0.84617987E+03</totfact>
</mgrwt>
</event>
<event>
 5    1  0.2847672E-003  0.2168587E+02  0.7818608E-02  0.1726470E+00
         11   -1    0    0    0    0  0.00000000000E+00  0.00000000000E+00  0.10001636210E+04  0.10001636210E+04  0.51100000000E-03 0. -1.
          2   -1    0    0  501    0 -0.00000000000E+00 -0.00000000000E+00 -0.41092527166E+01  0.41092535078E+01  0.25500000000E-02 0. -1.
         11    1    1    2    0    0 -0.27463150253E+02  0.28606042538E+02  0.14300064539E+03  0.14839715251E+03  0.51100000000E-03 0. -1.
         22    1    1    2    0    0  0.96234520199E+01 -0.17875922859E+02  0.79805072091E+02  0.82346882019E+02  0.00000000000E+00 0. -1.
          2    1    1    2  501    0  0.17839698233E+02 -0.10730119679E+02  0.77324865082E+03  0.77352884000E+03  0.25500000000E-02 0. -1.
<mgrwt>
<rscale>  0 0.20982375E+02</rscale>
<asrwt>0</asrwt>
<pdfrwt beam="1">  1       11 0.10000000E+01 0.21685872E+02</pdfrwt>
<pdfrwt beam="2">  1        2 0.63229621E-03 0.20982375E+02</pdfrwt>
<totfact> 0.20938092E+04</totfact>
</mgrwt>
</event>
<event>
 5    1  0.2847672E-003  0.1829566E+03  0.7818608E-02  0.1432173E+00
         11   -1    0    0    0    0  0.00000000000E+00  0.00000000000E+00  0.99995885109E+03  0.99995885109E+03  0.51100000000E-03 0.  1.
          2   -1    0    0  501    0 -0.00000000000E+00 -0.00000000000E+00 -0.79266178913E+02  0.79266178954E+02  0.25500000000E-02 0.  1.
         11    1    1    2    0    0  0.10318525106E+03  0.15416771043E+03  0.83739353964E+03  0.85769622781E+03  0.51100000000E-03 0.  1.
         22    1    1    2    0    0 -0.10562239899E+02 -0.10763288569E+02 -0.17637731917E+02  0.23205578633E+02  0.00000000000E+00 0. -1.
          2    1    1    2  501    0 -0.92623011157E+02 -0.14340442186E+03  0.10093686445E+03  0.19832322360E+03  0.25500000000E-02 0.  1.
<mgrwt>
<rscale>  0 0.52526208E+02</rscale>
<asrwt>0</asrwt>
<pdfrwt beam="1">  1       11 0.10000000E+01 0.18295656E+03</pdfrwt>
<pdfrwt beam="2">  1        2 0.12194295E-01 0.52526208E+02</pdfrwt>
<totfact> 0.56640262E+02</totfact>
</mgrwt>
</event>
<event>
 5    1  0.2847672E-003  0.4799809E+02  0.7818608E-02  0.1569156E+00
         11   -1    0    0    0    0  0.00000000000E+00  0.00000000000E+00  0.10003628933E+04  0.10003628933E+04  0.51100000000E-03 0.  1.
          2   -1    0    0  501    0 -0.00000000000E+00 -0.00000000000E+00 -0.13425174850E+02  0.13425175092E+02  0.25500000000E-02 0.  1.
         11    1    1    2    0    0  0.46632081174E+02 -0.43866619281E+02  0.11202010574E+03  0.12902455337E+03  0.51100000000E-03 0.  1.
         22    1    1    2    0    0 -0.22061011359E+02  0.38805034762E+01  0.25062953896E+02  0.33613958223E+02  0.00000000000E+00 0. -1.
          2    1    1    2  501    0 -0.24571069815E+02  0.39986115804E+02  0.84985465881E+03  0.85114955680E+03  0.25500000000E-02 0.  1.
<mgrwt>
<rscale>  0 0.32789360E+02</rscale>
<asrwt>0</asrwt>
<pdfrwt beam="1">  1       11 0.10000000E+01 0.47998085E+02</pdfrwt>
<pdfrwt beam="2">  1        2 0.20661610E-02 0.32789360E+02</pdfrwt>
<totfact> 0.49047218E+03</totfact>
</mgrwt>
</event>
<event>
 5    1  0.2847672E-003  0.2368300E+03  0.7818608E-02  0.1363345E+00
         11   -1    0    0    0    0  0.00000000000E+00  0.00000000000E+00  0.10001199854E+04  0.10001199854E+04  0.51100000000E-03 0.  1.
          2   -1    0    0  501    0 -0.00000000000E+00 -0.00000000000E+00 -0.85687278336E+02  0.85687278374E+02  0.25500000000E-02 0.  1.
         11    1    1    2    0    0  0.81967554090E+02  0.21690482987E+03  0.67755314899E+03  0.71613173010E+03  0.51100000000E-03 0.  1.
         22    1    1    2    0    0 -0.75785497389E+00  0.20119341756E+02 -0.57098852088E+01  0.20927614436E+02  0.00000000000E+00 0.  1.
          2    1    1    2  501    0 -0.81209699116E+02 -0.23702417163E+03  0.24258944323E+03  0.34874791919E+03  0.25500000000E-02 0.  1.
<mgrwt>
<rscale>  0 0.69052463E+02</rscale>
<asrwt>0</asrwt>
<pdfrwt beam="1">  1       11 0.10000000E+01 0.23682999E+03</pdfrwt>
<pdfrwt beam="2">  1        2 0.13184240E-01 0.69052463E+02</pdfrwt>
<totfact> 0.52594925E+02</totfact>
</mgrwt>
</event>
<event>
 5    1  0.2847672E-003  0.1289366E+03  0.7818608E-02  0.1334554E+00
         11   -1    0    0    0    0  0.00000000000E+00  0.00000000000E+00  0.10001158643E+04  0.10001158643E+04  0.51100000000E-03 0.  1.
          2   -1    0    0  501    0 -0.00000000000E+00 -0.00000000000E+00 -0.27073784252E+02  0.27073784372E+02  0.25500000000E-02 0.  1.
         11    1    1    2    0    0 -0.11708458480E+02  0.11743489844E+03  0.48255824153E+03  0.49678013229E+03  0.51100000000E-03 0.  1.
         22    1    1    2    0    0  0.32274488446E+02  0.34575081499E+02  0.92583615987E+02  0.10396540201E+03  0.00000000000E+00 0.  1.
          2    1    1    2  501    0 -0.20566029966E+02 -0.15200997994E+03  0.39790022256E+03  0.42644411440E+03  0.25500000000E-02 0.  1.
<mgrwt>
<rscale>  0 0.78092350E+02</rscale>
<asrwt>0</asrwt>
<pdfrwt beam="1">  1       11 0.10000000E+01 0.12893664E+03</pdfrwt>
<pdfrwt beam="2">  1        2 0.41656801E-02 0.78092350E+02</pdfrwt>
<totfact> 0.22092718E+03</totfact>
</mgrwt>
</event>
<event>
 5    1  0.2847672E-003  0.1326922E+03  0.7818608E-02  0.1485112E+00
         11   -1    0    0    0    0  0.00000000000E+00  0.00000000000E+00  0.10002123964E+04  0.10002123964E+04  0.51100000000E-03 0. -1.
          2   -1    0    0  501    0 -0.00000000000E+00 -0.00000000000E+00 -0.33148922147E+02  0.33148922245E+02  0.25500000000E-02 0. -1.
         11    1    1    2    0    0 -0.10911951582E+03 -0.86119641805E+02  0.58914236889E+03  0.60532007423E+03  0.51100000000E-03 0. -1.
         22    1    1    2    0    0  0.95830625383E+01  0.10400804506E+02 -0.12004401403E+02  0.18550403635E+02  0.00000000000E+00 0.  1.
          2    1    1    2  501    0  0.99536453284E+02  0.75718837300E+02  0.38992550676E+03  0.40949084078E+03  0.25500000000E-02 0. -1.
<mgrwt>
<rscale>  0 0.43319820E+02</rscale>
<asrwt>0</asrwt>
<pdfrwt beam="1">  1       11 0.10000000E+01 0.13269222E+03</pdfrwt>
<pdfrwt beam="2">  1        2 0.51009172E-02 0.43319820E+02</pdfrwt>
<totfact> 0.16023476E+03</totfact>
</mgrwt>
</event>
<event>
 5    1  0.2847672E-003  0.1680492E+03  0.7818608E-02  0.1392687E+00
         11   -1    0    0    0    0  0.00000000000E+00  0.00000000000E+00  0.10005307651E+04  0.10005307651E+04  0.51100000000E-03 0.  1.
          2   -1    0    0  501    0 -0.00000000000E+00 -0.00000000000E+00 -0.14793439442E+03  0.14793439445E+03  0.25500000000E-02 0.  1.
         11    1    1    2    0    0 -0.63610915483E+02 -0.15662287749E+03  0.89363800828E+03  0.90948664871E+03  0.51100000000E-03 0.  1.
         22    1    1    2    0    0 -0.15135985675E+02  0.16402947228E+02 -0.71848629266E+02  0.75235498719E+02  0.00000000000E+00 0.  1.
          2    1    1    2  501    0  0.78746901158E+02  0.14021993027E+03  0.30806991691E+02  0.16374301215E+03  0.25500000000E-02 0.  1.
<mgrwt>
<rscale>  0 0.61243396E+02</rscale>
<asrwt>0</asrwt>
<pdfrwt beam="1">  1       11 0.10000000E+01 0.16804918E+03</pdfrwt>
<pdfrwt beam="2">  1        2 0.22771217E-01 0.61243396E+02</pdfrwt>
<totfact> 0.28296470E+02</totfact>
</mgrwt>
</event>
<event>
 5    1  0.2930865E-003  0.5073033E+03  0.7818608E-02  0.1011890E+00
         11   -1    0    0    0    0  0.00000000000E+00  0.00000000000E+00  0.10011959965E+04  0.10011959965E+04  0.51100000000E-03 0. -1.
          2   -1    0    0  501    0 -0.00000000000E+00 -0.00000000000E+00 -0.12840768028E+04  0.12840768028E+04  0.25500000000E-02 0. -1.
         11    1    1    2    0    0  0.49479063092E+03  0.92597744595E+02  0.88154228183E+03  0.10151398452E+04  0.51100000000E-03 0. -1.
         22    1    1    2    0    0 -0.14512692093E+02  0.58093270962E+01 -0.55762554750E+02  0.57912252808E+02  0.00000000000E+00 0.  1.
          2    1    1    2  501    0 -0.48027793883E+03 -0.98407071691E+02 -0.11086605334E+04  0.12122207012E+04  0.25500000000E-02 0. -1.
<mgrwt>
<rscale>  0 0.50730326E+03</rscale>
<asrwt>0</asrwt>
<pdfrwt beam="1">  1       11 0.10000000E+01 0.50338068E+03</pdfrwt>
<pdfrwt beam="2">  1        2 0.19778654E+00 0.50730326E+03</pdfrwt>
<totfact> 0.21545449E+01</totfact>
</mgrwt>
</event>
<event>
 5    1  0.2847672E-003  0.1739681E+03  0.7818608E-02  0.1413720E+00
         11   -1    0    0    0    0  0.00000000000E+00  0.00000000000E+00  0.10000483120E+04  0.10000483120E+04  0.51100000000E-03 0. -1.
          2   -1    0    0  501    0 -0.00000000000E+00 -0.00000000000E+00 -0.66708275169E+02  0.66708275218E+02  0.25500000000E-02 0.  1.
         11    1    1    2    0    0  0.13997251059E+03 -0.10285713032E+03  0.82597208958E+03  0.84403897170E+03  0.51100000000E-03 0. -1.
         22    1    1    2    0    0  0.12085759248E+02  0.13696800135E+02  0.52604849748E+01  0.19008961379E+02  0.00000000000E+00 0.  1.
          2    1    1    2  501    0 -0.15205826983E+03  0.89160330183E+02  0.10210746222E+03  0.20370865409E+03  0.25500000000E-02 0.  1.
<mgrwt>
<rscale>  0 0.56372001E+02</rscale>
<asrwt>0</asrwt>
<pdfrwt beam="1">  1       11 0.10000000E+01 0.17396812E+03</pdfrwt>
<pdfrwt beam="2">  1        2 0.10263307E-01 0.56372001E+02</pdfrwt>
<totfact> 0.69706748E+02</totfact>
</mgrwt>
</event>
<event>
 5    1  0.2847672E-003  0.1661247E+03  0.7818608E-02  0.1181950E+00
         11   -1    0    0    0    0  0.00000000000E+00  0.00000000000E+00  0.10001373558E+04  0.10001373558E+04  0.51100000000E-03 0. -1.
         -2   -1    0    0    0  501 -0.00000000000E+00 -0.00000000000E+00 -0.44864032832E+02  0.44864032905E+02  0.25500000000E-02 0. -1.
         11    1    1    2    0    0 -0.10584590125E+03  0.12640823790E+03  0.69436905047E+03  0.71367413829E+03  0.51100000000E-03 0. -1.
         22    1    1    2    0    0  0.17175942089E+02  0.14920163758E+02  0.88637494141E+02  0.91510817070E+02  0.00000000000E+00 0. -1.
         -2    1    1    2    0  501  0.88669959159E+02 -0.14132840166E+03  0.17226677840E+03  0.23981643339E+03  0.25500000000E-02 0. -1.
<mgrwt>
<rscale>  0 0.16612472E+03</rscale>
<asrwt>0</asrwt>
<pdfrwt beam="1">  1       11 0.10000000E+01 0.22751358E+02</pdfrwt>
<pdfrwt beam="2">  1       -2 0.69031068E-02 0.16612472E+03</pdfrwt>
<totfact> 0.91979159E+02</totfact>
</mgrwt>
</event>
<event>
 5    1  0.2847672E-003  0.2160608E+03  0.7818608E-02  0.1219744E+00
         11   -1    0    0    0    0  0.00000000000E+00  0.00000000000E+00  0.99992097751E+03  0.99992097751E+03  0.51100000000E-03 0. -1.
          2   -1    0    0  501    0 -0.00000000000E+00 -0.00000000000E+00 -0.37867479389E+03  0.37867479390E+03  0.25500000000E-02 0. -1.
         11    1    1    2    0    0 -0.20630082615E+03 -0.70990586893E+02  0.92080139874E+03  0.94629536099E+03  0.51100000000E-03 0. -1.
         22    1    1    2    0    0  0.32484263325E+02  0.78302553243E+02  0.12814172228E+01  0.84783012675E+02  0.00000000000E+00 0. -1.
          2    1    1    2  501    0  0.17381656283E+03 -0.73119663500E+01 -0.30083663235E+03  0.34751739775E+03  0.25500000000E-02 0. -1.
<mgrwt>
<rscale>  0 0.13533734E+03</rscale>
<asrwt>0</asrwt>
<pdfrwt beam="1">  1       11 0.10000000E+01 0.21606084E+03</pdfrwt>
<pdfrwt beam="2">  1        2 0.58253055E-01 0.13533734E+03</pdfrwt>
<totfact> 0.10577792E+02</totfact>
</mgrwt>
</event>
<event>
 5    1  0.2847672E-003  0.1166789E+03  0.7818608E-02  0.1449752E+00
         11   -1    0    0    0    0  0.00000000000E+00  0.00000000000E+00  0.10000162638E+04  0.10000162638E+04  0.51100000000E-03 0. -1.
         -2   -1    0    0    0  501 -0.00000000000E+00 -0.00000000000E+00 -0.23864846202E+02  0.23864846338E+02  0.25500000000E-02 0.  1.
         11    1    1    2    0    0  0.10708677069E+03  0.62960960320E+02  0.70156911513E+03  0.71248219787E+03  0.51100000000E-03 0. -1.
         22    1    1    2    0    0 -0.17555471427E+02 -0.11041346775E+02  0.32425001876E+01  0.20990943836E+02  0.00000000000E+00 0. -1.
         -2    1    1    2    0  501 -0.89531299260E+02 -0.51919613545E+02  0.27133980224E+03  0.29040796839E+03  0.25500000000E-02 0.  1.
<mgrwt>
<rscale>  0 0.49191494E+02</rscale>
<asrwt>0</asrwt>
<pdfrwt beam="1">  1       11 0.10000000E+01 0.11667890E+03</pdfrwt>
<pdfrwt beam="2">  1       -2 0.36715744E-02 0.49191494E+02</pdfrwt>
<totfact> 0.20869533E+03</totfact>
</mgrwt>
</event>
<event>
 5    1  0.2847672E-003  0.1077132E+03  0.7818608E-02  0.1376737E+00
         11   -1    0    0    0    0  0.00000000000E+00  0.00000000000E+00  0.10001652313E+04  0.10001652313E+04  0.51100000000E-03 0. -1.
          2   -1    0    0  501    0 -0.00000000000E+00 -0.00000000000E+00 -0.38371297454E+02  0.38371297539E+02  0.25500000000E-02 0. -1.
         11    1    1    2    0    0  0.10443196972E+03 -0.41714008604E+02  0.11060322646E+03  0.15773131749E+03  0.51100000000E-03 0. -1.
         22    1    1    2    0    0 -0.24670251919E+02 -0.31005867352E+02  0.23419672481E+02  0.46026798706E+02  0.00000000000E+00 0. -1.
          2    1    1    2  501    0 -0.79761717797E+02  0.72719875956E+02  0.82777103490E+03  0.83477841264E+03  0.25500000000E-02 0. -1.
<mgrwt>
<rscale>  0 0.65329329E+02</rscale>
<asrwt>0</asrwt>
<pdfrwt beam="1">  1       11 0.10000000E+01 0.10771318E+03</pdfrwt>
<pdfrwt beam="2">  1        2 0.59042518E-02 0.65329329E+02</pdfrwt>
<totfact> 0.13894634E+03</totfact>
</mgrwt>
</event>
<event>
 5    1  0.2847672E-003  0.3761428E+02  0.7818608E-02  0.1688903E+00
         11   -1    0    0    0    0  0.00000000000E+00  0.00000000000E+00  0.10002759642E+04  0.10002759642E+04  0.51100000000E-03 0. -1.
          2   -1    0    0  501    0 -0.00000000000E+00 -0.00000000000E+00 -0.64990339010E+01  0.64990344012E+01  0.25500000000E-02 0. -1.
         11    1    1    2    0    0  0.16088515041E+02  0.44468642787E+02  0.15984499273E+03  0.16669349780E+03  0.51100000000E-03 0. -1.
         22    1    1    2    0    0 -0.11705583545E+02 -0.81479589865E+01  0.16410899082E+02  0.21742298187E+02  0.00000000000E+00 0.  1.
          2    1    1    2  501    0 -0.43829314962E+01 -0.36320683801E+02  0.81752103845E+03  0.81833920258E+03  0.25500000000E-02 0. -1.
<mgrwt>
<rscale>  0 0.23161639E+02</rscale>
<asrwt>0</asrwt>
<pdfrwt beam="1">  1       11 0.10000000E+01 0.37614277E+02</pdfrwt>
<pdfrwt beam="2">  1        2 0.10001273E-02 0.23161639E+02</pdfrwt>
<totfact> 0.11790598E+04</totfact>
</mgrwt>
</event>
<event>
 5    1  0.2847672E-003  0.1327111E+03  0.7818608E-02  0.1223488E+00
         11   -1    0    0    0    0  0.00000000000E+00  0.00000000000E+00  0.10007408382E+04  0.10007408382E+04  0.51100000000E-03 0. -1.
         -2   -1    0    0    0  501 -0.00000000000E+00 -0.00000000000E+00 -0.23710980578E+02  0.23710980715E+02  0.25500000000E-02 0.  1.
         11    1    1    2    0    0  0.11950469242E+03  0.39824288732E+02  0.75768166638E+03  0.76808128023E+03  0.51100000000E-03 0. -1.
         22    1    1    2    0    0 -0.38478775423E+02  0.67326225168E+01  0.58402419608E+02  0.70262272807E+02  0.00000000000E+00 0. -1.
         -2    1    1    2    0  501 -0.81025917000E+02 -0.46556911249E+02  0.16094577162E+03  0.18610826585E+03  0.25500000000E-02 0.  1.
<mgrwt>
<rscale>  0 0.13271105E+03</rscale>
<asrwt>0</asrwt>
<pdfrwt beam="1">  1       11 0.10000000E+01 0.12596565E+03</pdfrwt>
<pdfrwt beam="2">  1       -2 0.36505455E-02 0.13271105E+03</pdfrwt>
<totfact> 0.23557135E+03</totfact>
</mgrwt>
</event>
<event>
 5    1  0.2847672E-003  0.1706539E+03  0.7818608E-02  0.1282509E+00
         11   -1    0    0    0    0  0.00000000000E+00  0.00000000000E+00  0.10002305256E+04  0.10002305256E+04  0.51100000000E-03 0. -1.
          2   -1    0    0  501    0 -0.00000000000E+00 -0.00000000000E+00 -0.20872516008E+03  0.20872516009E+03  0.25500000000E-02 0. -1.
         11    1    1    2    0    0  0.77976787566E+02  0.12818659692E+03  0.46774799100E+03  0.49122333629E+03  0.51100000000E-03 0. -1.
         22    1    1    2    0    0  0.34386869580E+02  0.45934758757E+02 -0.17151241035E+03  0.18085620190E+03  0.00000000000E+00 0. -1.
          2    1    1    2  501    0 -0.11236365715E+03 -0.17412135567E+03  0.49526978483E+03  0.53687614747E+03  0.25500000000E-02 0. -1.
<mgrwt>
<rscale>  0 0.98955115E+02</rscale>
<asrwt>0</asrwt>
<pdfrwt beam="1">  1       11 0.10000000E+01 0.17065394E+03</pdfrwt>
<pdfrwt beam="2">  1        2 0.32118965E-01 0.98955115E+02</pdfrwt>
<totfact> 0.19817913E+02</totfact>
</mgrwt>
</event>
<event>
 5    1  0.2847672E-003  0.3034023E+02  0.7818608E-02  0.1752687E+00
         11   -1    0    0    0    0  0.00000000000E+00  0.00000000000E+00  0.10000322979E+04  0.10000322979E+04  0.51100000000E-03 0. -1.
          2   -1    0    0  501    0 -0.00000000000E+00 -0.00000000000E+00 -0.30410966200E+01  0.30410976891E+01  0.25500000000E-02 0. -1.
         11    1    1    2    0    0 -0.48389077295E+01 -0.37730539290E+02  0.21408886601E+03  0.21744206395E+03  0.51100000000E-03 0. -1.
         22    1    1    2    0    0  0.91455216424E+01  0.88218452274E+01  0.36348327377E+02  0.38505407704E+02  0.00000000000E+00 0.  1.
          2    1    1    2  501    0 -0.43066139129E+01  0.28908694063E+02  0.74655400790E+03  0.74712592394E+03  0.25500000000E-02 0. -1.
<mgrwt>
<rscale>  0 0.19634925E+02</rscale>
<asrwt>0</asrwt>
<pdfrwt beam="1">  1       11 0.10000000E+01 0.30340228E+02</pdfrwt>
<pdfrwt beam="2">  1        2 0.46787620E-03 0.19634925E+02</pdfrwt>
<totfact> 0.30469186E+04</totfact>
</mgrwt>
</event>
<event>
 5    1  0.2847672E-003  0.1827608E+03  0.7818608E-02  0.1360684E+00
         11   -1    0    0    0    0  0.00000000000E+00  0.00000000000E+00  0.10002488850E+04  0.10002488850E+04  0.51100000000E-03 0. -1.
          2   -1    0    0  501    0 -0.00000000000E+00 -0.00000000000E+00 -0.73773957952E+02  0.73773957996E+02  0.25500000000E-02 0. -1.
         11    1    1    2    0    0 -0.18079710440E+03  0.73616982124E+02  0.17902691429E+03  0.26487296777E+03  0.51100000000E-03 0. -1.
         22    1    1    2    0    0  0.23169321182E+02  0.13225398831E+02 -0.11576530312E+02  0.29081689641E+02  0.00000000000E+00 0.  1.
          2    1    1    2  501    0  0.15762778322E+03 -0.86842380955E+02  0.75902454309E+03  0.78006818560E+03  0.25500000000E-02 0. -1.
<mgrwt>
<rscale>  0 0.69826464E+02</rscale>
<asrwt>0</asrwt>
<pdfrwt beam="1">  1       11 0.10000000E+01 0.18276082E+03</pdfrwt>
<pdfrwt beam="2">  1        2 0.11352664E-01 0.69826464E+02</pdfrwt>
<totfact> 0.62736203E+02</totfact>
</mgrwt>
</event>
<event>
 5    1  0.2847672E-003  0.8690487E+02  0.7818608E-02  0.1310525E+00
         11   -1    0    0    0    0  0.00000000000E+00  0.00000000000E+00  0.99996065806E+03  0.99996065806E+03  0.51100000000E-03 0. -1.
          2   -1    0    0  501    0 -0.00000000000E+00 -0.00000000000E+00 -0.75279526753E+01  0.75279531072E+01  0.25500000000E-02 0. -1.
         11    1    1    2    0    0 -0.37461826387E+02  0.74745360388E+02  0.39352569622E+03  0.40230924787E+03  0.51100000000E-03 0. -1.
         22    1    1    2    0    0  0.93936494199E+01 -0.10709359183E+02  0.55767798672E+02  0.57558478022E+02  0.00000000000E+00 0. -1.
          2    1    1    2  501    0  0.28068176967E+02 -0.64036001205E+02  0.54313921049E+03  0.54762088527E+03  0.25500000000E-02 0. -1.
<mgrwt>
<rscale>  0 0.86904868E+02</rscale>
<asrwt>0</asrwt>
<pdfrwt beam="1">  1       11 0.10000000E+01 0.83607801E+02</pdfrwt>
<pdfrwt beam="2">  1        2 0.11581010E-02 0.86904868E+02</pdfrwt>
<totfact> 0.12405371E+04</totfact>
</mgrwt>
</event>
<event>
 5    1  0.2847672E-003  0.4839650E+03  0.7818608E-02  0.1018051E+00
         11   -1    0    0    0    0  0.00000000000E+00  0.00000000000E+00  0.10009224230E+04  0.10009224230E+04  0.51100000000E-03 0. -1.
          2   -1    0    0  501    0 -0.00000000000E+00 -0.00000000000E+00 -0.12392372856E+04  0.12392372856E+04  0.25500000000E-02 0. -1.
         11    1    1    2    0    0  0.27682426841E+03 -0.38771427657E+03  0.89163771411E+03  0.10109262332E+04  0.51100000000E-03 0. -1.
         22    1    1    2    0    0  0.49936921156E+01  0.18269101510E+02 -0.35756831243E+02  0.40462921440E+02  0.00000000000E+00 0. -1.
          2    1    1    2  501    0 -0.28181796053E+03  0.36944517506E+03 -0.10941957455E+04  0.11887705538E+04  0.25500000000E-02 0. -1.
<mgrwt>
<rscale>  0 0.48396499E+03</rscale>
<asrwt>0</asrwt>
<pdfrwt beam="1">  1       11 0.10000000E+01 0.47639693E+03</pdfrwt>
<pdfrwt beam="2">  1        2 0.19082775E+00 0.48396499E+03</pdfrwt>
<totfact> 0.22935355E+01</totfact>
</mgrwt>
</event>
<event>
 5    1  0.2847672E-003  0.3235782E+03  0.7818608E-02  0.1370249E+00
         11   -1    0    0    0    0  0.00000000000E+00  0.00000000000E+00  0.10001987122E+04  0.10001987122E+04  0.51100000000E-03 0. -1.
          2   -1    0    0  501    0 -0.00000000000E+00 -0.00000000000E+00 -0.79150988926E+03  0.79150988927E+03  0.25500000000E-02 0. -1.
         11    1    1    2    0    0  0.31010348982E+03 -0.91053023149E+02  0.93217774397E+03  0.98661551467E+03  0.51100000000E-03 0. -1.
         22    1    1    2    0    0  0.70439651127E+01 -0.11998769394E+02 -0.70757966497E+02  0.72112951224E+02  0.00000000000E+00 0. -1.
          2    1    1    2  501    0 -0.31714745494E+03  0.10305179254E+03 -0.65273095454E+03  0.73298013557E+03  0.25500000000E-02 0. -1.
<mgrwt>
<rscale>  0 0.67097938E+02</rscale>
<asrwt>0</asrwt>
<pdfrwt beam="1">  1       11 0.10000000E+01 0.32357818E+03</pdfrwt>
<pdfrwt beam="2">  1        2 0.12179495E+00 0.67097938E+02</pdfrwt>
<totfact> 0.47259139E+01</totfact>
</mgrwt>
</event>
<event>
 5    1  0.2847672E-003  0.3248311E+02  0.7818608E-02  0.1762395E+00
         11   -1    0    0    0    0  0.00000000000E+00  0.00000000000E+00  0.10001701970E+04  0.10001701970E+04  0.51100000000E-03 0.  1.
          2   -1    0    0  501    0 -0.00000000000E+00 -0.00000000000E+00 -0.51868048649E+01  0.51868054917E+01  0.25500000000E-02 0.  1.
         11    1    1    2    0    0  0.92391103037E+01 -0.27431804521E+02  0.17037318573E+03  0.17281460434E+03  0.51100000000E-03 0.  1.
         22    1    1    2    0    0  0.11298888334E+02  0.52422250602E+00  0.52271676905E+01  0.12460456207E+02  0.00000000000E+00 0.  1.
          2    1    1    2  501    0 -0.20537998638E+02  0.26907582015E+02  0.81938303871E+03  0.82008194194E+03  0.25500000000E-02 0.  1.
<mgrwt>
<rscale>  0 0.19168140E+02</rscale>
<asrwt>0</asrwt>
<pdfrwt beam="1">  1       11 0.10000000E+01 0.32483105E+02</pdfrwt>
<pdfrwt beam="2">  1        2 0.79810582E-03 0.19168140E+02</pdfrwt>
<totfact> 0.15114505E+04</totfact>
</mgrwt>
</event>
<event>
 5    1  0.2847672E-003  0.1030522E+03  0.7818608E-02  0.1427805E+00
         11   -1    0    0    0    0  0.00000000000E+00  0.00000000000E+00  0.10000441999E+04  0.10000441999E+04  0.51100000000E-03 0.  1.
          2   -1    0    0  501    0 -0.00000000000E+00 -0.00000000000E+00 -0.24770417264E+02  0.24770417395E+02  0.25500000000E-02 0.  1.
         11    1    1    2    0    0  0.13330985939E+02 -0.11431539326E+03  0.66938400358E+03  0.67920591029E+03  0.51100000000E-03 0.  1.
         22    1    1    2    0    0 -0.77673572832E+01  0.26561947281E+02  0.35882517901E+00  0.27676662335E+02  0.00000000000E+00 0.  1.
          2    1    1    2  501    0 -0.55636286555E+01  0.87753445975E+02  0.30553095383E+03  0.31793204462E+03  0.25500000000E-02 0.  1.
<mgrwt>
<rscale>  0 0.53403207E+02</rscale>
<asrwt>0</asrwt>
<pdfrwt beam="1">  1       11 0.10000000E+01 0.10305225E+03</pdfrwt>
<pdfrwt beam="2">  1        2 0.38110018E-02 0.53403207E+02</pdfrwt>
<totfact> 0.23775366E+03</totfact>
</mgrwt>
</event>
<event>
 5    1  0.2847672E-003  0.4276126E+03  0.7818608E-02  0.1034617E+00
         11   -1    0    0    0    0  0.00000000000E+00  0.00000000000E+00  0.10001018486E+04  0.10001018486E+04  0.51100000000E-03 0. -1.
          2   -1    0    0  501    0 -0.00000000000E+00 -0.00000000000E+00 -0.21688080158E+03  0.21688080160E+03  0.25500000000E-02 0. -1.
         11    1    1    2    0    0 -0.90036489448E+02 -0.41893860351E+03  0.60007407400E+03  0.73736355838E+03  0.51100000000E-03 0. -1.
         22    1    1    2    0    0  0.10652722207E+02 -0.86161235338E+00  0.19255678191E+02  0.22022806562E+02  0.00000000000E+00 0.  1.
          2    1    1    2  501    0  0.79383767241E+02  0.41980021587E+03  0.16389129481E+03  0.45759628524E+03  0.25500000000E-02 0. -1.
<mgrwt>
<rscale>  0 0.42761265E+03</rscale>
<asrwt>0</asrwt>
<pdfrwt beam="1">  1       11 0.10000000E+01 0.10687510E+02</pdfrwt>
<pdfrwt beam="2">  1        2 0.33369675E-01 0.42761265E+03</pdfrwt>
<totfact> 0.19398058E+02</totfact>
</mgrwt>
</event>
<event>
 5    1  0.2847672E-003  0.4508373E+03  0.7818608E-02  0.1294676E+00
         11   -1    0    0    0    0  0.00000000000E+00  0.00000000000E+00  0.10001898518E+04  0.10001898518E+04  0.51100000000E-03 0. -1.
          2   -1    0    0  501    0 -0.00000000000E+00 -0.00000000000E+00 -0.26452344239E+03  0.26452344240E+03  0.25500000000E-02 0. -1.
         11    1    1    2    0    0 -0.25081513181E+03  0.36571165526E+03  0.51537252457E+03  0.67989858378E+03  0.51100000000E-03 0. -1.
         22    1    1    2    0    0 -0.10982452180E+02  0.15962687366E+02 -0.46653383037E+02  0.50516925804E+02  0.00000000000E+00 0.  1.
          2    1    1    2  501    0  0.26179758399E+03 -0.38167434263E+03  0.26694726784E+03  0.53429778459E+03  0.25500000000E-02 0. -1.
<mgrwt>
<rscale>  0 0.93463011E+02</rscale>
<asrwt>0</asrwt>
<pdfrwt beam="1">  1       11 0.10000000E+01 0.45083735E+03</pdfrwt>
<pdfrwt beam="2">  1        2 0.40703639E-01 0.93463011E+02</pdfrwt>
<totfact> 0.15414015E+02</totfact>
</mgrwt>
</event>
<event>
 5    1  0.2847672E-003  0.2615270E+03  0.7818608E-02  0.1378627E+00
         11   -1    0    0    0    0  0.00000000000E+00  0.00000000000E+00  0.10003363880E+04  0.10003363880E+04  0.51100000000E-03 0. -1.
          2   -1    0    0  501    0 -0.00000000000E+00 -0.00000000000E+00 -0.17603449768E+03  0.17603449770E+03  0.25500000000E-02 0. -1.
         11    1    1    2    0    0  0.81097338049E+02 -0.25095480090E+03  0.81479238524E+03  0.85641212122E+03  0.51100000000E-03 0. -1.
         22    1    1    2    0    0 -0.13467923565E+02  0.87647193552E+01 -0.57520438284E+02  0.59722743497E+02  0.00000000000E+00 0. -1.
          2    1    1    2  501    0 -0.67629414485E+02  0.24219008155E+03  0.67029943364E+02  0.26023602099E+03  0.25500000000E-02 0. -1.
<mgrwt>
<rscale>  0 0.64826045E+02</rscale>
<asrwt>0</asrwt>
<pdfrwt beam="1">  1       11 0.10000000E+01 0.26152698E+03</pdfrwt>
<pdfrwt beam="2">  1        2 0.27091340E-01 0.64826045E+02</pdfrwt>
<totfact> 0.23514803E+02</totfact>
</mgrwt>
</event>
<event>
 5    1  0.2847672E-003  0.7170817E+02  0.7818608E-02  0.1617180E+00
         11   -1    0    0    0    0  0.00000000000E+00  0.00000000000E+00  0.10002931813E+04  0.10002931813E+04  0.51100000000E-03 0. -1.
          2   -1    0    0  501    0 -0.00000000000E+00 -0.00000000000E+00 -0.79576234032E+01  0.79576238118E+01  0.25500000000E-02 0. -1.
         11    1    1    2    0    0 -0.73449506896E+02  0.31104205691E+02  0.31106441960E+03  0.32112828405E+03  0.51100000000E-03 0. -1.
         22    1    1    2    0    0  0.92225583163E+01 -0.63575216967E+01  0.26866226091E+02  0.29107864374E+02  0.00000000000E+00 0. -1.
          2    1    1    2  501    0  0.64226948579E+02 -0.24746683994E+02  0.65440491223E+03  0.65801465672E+03  0.25500000000E-02 0. -1.
<mgrwt>
<rscale>  0 0.28341470E+02</rscale>
<asrwt>0</asrwt>
<pdfrwt beam="1">  1       11 0.10000000E+01 0.71708173E+02</pdfrwt>
<pdfrwt beam="2">  1        2 0.12246087E-02 0.28341470E+02</pdfrwt>
<totfact> 0.94485525E+03</totfact>
</mgrwt>
</event>
<event>
 5    1  0.2847672E-003  0.6289952E+02  0.7818608E-02  0.1487558E+00
         11   -1    0    0    0    0  0.00000000000E+00  0.00000000000E+00  0.10000169671E+04  0.10000169671E+04  0.51100000000E-03 0. -1.
         -2   -1    0    0    0  501 -0.00000000000E+00 -0.00000000000E+00 -0.89021031891E+01  0.89021035543E+01  0.25500000000E-02 0.  1.
         11    1    1    2    0    0  0.48952550675E+02 -0.99565557066E+01  0.23160180283E+03  0.23692800656E+03  0.51100000000E-03 0. -1.
         22    1    1    2    0    0  0.23683602808E+02  0.17298343933E+02  0.44718792368E+02  0.53478183735E+02  0.00000000000E+00 0.  1.
         -2    1    1    2    0  501 -0.72636153483E+02 -0.73417882264E+01  0.71479426868E+03  0.71851288033E+03  0.25500000000E-02 0.  1.
<mgrwt>
<rscale>  0 0.42950337E+02</rscale>
<asrwt>0</asrwt>
<pdfrwt beam="1">  1       11 0.10000000E+01 0.62899522E+02</pdfrwt>
<pdfrwt beam="2">  1       -2 0.13695776E-02 0.42950337E+02</pdfrwt>
<totfact> 0.82288673E+03</totfact>
</mgrwt>
</event>
<event>
 5    1  0.2847672E-003  0.1183713E+03  0.7818608E-02  0.1496561E+00
         11   -1    0    0    0    0  0.00000000000E+00  0.00000000000E+00  0.10000578125E+04  0.10000578125E+04  0.51100000000E-03 0. -1.
          2   -1    0    0  501    0 -0.00000000000E+00 -0.00000000000E+00 -0.30549204119E+02  0.30549204225E+02  0.25500000000E-02 0. -1.
         11    1    1    2    0    0  0.21281893941E+02 -0.11846806497E+03  0.70582941415E+03  0.71601868921E+03  0.51100000000E-03 0. -1.
         22    1    1    2    0    0  0.11626256474E+02  0.88963661204E+01 -0.10154160440E+02  0.17816344855E+02  0.00000000000E+00 0. -1.
          2    1    1    2  501    0 -0.32908150415E+02  0.10957169885E+03  0.27383335471E+03  0.29677198269E+03  0.25500000000E-02 0. -1.
<mgrwt>
<rscale>  0 0.41628079E+02</rscale>
<asrwt>0</asrwt>
<pdfrwt beam="1">  1       11 0.10000000E+01 0.11837126E+03</pdfrwt>
<pdfrwt beam="2">  1        2 0.47001491E-02 0.41628079E+02</pdfrwt>
<totfact> 0.17679740E+03</totfact>
</mgrwt>
</event>
<event>
 5    1  0.2847672E-003  0.1556188E+03  0.7818608E-02  0.1469364E+00
         11   -1    0    0    0    0  0.00000000000E+00  0.00000000000E+00  0.10003288464E+04  0.10003288464E+04  0.51100000000E-03 0. -1.
          2   -1    0    0  501    0 -0.00000000000E+00 -0.00000000000E+00 -0.68786499996E+02  0.68786500043E+02  0.25500000000E-02 0.  1.
         11    1    1    2    0    0  0.13091915007E+03  0.85618903155E+02  0.87602994394E+03  0.88988700581E+03  0.51100000000E-03 0. -1.
         22    1    1    2    0    0 -0.12000109347E+02  0.61486797622E+01 -0.85089995468E+01  0.15944025854E+02  0.00000000000E+00 0.  1.
          2    1    1    2  501    0 -0.11891904072E+03 -0.91767582917E+02  0.64021401964E+02  0.16328431473E+03  0.25500000000E-02 0.  1.
<mgrwt>
<rscale>  0 0.45807318E+02</rscale>
<asrwt>0</asrwt>
<pdfrwt beam="1">  1       11 0.10000000E+01 0.15561884E+03</pdfrwt>
<pdfrwt beam="2">  1        2 0.10586018E-01 0.45807318E+02</pdfrwt>
<totfact> 0.66190035E+02</totfact>
</mgrwt>
</event>
<event>
 5    1  0.2847672E-003  0.2500030E+03  0.7818608E-02  0.1128523E+00
         11   -1    0    0    0    0  0.00000000000E+00  0.00000000000E+00  0.10003508307E+04  0.10003508307E+04  0.51100000000E-03 0. -1.
          2   -1    0    0  501    0 -0.00000000000E+00 -0.00000000000E+00 -0.85636192716E+02  0.85636192753E+02  0.25500000000E-02 0. -1.
         11    1    1    2    0    0  0.52541401474E+02 -0.17578888808E+03  0.65576329921E+03  0.68094628029E+03  0.51100000000E-03 0. -1.
         22    1    1    2    0    0  0.56233083862E+02 -0.23844588984E+02  0.13009114835E+03  0.14371649531E+03  0.00000000000E+00 0. -1.
          2    1    1    2  501    0 -0.10877448534E+03  0.19963347707E+03  0.12886019038E+03  0.26132424781E+03  0.25500000000E-02 0. -1.
<mgrwt>
<rscale>  0 0.22734426E+03</rscale>
<asrwt>0</asrwt>
<pdfrwt beam="1">  1       11 0.10000000E+01 0.25000296E+03</pdfrwt>
<pdfrwt beam="2">  1        2 0.13179421E-01 0.22734426E+03</pdfrwt>
<totfact> 0.55736748E+02</totfact>
</mgrwt>
</event>
<event>
 5    1  0.2847672E-003  0.5186332E+02  0.7818608E-02  0.1611745E+00
         11   -1    0    0    0    0  0.00000000000E+00  0.00000000000E+00  0.10003655986E+04  0.10003655986E+04  0.51100000000E-03 0.  1.
          2   -1    0    0  501    0 -0.00000000000E+00 -0.00000000000E+00 -0.67549536860E+01  0.67549541673E+01  0.25500000000E-02 0.  1.
         11    1    1    2    0    0  0.40546645108E+02  0.52757644747E+02  0.25110207302E+03  0.25976845571E+03  0.51100000000E-03 0.  1.
         22    1    1    2    0    0 -0.12931346900E+02 -0.44582434728E+02  0.26957987524E+03  0.27354729455E+03  0.00000000000E+00 0. -1.
          2    1    1    2  501    0 -0.27615298208E+02 -0.81752100183E+01  0.47292869664E+03  0.47380480249E+03  0.25500000000E-02 0.  1.
<mgrwt>
<rscale>  0 0.28799978E+02</rscale>
<asrwt>0</asrwt>
<pdfrwt beam="1">  1       11 0.10000000E+01 0.51863320E+02</pdfrwt>
<pdfrwt beam="2">  1        2 0.10396036E-02 0.28799978E+02</pdfrwt>
<totfact> 0.11751774E+04</totfact>
</mgrwt>
</event>
<event>
 5    1  0.2847672E-003  0.6526700E+02  0.7818608E-02  0.1586541E+00
         11   -1    0    0    0    0  0.00000000000E+00  0.00000000000E+00  0.10004258497E+04  0.10004258497E+04  0.51100000000E-03 0. -1.
         -2   -1    0    0    0  501 -0.00000000000E+00 -0.00000000000E+00 -0.66648315421E+01  0.66648320299E+01  0.25500000000E-02 0. -1.
         11    1    1    2    0    0 -0.42988540086E+02  0.43844499228E+02  0.33348407308E+03  0.33908993157E+03  0.51100000000E-03 0. -1.
         22    1    1    2    0    0  0.59439755104E+01  0.13545028994E+02  0.24896762104E+02  0.28959409845E+02  0.00000000000E+00 0. -1.
         -2    1    1    2    0  501  0.37044564576E+02 -0.57389528221E+02  0.63538018297E+03  0.63904134032E+03  0.25500000000E-02 0. -1.
<mgrwt>
<rscale>  0 0.31071189E+02</rscale>
<asrwt>0</asrwt>
<pdfrwt beam="1">  1       11 0.10000000E+01 0.65266999E+02</pdfrwt>
<pdfrwt beam="2">  1       -2 0.10257954E-02 0.31071189E+02</pdfrwt>
<totfact> 0.11508193E+04</totfact>
</mgrwt>
</event>
<event>
 5    1  0.2847672E-003  0.1551585E+03  0.7818608E-02  0.1194274E+00
         11   -1    0    0    0    0  0.00000000000E+00  0.00000000000E+00  0.10000860320E+04  0.10000860320E+04  0.51100000000E-03 0.  1.
          2   -1    0    0  501    0 -0.00000000000E+00 -0.00000000000E+00 -0.30979848977E+02  0.30979849082E+02  0.25500000000E-02 0.  1.
         11    1    1    2    0    0 -0.11324961576E+03 -0.10183914307E+03  0.73219637875E+03  0.74786912197E+03  0.51100000000E-03 0.  1.
         22    1    1    2    0    0  0.94573774462E+00  0.10104945924E+02  0.15790020102E+02  0.18770431184E+02  0.00000000000E+00 0. -1.
          2    1    1    2  501    0  0.11230387802E+03  0.91734197148E+02  0.22111978414E+03  0.26442632790E+03  0.25500000000E-02 0.  1.
<mgrwt>
<rscale>  0 0.15515846E+03</rscale>
<asrwt>0</asrwt>
<pdfrwt beam="1">  1       11 0.10000000E+01 0.15230458E+03</pdfrwt>
<pdfrwt beam="2">  1        2 0.47665405E-02 0.15515846E+03</pdfrwt>
<totfact> 0.19725290E+03</totfact>
</mgrwt>
</event>
<event>
 5    1  0.2847672E-003  0.1364522E+03  0.7818608E-02  0.1228004E+00
         11   -1    0    0    0    0  0.00000000000E+00  0.00000000000E+00  0.10003494305E+04  0.10003494305E+04  0.51100000000E-03 0.  1.
         -2   -1    0    0    0  501 -0.00000000000E+00 -0.00000000000E+00 -0.19059846551E+02  0.19059846722E+02  0.25500000000E-02 0.  1.
         11    1    1    2    0    0  0.46085812518E+02  0.84125290669E+02  0.29327994853E+03  0.30856781241E+03  0.51100000000E-03 0.  1.
         22    1    1    2    0    0 -0.23330647464E+01  0.37899242343E+02  0.72633701843E+02  0.81960053713E+02  0.00000000000E+00 0. -1.
         -2    1    1    2    0  501 -0.43752747772E+02 -0.12202453301E+03  0.61537593357E+03  0.62888141110E+03  0.25500000000E-02 0.  1.
<mgrwt>
<rscale>  0 0.12963136E+03</rscale>
<asrwt>0</asrwt>
<pdfrwt beam="1">  1       11 0.10000000E+01 0.13645224E+03</pdfrwt>
<pdfrwt beam="2">  1       -2 0.29333086E-02 0.12963136E+03</pdfrwt>
<totfact> 0.32433453E+03</totfact>
</mgrwt>
</event>
<event>
 5    1  0.2847672E-003  0.1819484E+03  0.7818608E-02  0.1388975E+00
         11   -1    0    0    0    0  0.00000000000E+00  0.00000000000E+00  0.10002101159E+04  0.10002101159E+04  0.51100000000E-03 0. -1.
          2   -1    0    0  501    0 -0.00000000000E+00 -0.00000000000E+00 -0.90745004789E+02  0.90745004825E+02  0.25500000000E-02 0. -1.
         11    1    1    2    0    0 -0.18055905070E+03 -0.12692575643E+02  0.84029476669E+03  0.85956847731E+03  0.51100000000E-03 0. -1.
         22    1    1    2    0    0 -0.82364461791E+01  0.19575510612E+02 -0.13504562554E+02  0.25167694991E+02  0.00000000000E+00 0. -1.
          2    1    1    2  501    0  0.18879549688E+03 -0.68829349687E+01  0.82674906961E+02  0.20621894841E+03  0.25500000000E-02 0. -1.
<mgrwt>
<rscale>  0 0.62162404E+02</rscale>
<asrwt>0</asrwt>
<pdfrwt beam="1">  1       11 0.10000000E+01 0.18194840E+03</pdfrwt>
<pdfrwt beam="2">  1        2 0.13963703E-01 0.62162404E+02</pdfrwt>
<totfact> 0.48920372E+02</totfact>
</mgrwt>
</event>
<event>
 5    1  0.2847672E-003  0.3646569E+03  0.7818608E-02  0.1056755E+00
         11   -1    0    0    0    0  0.00000000000E+00  0.00000000000E+00  0.99980286908E+03  0.99980286908E+03  0.51100000000E-03 0. -1.
          2   -1    0    0  501    0 -0.00000000000E+00 -0.00000000000E+00 -0.17218210712E+03  0.17218210714E+03  0.25500000000E-02 0. -1.
         11    1    1    2    0    0  0.12100488157E+03  0.33883779266E+03  0.69745844115E+03  0.78479392723E+03  0.51100000000E-03 0. -1.
         22    1    1    2    0    0 -0.13387089589E+02 -0.22938306395E+02 -0.51877528908E+01  0.27060909963E+02  0.00000000000E+00 0. -1.
          2    1    1    2  501    0 -0.10761779198E+03 -0.31589948626E+03  0.13535007371E+03  0.36013013902E+03  0.25500000000E-02 0. -1.
<mgrwt>
<rscale>  0 0.36465693E+03</rscale>
<asrwt>0</asrwt>
<pdfrwt beam="1">  1       11 0.10000000E+01 0.35979610E+03</pdfrwt>
<pdfrwt beam="2">  1        2 0.26484332E-01 0.36465693E+03</pdfrwt>
<totfact> 0.25059191E+02</totfact>
</mgrwt>
</event>
<event>
 5    1  0.2847672E-003  0.2401300E+03  0.7818608E-02  0.1329117E+00
         11   -1    0    0    0    0  0.00000000000E+00  0.00000000000E+00  0.10002880029E+04  0.10002880029E+04  0.51100000000E-03 0. -1.
          2   -1    0    0  501    0 -0.00000000000E+00 -0.00000000000E+00 -0.11884762161E+03  0.11884762163E+03  0.25500000000E-02 0. -1.
         11    1    1    2    0    0 -0.10639541453E+03 -0.21794471417E+03  0.77945360908E+03  0.81631354967E+03  0.51100000000E-03 0. -1.
         22    1    1    2    0    0 -0.16491192051E+02  0.20917915513E+02 -0.26384681151E+02  0.37492265924E+02  0.00000000000E+00 0. -1.
          2    1    1    2  501    0  0.12288660658E+03  0.19702679866E+03  0.12837145337E+03  0.26532980894E+03  0.25500000000E-02 0. -1.
<mgrwt>
<rscale>  0 0.79976820E+02</rscale>
<asrwt>0</asrwt>
<pdfrwt beam="1">  1       11 0.10000000E+01 0.24012997E+03</pdfrwt>
<pdfrwt beam="2">  1        2 0.18289515E-01 0.79976820E+02</pdfrwt>
<totfact> 0.36433030E+02</totfact>
</mgrwt>
</event>
<event>
 5    1  0.2847672E-003  0.2512613E+03  0.7818608E-02  0.1341357E+00
         11   -1    0    0    0    0  0.00000000000E+00  0.00000000000E+00  0.10002932263E+04  0.10002932263E+04  0.51100000000E-03 0. -1.
         -2   -1    0    0    0  501 -0.00000000000E+00 -0.00000000000E+00 -0.10500874631E+03  0.10500874634E+03  0.25500000000E-02 0.  1.
         11    1    1    2    0    0  0.24578489122E+03 -0.40669436734E+02  0.74122313076E+03  0.78196927395E+03  0.51100000000E-03 0. -1.
         22    1    1    2    0    0  0.62888475401E+01 -0.21996658110E+02  0.36138820294E+01  0.23161664765E+02  0.00000000000E+00 0. -1.
         -2    1    1    2    0  501 -0.25207373876E+03  0.62666094844E+02  0.15044746722E+03  0.30017103394E+03  0.25500000000E-02 0.  1.
<mgrwt>
<rscale>  0 0.75817904E+02</rscale>
<asrwt>0</asrwt>
<pdfrwt beam="1">  1       11 0.10000000E+01 0.25126131E+03</pdfrwt>
<pdfrwt beam="2">  1       -2 0.16159928E-01 0.75817904E+02</pdfrwt>
<totfact> 0.22972324E+02</totfact>
</mgrwt>
</event>
<event>
 5    1  0.2847672E-003  0.6044060E+02  0.7818608E-02  0.1634776E+00
         11   -1    0    0    0    0  0.00000000000E+00  0.00000000000E+00  0.10004413308E+04  0.10004413308E+04  0.51100000000E-03 0. -1.
          2   -1    0    0  501    0 -0.00000000000E+00 -0.00000000000E+00 -0.76457409557E+01  0.76457413809E+01  0.25500000000E-02 0. -1.
         11    1    1    2    0    0 -0.63886344447E+02  0.85966178944E+01  0.20025928244E+03  0.21037858030E+03  0.51100000000E-03 0. -1.
         22    1    1    2    0    0  0.42370256250E+01 -0.11222897252E+02  0.23755302213E+02  0.26612406733E+02  0.00000000000E+00 0.  1.
          2    1    1    2  501    0  0.59649318822E+02  0.26262793572E+01  0.76878100518E+03  0.77109608513E+03  0.25500000000E-02 0. -1.
<mgrwt>
<rscale>  0 0.26926745E+02</rscale>
<asrwt>0</asrwt>
<pdfrwt beam="1">  1       11 0.10000000E+01 0.60440598E+02</pdfrwt>
<pdfrwt beam="2">  1        2 0.11767870E-02 0.26926745E+02</pdfrwt>
<totfact> 0.98501473E+03</totfact>
</mgrwt>
</event>
<event>
 5    1  0.2847672E-003  0.2239329E+03  0.7818608E-02  0.1434520E+00
         11   -1    0    0    0    0  0.00000000000E+00  0.00000000000E+00  0.10000162276E+04  0.10000162276E+04  0.51100000000E-03 0. -1.
          2   -1    0    0  501    0 -0.00000000000E+00 -0.00000000000E+00 -0.55731880041E+02  0.55731880099E+02  0.25500000000E-02 0. -1.
         11    1    1    2    0    0  0.11897057953E+03 -0.19013217912E+03  0.57962164865E+03  0.62150261457E+03  0.51100000000E-03 0. -1.
         22    1    1    2    0    0  0.96760814611E+01  0.72727213274E+01  0.16169064504E+02  0.20197962147E+02  0.00000000000E+00 0. -1.
          2    1    1    2  501    0 -0.12864666100E+03  0.18285945779E+03  0.34849363443E+03  0.41404753101E+03  0.25500000000E-02 0. -1.
<mgrwt>
<rscale>  0 0.52063390E+02</rscale>
<asrwt>0</asrwt>
<pdfrwt beam="1">  1       11 0.10000000E+01 0.22393288E+03</pdfrwt>
<pdfrwt beam="2">  1        2 0.85742743E-02 0.52063390E+02</pdfrwt>
<totfact> 0.85957377E+02</totfact>
</mgrwt>
</event>
<event>
 5    1  0.2847672E-003  0.1517876E+03  0.7818608E-02  0.1370524E+00
         11   -1    0    0    0    0  0.00000000000E+00  0.00000000000E+00  0.99995782043E+03  0.99995782043E+03  0.51100000000E-03 0.  1.
         -2   -1    0    0    0  501 -0.00000000000E+00 -0.00000000000E+00 -0.54000674830E+02  0.54000674890E+02  0.25500000000E-02 0. -1.
         11    1    1    2    0    0 -0.15121360012E+03  0.34479334355E+01  0.77330955283E+03  0.78796262957E+03  0.51100000000E-03 0.  1.
         22    1    1    2    0    0 -0.14450347167E+01  0.29558138959E+02 -0.43822713019E+01  0.29916149582E+02  0.00000000000E+00 0. -1.
         -2    1    1    2    0  501  0.15265863483E+03 -0.33006072395E+02  0.17702986407E+03  0.23607971617E+03  0.25500000000E-02 0. -1.
<mgrwt>
<rscale>  0 0.67021760E+02</rscale>
<asrwt>0</asrwt>
<pdfrwt beam="1">  1       11 0.10000000E+01 0.15178757E+03</pdfrwt>
<pdfrwt beam="2">  1       -2 0.83074455E-02 0.67021760E+02</pdfrwt>
<totfact> 0.64641624E+02</totfact>
</mgrwt>
</event>
<event>
 5    1  0.2847672E-003  0.1500162E+03  0.7818608E-02  0.1481339E+00
         11   -1    0    0    0    0  0.00000000000E+00  0.00000000000E+00  0.99999335342E+03  0.99999335342E+03  0.51100000000E-03 0. -1.
         -2   -1    0    0    0  501 -0.00000000000E+00 -0.00000000000E+00 -0.44471310248E+02  0.44471310321E+02  0.25500000000E-02 0.  1.
         11    1    1    2    0    0  0.14225150487E+03  0.54922074467E+02  0.81874672844E+03  0.83282539000E+03  0.51100000000E-03 0. -1.
         22    1    1    2    0    0 -0.12647637298E+02 -0.22469816684E+01 -0.37163252323E+01  0.13372461594E+02  0.00000000000E+00 0. -1.
         -2    1    1    2    0  501 -0.12960386757E+03 -0.52675092799E+02  0.14049163996E+03  0.19826681214E+03  0.25500000000E-02 0.  1.
<mgrwt>
<rscale>  0 0.43898308E+02</rscale>
<asrwt>0</asrwt>
<pdfrwt beam="1">  1       11 0.10000000E+01 0.15001623E+03</pdfrwt>
<pdfrwt beam="2">  1       -2 0.68416944E-02 0.43898308E+02</pdfrwt>
<totfact> 0.83148628E+02</totfact>
</mgrwt>
</event>
<event>
 5    1  0.2847672E-003  0.8102671E+02  0.7818608E-02  0.1509056E+00
         11   -1    0    0    0    0  0.00000000000E+00  0.00000000000E+00  0.10001177446E+04  0.10001177446E+04  0.51100000000E-03 0. -1.
          2   -1    0    0  501    0 -0.00000000000E+00 -0.00000000000E+00 -0.63417992536E+02  0.63417992587E+02  0.25500000000E-02 0.  1.
         11    1    1    2    0    0 -0.73842433157E+02  0.28245569815E+02  0.45097904222E+03  0.45785654268E+03  0.51100000000E-03 0. -1.
         22    1    1    2    0    0  0.45134391325E+01  0.19107883632E+02 -0.55041423031E+02  0.58438348701E+02  0.00000000000E+00 0.  1.
          2    1    1    2  501    0  0.69328994024E+02 -0.47353453447E+02  0.54076213283E+03  0.54724084577E+03  0.25500000000E-02 0.  1.
<mgrwt>
<rscale>  0 0.39885508E+02</rscale>
<asrwt>0</asrwt>
<pdfrwt beam="1">  1       11 0.10000000E+01 0.81026714E+02</pdfrwt>
<pdfrwt beam="2">  1        2 0.97577627E-02 0.39885508E+02</pdfrwt>
<totfact> 0.72073626E+02</totfact>
</mgrwt>
</event>
<event>
 5    1  0.2847672E-003  0.1002994E+03  0.7818608E-02  0.1279668E+00
         11   -1    0    0    0    0  0.00000000000E+00  0.00000000000E+00  0.99994246757E+03  0.99994246757E+03  0.51100000000E-03 0. -1.
          2   -1    0    0  501    0 -0.00000000000E+00 -0.00000000000E+00 -0.14783949806E+02  0.14783950026E+02  0.25500000000E-02 0. -1.
         11    1    1    2    0    0 -0.33427544043E+02  0.10744743547E+03  0.59171749673E+03  0.60232212978E+03  0.51100000000E-03 0. -1.
         22    1    1    2    0    0  0.18409618215E+02 -0.13439714580E+02  0.13658085001E+03  0.13846973879E+03  0.00000000000E+00 0. -1.
          2    1    1    2  501    0  0.15017925829E+02 -0.94007720894E+02  0.25686017102E+03  0.27393454902E+03  0.25500000000E-02 0. -1.
<mgrwt>
<rscale>  0 0.10029938E+03</rscale>
<asrwt>0</asrwt>
<pdfrwt beam="1">  1       11 0.10000000E+01 0.22793419E+02</pdfrwt>
<pdfrwt beam="2">  1        2 0.22743229E-02 0.10029938E+03</pdfrwt>
<totfact> 0.50638671E+03</totfact>
</mgrwt>
</event>
<event>
 5    1  0.2847672E-003  0.3353319E+02  0.7818608E-02  0.1672697E+00
         11   -1    0    0    0    0  0.00000000000E+00  0.00000000000E+00  0.99987177296E+03  0.99987177296E+03  0.51100000000E-03 0.  1.
          2   -1    0    0  501    0 -0.00000000000E+00 -0.00000000000E+00 -0.77500311946E+01  0.77500316141E+01  0.25500000000E-02 0.  1.
         11    1    1    2    0    0  0.48721507379E+01  0.21468435041E+02  0.18011581241E+02  0.28443779900E+02  0.51100000000E-03 0.  1.
         22    1    1    2    0    0  0.16643664875E+02  0.53128593828E+01  0.32140174420E+02  0.36581810604E+02  0.00000000000E+00 0.  1.
          2    1    1    2  501    0 -0.21515815613E+02 -0.26781294424E+02  0.94196998610E+03  0.94259621407E+03  0.25500000000E-02 0.  1.
<mgrwt>
<rscale>  0 0.24204551E+02</rscale>
<asrwt>0</asrwt>
<pdfrwt beam="1">  1       11 0.10000000E+01 0.33533195E+02</pdfrwt>
<pdfrwt beam="2">  1        2 0.11921596E-02 0.24204551E+02</pdfrwt>
<totfact> 0.94713167E+03</totfact>
</mgrwt>
</event>
<event>
 5    1  0.2847672E-003  0.2916501E+02  0.7818608E-02  0.1671877E+00
         11   -1    0    0    0    0  0.00000000000E+00  0.00000000000E+00  0.10001815689E+04  0.10001815689E+04  0.51100000000E-03 0.  1.
          2   -1    0    0  501    0 -0.00000000000E+00 -0.00000000000E+00 -0.39748454394E+01  0.39748462574E+01  0.25500000000E-02 0.  1.
         11    1    1    2    0    0  0.19953724488E+02  0.78993506253E+01  0.86922050874E+02  0.89532082460E+02  0.51100000000E-03 0.  1.
         22    1    1    2    0    0  0.10445712565E+02 -0.17264342934E+02  0.40412883527E+02  0.45170472688E+02  0.00000000000E+00 0.  1.
          2    1    1    2  501    0 -0.30399437053E+02  0.93649923088E+01  0.86887178903E+03  0.86945385998E+03  0.25500000000E-02 0.  1.
<mgrwt>
<rscale>  0 0.24259120E+02</rscale>
<asrwt>0</asrwt>
<pdfrwt beam="1">  1       11 0.10000000E+01 0.29165012E+02</pdfrwt>
<pdfrwt beam="2">  1        2 0.61162576E-03 0.24259120E+02</pdfrwt>
<totfact> 0.22688881E+04</totfact>
</mgrwt>
</event>
<event>
 5    1  0.2847672E-003  0.2942310E+03  0.7818608E-02  0.1308738E+00
         11   -1    0    0    0    0  0.00000000000E+00  0.00000000000E+00  0.10002069278E+04  0.10002069278E+04  0.51100000000E-03 0. -1.
         -2   -1    0    0    0  501 -0.00000000000E+00 -0.00000000000E+00 -0.24421094667E+03  0.24421094669E+03  0.25500000000E-02 0.  1.
         11    1    1    2    0    0  0.77092323617E+02 -0.28125357090E+03  0.83993237812E+03  0.88911933806E+03  0.51100000000E-03 0. -1.
         22    1    1    2    0    0 -0.15722952447E+01 -0.26040794441E+02  0.50800969891E+01  0.26578233065E+02  0.00000000000E+00 0. -1.
         -2    1    1    2    0  501 -0.75520028372E+02  0.30729436534E+03 -0.89016493956E+02  0.32872030339E+03  0.25500000000E-02 0.  1.
<mgrwt>
<rscale>  0 0.87612570E+02</rscale>
<asrwt>0</asrwt>
<pdfrwt beam="1">  1       11 0.10000000E+01 0.29423101E+03</pdfrwt>
<pdfrwt beam="2">  1       -2 0.37578688E-01 0.87612570E+02</pdfrwt>
<totfact> 0.53711979E+01</totfact>
</mgrwt>
</event>
<event>
 5    1  0.2847672E-003  0.1358148E+03  0.7818608E-02  0.1426286E+00
         11   -1    0    0    0    0  0.00000000000E+00  0.00000000000E+00  0.10003338405E+04  0.10003338405E+04  0.51100000000E-03 0. -1.
          2   -1    0    0  501    0 -0.00000000000E+00 -0.00000000000E+00 -0.30885630632E+02  0.30885630737E+02  0.25500000000E-02 0. -1.
         11    1    1    2    0    0  0.12530420497E+03  0.49315125265E+02  0.22734034641E+03  0.26422861025E+03  0.51100000000E-03 0. -1.
         22    1    1    2    0    0  0.80694005316E+01 -0.19650352920E+02  0.12390738346E+02  0.24592315702E+02  0.00000000000E+00 0. -1.
          2    1    1    2  501    0 -0.13337360551E+03 -0.29664772345E+02  0.72971712507E+03  0.74239854525E+03  0.25500000000E-02 0. -1.
<mgrwt>
<rscale>  0 0.53712839E+02</rscale>
<asrwt>0</asrwt>
<pdfrwt beam="1">  1       11 0.10000000E+01 0.13581479E+03</pdfrwt>
<pdfrwt beam="2">  1        2 0.47532216E-02 0.53712839E+02</pdfrwt>
<totfact> 0.17930783E+03</totfact>
</mgrwt>
</event>
<event>
 5    1  0.2847672E-003  0.1705598E+03  0.7818608E-02  0.1426197E+00
         11   -1    0    0    0    0  0.00000000000E+00  0.00000000000E+00  0.10002783342E+04  0.10002783342E+04  0.51100000000E-03 0. -1.
          2   -1    0    0  501    0 -0.00000000000E+00 -0.00000000000E+00 -0.75604927709E+02  0.75604927752E+02  0.25500000000E-02 0.  1.
         11    1    1    2    0    0  0.15372255623E+03 -0.67790685479E+02  0.80225956005E+03  0.81966249337E+03  0.51100000000E-03 0. -1.
         22    1    1    2    0    0  0.16892621847E+02 -0.10749645960E+01 -0.18048202342E+02  0.24743763447E+02  0.00000000000E+00 0.  1.
          2    1    1    2  501    0 -0.17061517808E+03  0.68865650075E+02  0.14046204876E+03  0.23147700512E+03  0.25500000000E-02 0.  1.
<mgrwt>
<rscale>  0 0.53731083E+02</rscale>
<asrwt>0</asrwt>
<pdfrwt beam="1">  1       11 0.10000000E+01 0.17055976E+03</pdfrwt>
<pdfrwt beam="2">  1        2 0.11634764E-01 0.53731083E+02</pdfrwt>
<totfact> 0.59920263E+02</totfact>
</mgrwt>
</event>
<event>
 5    1  0.2847672E-003  0.4435048E+02  0.7818608E-02  0.1712181E+00
         11   -1    0    0    0    0  0.00000000000E+00  0.00000000000E+00  0.10000705877E+04  0.10000705877E+04  0.51100000000E-03 0.  1.
          2   -1    0    0  501    0 -0.00000000000E+00 -0.00000000000E+00 -0.35199718337E+01  0.35199727574E+01  0.25500000000E-02 0.  1.
         11    1    1    2    0    0  0.27686998264E+02 -0.33929745021E+02  0.23681165358E+03  0.24082681899E+03  0.51100000000E-03 0.  1.
         22    1    1    2    0    0  0.81452333131E+01  0.69240430299E+01  0.34045953603E+02  0.35684928953E+02  0.00000000000E+00 0.  1.
          2    1    1    2  501    0 -0.35832231577E+02  0.27005701991E+02  0.72569300871E+03  0.72707881255E+03  0.25500000000E-02 0.  1.
<mgrwt>
<rscale>  0 0.21774513E+02</rscale>
<asrwt>0</asrwt>
<pdfrwt beam="1">  1       11 0.10000000E+01 0.44350482E+02</pdfrwt>
<pdfrwt beam="2">  1        2 0.54157241E-03 0.21774513E+02</pdfrwt>
<totfact> 0.25885103E+04</totfact>
</mgrwt>
</event>
<event>
 5    1  0.2847672E-003  0.1667370E+03  0.7818608E-02  0.1448979E+00
         11   -1    0    0    0    0  0.00000000000E+00  0.00000000000E+00  0.10001192083E+04  0.10001192083E+04  0.51100000000E-03 0. -1.
          2   -1    0    0  501    0 -0.00000000000E+00 -0.00000000000E+00 -0.12790553421E+03  0.12790553423E+03  0.25500000000E-02 0. -1.
         11    1    1    2    0    0  0.15424786208E+03  0.64971663422E+02  0.92761991516E+03  0.94259876247E+03  0.51100000000E-03 0. -1.
         22    1    1    2    0    0 -0.41183722578E+01 -0.14002595285E+02 -0.16786401353E+02  0.22244481004E+02  0.00000000000E+00 0.  1.
          2    1    1    2  501    0 -0.15012948983E+03 -0.50969068137E+02 -0.38619839682E+02  0.16318149909E+03  0.25500000000E-02 0. -1.
<mgrwt>
<rscale>  0 0.49331923E+02</rscale>
<asrwt>0</asrwt>
<pdfrwt beam="1">  1       11 0.10000000E+01 0.16673699E+03</pdfrwt>
<pdfrwt beam="2">  1        2 0.19680120E-01 0.49331923E+02</pdfrwt>
<totfact> 0.32873166E+02</totfact>
</mgrwt>
</event>
<event>
 5    1  0.2847672E-003  0.1505296E+03  0.7818608E-02  0.1433603E+00
         11   -1    0    0    0    0  0.00000000000E+00  0.00000000000E+00  0.99990549664E+03  0.99990549664E+03  0.51100000000E-03 0.  1.
         -2   -1    0    0    0  501 -0.00000000000E+00 -0.00000000000E+00 -0.31794761162E+02  0.31794761264E+02  0.25500000000E-02 0.  1.
         11    1    1    2    0    0 -0.48256527469E+02  0.12997972790E+03  0.26601510617E+03  0.29997909730E+03  0.51100000000E-03 0.  1.
         22    1    1    2    0    0 -0.85298667740E+01  0.16000211063E+02  0.73967578934E+01  0.19582579212E+02  0.00000000000E+00 0. -1.
         -2    1    1    2    0  501  0.56786394243E+02 -0.14597993896E+03  0.69469887142E+03  0.71213858139E+03  0.25500000000E-02 0.  1.
<mgrwt>
<rscale>  0 0.52243512E+02</rscale>
<asrwt>0</asrwt>
<pdfrwt beam="1">  1       11 0.10000000E+01 0.15052960E+03</pdfrwt>
<pdfrwt beam="2">  1       -2 0.48910393E-02 0.52243512E+02</pdfrwt>
<totfact> 0.13875997E+03</totfact>
</mgrwt>
</event>
<event>
 5    1  0.2847672E-003  0.7523522E+03  0.7818608E-02  0.9631667E-01
         11   -1    0    0    0    0  0.00000000000E+00  0.00000000000E+00  0.99980886164E+03  0.99980886164E+03  0.51100000000E-03 0.  1.
         -2   -1    0    0    0  501 -0.00000000000E+00 -0.00000000000E+00 -0.70495505065E+03  0.70495505065E+03  0.25500000000E-02 0. -1.
         11    1    1    2    0    0 -0.58061847465E+03 -0.47068884368E+03  0.53027631632E+03  0.91643808973E+03  0.51100000000E-03 0.  1.
         22    1    1    2    0    0  0.12960135081E+02 -0.11629603050E+01 -0.10314906042E+02  0.16604663942E+02  0.00000000000E+00 0. -1.
         -2    1    1    2    0  501  0.56765833956E+03  0.47185180399E+03 -0.22510759928E+03  0.77172115862E+03  0.25500000000E-02 0. -1.
<mgrwt>
<rscale>  0 0.75235221E+03</rscale>
<asrwt>0</asrwt>
<pdfrwt beam="1">  1       11 0.10000000E+01 0.74743950E+03</pdfrwt>
<pdfrwt beam="2">  1       -2 0.10843389E+00 0.75235221E+03</pdfrwt>
<totfact> 0.55600451E+00</totfact>
</mgrwt>
</event>
<event>
 5    1  0.2847672E-003  0.3432177E+02  0.7818608E-02  0.1617286E+00
         11   -1    0    0    0    0  0.00000000000E+00  0.00000000000E+00  0.10001831072E+04  0.10001831072E+04  0.51100000000E-03 0. -1.
          2   -1    0    0  501    0 -0.00000000000E+00 -0.00000000000E+00 -0.40454339004E+01  0.40454347041E+01  0.25500000000E-02 0. -1.
         11    1    1    2    0    0 -0.19027668352E+01 -0.31670203921E+02  0.17569641508E+03  0.17853809849E+03  0.51100000000E-03 0. -1.
         22    1    1    2    0    0  0.30230421581E+02  0.32200595143E+02  0.21011648913E+03  0.21470839695E+03  0.00000000000E+00 0. -1.
          2    1    1    2  501    0 -0.28327654746E+02 -0.53039122172E+00  0.61032476913E+03  0.61098204651E+03  0.25500000000E-02 0. -1.
<mgrwt>
<rscale>  0 0.28332620E+02</rscale>
<asrwt>0</asrwt>
<pdfrwt beam="1">  1       11 0.10000000E+01 0.34321774E+02</pdfrwt>
<pdfrwt beam="2">  1        2 0.62248845E-03 0.28332620E+02</pdfrwt>
<totfact> 0.23023140E+04</totfact>
</mgrwt>
</event>
<event>
 5    1  0.2847672E-003  0.1486191E+03  0.7818608E-02  0.1495470E+00
         11   -1    0    0    0    0  0.00000000000E+00  0.00000000000E+00  0.10000286548E+04  0.10000286548E+04  0.51100000000E-03 0.  1.
          2   -1    0    0  501    0 -0.00000000000E+00 -0.00000000000E+00 -0.64863194394E+02  0.64863194444E+02  0.25500000000E-02 0. -1.
         11    1    1    2    0    0  0.53553917958E+02 -0.13938277180E+03  0.86266810066E+03  0.87549519193E+03  0.51100000000E-03 0.  1.
         22    1    1    2    0    0  0.80058428997E+01  0.85980911457E+01 -0.16044542293E+02  0.19885875119E+02  0.00000000000E+00 0. -1.
          2    1    1    2  501    0 -0.61559760858E+02  0.13078468065E+03  0.88541902000E+02  0.16951078215E+03  0.25500000000E-02 0. -1.
<mgrwt>
<rscale>  0 0.41785288E+02</rscale>
<asrwt>0</asrwt>
<pdfrwt beam="1">  1       11 0.10000000E+01 0.14861913E+03</pdfrwt>
<pdfrwt beam="2">  1        2 0.99792386E-02 0.41785288E+02</pdfrwt>
<totfact> 0.70456632E+02</totfact>
</mgrwt>
</event>
<event>
 5    1  0.2847672E-003  0.2623400E+03  0.7818608E-02  0.1382182E+00
         11   -1    0    0    0    0  0.00000000000E+00  0.00000000000E+00  0.10002904709E+04  0.10002904709E+04  0.51100000000E-03 0.  1.
          2   -1    0    0  501    0 -0.00000000000E+00 -0.00000000000E+00 -0.16616966382E+03  0.16616966384E+03  0.25500000000E-02 0.  1.
         11    1    1    2    0    0 -0.10905182846E+03 -0.23830366760E+03  0.84051112720E+03  0.88042029408E+03  0.51100000000E-03 0.  1.
         22    1    1    2    0    0 -0.14846671087E+02  0.46621437114E+01 -0.14758921471E+02  0.21447260649E+02  0.00000000000E+00 0.  1.
          2    1    1    2  501    0  0.12389849955E+03  0.23364152389E+03  0.83686013090E+01  0.26459257996E+03  0.25500000000E-02 0.  1.
<mgrwt>
<rscale>  0 0.63893622E+02</rscale>
<asrwt>0</asrwt>
<pdfrwt beam="1">  1       11 0.10000000E+01 0.26234000E+03</pdfrwt>
<pdfrwt beam="2">  1        2 0.25571989E-01 0.63893622E+02</pdfrwt>
<totfact> 0.25002950E+02</totfact>
</mgrwt>
</event>
<event>
 5    1  0.2847672E-003  0.1302704E+03  0.7818608E-02  0.1399474E+00
         11   -1    0    0    0    0  0.00000000000E+00  0.00000000000E+00  0.99998997230E+03  0.99998997230E+03  0.51100000000E-03 0.  1.
         -2   -1    0    0    0  501 -0.00000000000E+00 -0.00000000000E+00 -0.44326670332E+02  0.44326670405E+02  0.25500000000E-02 0. -1.
         11    1    1    2    0    0 -0.11627615729E+03 -0.73108148902E+02  0.79171226577E+03  0.80353796298E+03  0.51100000000E-03 0.  1.
         22    1    1    2    0    0  0.26164067781E+02  0.77127234642E+01 -0.14157583373E+02  0.30732421204E+02  0.00000000000E+00 0. -1.
         -2    1    1    2    0  501  0.90112089511E+02  0.65395425438E+02  0.17810861958E+03  0.21004625852E+03  0.25500000000E-02 0. -1.
<mgrwt>
<rscale>  0 0.59610489E+02</rscale>
<asrwt>0</asrwt>
<pdfrwt beam="1">  1       11 0.10000000E+01 0.13027044E+03</pdfrwt>
<pdfrwt beam="2">  1       -2 0.68194192E-02 0.59610489E+02</pdfrwt>
<totfact> 0.86123721E+02</totfact>
</mgrwt>
</event>
<event>
 5    1  0.2847672E-003  0.1257761E+03  0.7818608E-02  0.1464647E+00
         11   -1    0    0    0    0  0.00000000000E+00  0.00000000000E+00  0.10001433779E+04  0.10001433779E+04  0.51100000000E-03 0. -1.
          2   -1    0    0  501    0 -0.00000000000E+00 -0.00000000000E+00 -0.25378760251E+02  0.25378760379E+02  0.25500000000E-02 0. -1.
         11    1    1    2    0    0 -0.10470357430E+03 -0.58027874001E+02  0.53226789609E+03  0.54556318226E+03  0.51100000000E-03 0. -1.
         22    1    1    2    0    0 -0.92723788323E+01 -0.14556198527E+02 -0.33059614930E-01  0.17258650518E+02  0.00000000000E+00 0. -1.
          2    1    1    2  501    0  0.11397595313E+03  0.72584072528E+02  0.44252978120E+03  0.46270030553E+03  0.25500000000E-02 0. -1.
<mgrwt>
<rscale>  0 0.46591000E+02</rscale>
<asrwt>0</asrwt>
<pdfrwt beam="1">  1       11 0.10000000E+01 0.12577607E+03</pdfrwt>
<pdfrwt beam="2">  1        2 0.39049844E-02 0.46591000E+02</pdfrwt>
<totfact> 0.22670963E+03</totfact>
</mgrwt>
</event>
<event>
 5    1  0.2847672E-003  0.4790004E+03  0.7818608E-02  0.1356758E+00
         11   -1    0    0    0    0  0.00000000000E+00  0.00000000000E+00  0.10000839737E+04  0.10000839737E+04  0.51100000000E-03 0. -1.
          2   -1    0    0  501    0 -0.00000000000E+00 -0.00000000000E+00 -0.25881057245E+03  0.25881057246E+03  0.25500000000E-02 0. -1.
         11    1    1    2    0    0  0.47725163496E+03  0.71983478390E+02  0.18272726116E+03  0.51608138526E+03  0.51100000000E-03 0. -1.
         22    1    1    2    0    0 -0.69021934479E+01  0.79406038983E+01  0.39354553333E+01  0.11233043815E+02  0.00000000000E+00 0.  1.
          2    1    1    2  501    0 -0.47034944152E+03 -0.79924082289E+02  0.55461068473E+03  0.73158011707E+03  0.25500000000E-02 0. -1.
<mgrwt>
<rscale>  0 0.70990191E+02</rscale>
<asrwt>0</asrwt>
<pdfrwt beam="1">  1       11 0.10000000E+01 0.47900045E+03</pdfrwt>
<pdfrwt beam="2">  1        2 0.39820354E-01 0.70990191E+02</pdfrwt>
<totfact> 0.15714303E+02</totfact>
</mgrwt>
</event>
<event>
 5    1  0.2847672E-003  0.1440963E+03  0.7818608E-02  0.1493826E+00
         11   -1    0    0    0    0  0.00000000000E+00  0.00000000000E+00  0.10003454459E+04  0.10003454459E+04  0.51100000000E-03 0.  1.
          2   -1    0    0  501    0 -0.00000000000E+00 -0.00000000000E+00 -0.54683777769E+02  0.54683777829E+02  0.25500000000E-02 0.  1.
         11    1    1    2    0    0  0.11698421426E+03 -0.86688132022E+02  0.85633719879E+03  0.86862738654E+03  0.51100000000E-03 0.  1.
         22    1    1    2    0    0 -0.12255320133E+02  0.91805344683E-01 -0.11798544083E+02  0.17011964679E+02  0.00000000000E+00 0.  1.
          2    1    1    2  501    0 -0.10472889413E+03  0.86596326677E+02  0.10112301344E+03  0.16938987252E+03  0.25500000000E-02 0.  1.
<mgrwt>
<rscale>  0 0.42023755E+02</rscale>
<asrwt>0</asrwt>
<pdfrwt beam="1">  1       11 0.10000000E+01 0.14409631E+03</pdfrwt>
<pdfrwt beam="2">  1        2 0.84157948E-02 0.42023755E+02</pdfrwt>
<totfact> 0.86339474E+02</totfact>
</mgrwt>
</event>
<event>
 5    1  0.2847672E-003  0.2108094E+03  0.7818608E-02  0.1153485E+00
         11   -1    0    0    0    0  0.00000000000E+00  0.00000000000E+00  0.10000524731E+04  0.10000524731E+04  0.51100000000E-03 0.  1.
          2   -1    0    0  501    0 -0.00000000000E+00 -0.00000000000E+00 -0.67353460851E+03  0.67353460851E+03  0.25500000000E-02 0.  1.
         11    1    1    2    0    0 -0.18068543942E+03  0.10037551812E+03  0.87271265639E+03  0.89685553646E+03  0.51100000000E-03 0.  1.
         22    1    1    2    0    0 -0.52966656557E+02  0.17363285747E+03 -0.25820855623E+03  0.31563506524E+03  0.00000000000E+00 0.  1.
          2    1    1    2  501    0  0.23365209598E+03 -0.27400837558E+03 -0.28798623560E+03  0.46109647987E+03  0.25500000000E-02 0.  1.
<mgrwt>
<rscale>  0 0.19562370E+03</rscale>
<asrwt>0</asrwt>
<pdfrwt beam="1">  1       11 0.10000000E+01 0.21080939E+03</pdfrwt>
<pdfrwt beam="2">  1        2 0.10362614E+00 0.19562370E+03</pdfrwt>
<totfact> 0.55366801E+01</totfact>
</mgrwt>
</event>
<event>
 5    1  0.2847672E-003  0.1775200E+03  0.7818608E-02  0.1452904E+00
         11   -1    0    0    0    0  0.00000000000E+00  0.00000000000E+00  0.10000965954E+04  0.10000965954E+04  0.51100000000E-03 0. -1.
          2   -1    0    0  501    0 -0.00000000000E+00 -0.00000000000E+00 -0.59982316047E+02  0.59982316101E+02  0.25500000000E-02 0. -1.
         11    1    1    2    0    0  0.13875227843E+03 -0.10492632918E+03  0.63021180760E+03  0.65378027789E+03  0.51100000000E-03 0. -1.
         22    1    1    2    0    0  0.13317128215E+02 -0.21440782538E+00 -0.22382092241E+02  0.26045151712E+02  0.00000000000E+00 0. -1.
          2    1    1    2  501    0 -0.15206940665E+03  0.10514073701E+03  0.33228456398E+03  0.38025348188E+03  0.25500000000E-02 0. -1.
<mgrwt>
<rscale>  0 0.48624710E+02</rscale>
<asrwt>0</asrwt>
<pdfrwt beam="1">  1       11 0.10000000E+01 0.17751996E+03</pdfrwt>
<pdfrwt beam="2">  1        2 0.92289397E-02 0.48624710E+02</pdfrwt>
<totfact> 0.78245557E+02</totfact>
</mgrwt>
</event>
<event>
 5    1  0.2847672E-003  0.2319195E+03  0.7818608E-02  0.1406368E+00
         11   -1    0    0    0    0  0.00000000000E+00  0.00000000000E+00  0.99992114410E+03  0.99992114410E+03  0.51100000000E-03 0. -1.
          2   -1    0    0  501    0 -0.00000000000E+00 -0.00000000000E+00 -0.71175726284E+03  0.71175726285E+03  0.25500000000E-02 0. -1.
         11    1    1    2    0    0  0.87341945282E+02  0.21504007317E+03  0.95575901637E+03  0.98353756708E+03  0.51100000000E-03 0. -1.
         22    1    1    2    0    0 -0.13787249917E+03 -0.18654286150E+03 -0.51248135156E+03  0.56253373312E+03  0.00000000000E+00 0. -1.
          2    1    1    2  501    0  0.50530553886E+02 -0.28497211667E+02 -0.15511378356E+03  0.16560710675E+03  0.25500000000E-02 0. -1.
<mgrwt>
<rscale>  0 0.58012309E+02</rscale>
<asrwt>0</asrwt>
<pdfrwt beam="1">  1       11 0.10000000E+01 0.23191951E+03</pdfrwt>
<pdfrwt beam="2">  1        2 0.10949248E+00 0.58012309E+02</pdfrwt>
<totfact> 0.53810094E+01</totfact>
</mgrwt>
</event>
<event>
 5    1  0.2847672E-003  0.9775015E+02  0.7818608E-02  0.1285099E+00
         11   -1    0    0    0    0  0.00000000000E+00  0.00000000000E+00  0.10000988693E+04  0.10000988693E+04  0.51100000000E-03 0. -1.
          2   -1    0    0  501    0 -0.00000000000E+00 -0.00000000000E+00 -0.89673899235E+01  0.89673902861E+01  0.25500000000E-02 0. -1.
         11    1    1    2    0    0  0.80315513684E+02 -0.38138710637E+02  0.38734222910E+03  0.39741558278E+03  0.51100000000E-03 0. -1.
         22    1    1    2    0    0 -0.20901026884E+02  0.19962887317E+02  0.10155723642E+03  0.10558997142E+03  0.00000000000E+00 0.  1.
          2    1    1    2  501    0 -0.59414486800E+02  0.18175823320E+02  0.50223201384E+03  0.50606070538E+03  0.25500000000E-02 0. -1.
<mgrwt>
<rscale>  0 0.97750149E+02</rscale>
<asrwt>0</asrwt>
<pdfrwt beam="1">  1       11 0.10000000E+01 0.88910915E+02</pdfrwt>
<pdfrwt beam="2">  1        2 0.13797348E-02 0.97750149E+02</pdfrwt>
<totfact> 0.99408568E+03</totfact>
</mgrwt>
</event>
<event>
 5    1  0.2847672E-003  0.1225000E+03  0.7818608E-02  0.1460018E+00
         11   -1    0    0    0    0  0.00000000000E+00  0.00000000000E+00  0.99999109264E+03  0.99999109264E+03  0.51100000000E-03 0. -1.
          2   -1    0    0  501    0 -0.00000000000E+00 -0.00000000000E+00 -0.40518350345E+02  0.40518350425E+02  0.25500000000E-02 0.  1.
         11    1    1    2    0    0  0.12854702783E+03  0.20891850308E+02  0.59599979074E+03  0.61006274951E+03  0.51100000000E-03 0. -1.
         22    1    1    2    0    0 -0.15474070359E+02 -0.98145451159E+01 -0.21969545626E+02  0.28608269510E+02  0.00000000000E+00 0.  1.
          2    1    1    2  501    0 -0.11307295747E+03 -0.11077305192E+02  0.38544249718E+03  0.40183842405E+03  0.25500000000E-02 0.  1.
<mgrwt>
<rscale>  0 0.47378276E+02</rscale>
<asrwt>0</asrwt>
<pdfrwt beam="1">  1       11 0.10000000E+01 0.12250003E+03</pdfrwt>
<pdfrwt beam="2">  1        2 0.62335367E-02 0.47378276E+02</pdfrwt>
<totfact> 0.12593294E+03</totfact>
</mgrwt>
</event>
<event>
 5    1  0.2847672E-003  0.9075980E+02  0.7818608E-02  0.1301022E+00
         11   -1    0    0    0    0  0.00000000000E+00  0.00000000000E+00  0.10001443053E+04  0.10001443053E+04  0.51100000000E-03 0.  1.
          2   -1    0    0  501    0 -0.00000000000E+00 -0.00000000000E+00 -0.10405139577E+02  0.10405139889E+02  0.25500000000E-02 0.  1.
         11    1    1    2    0    0  0.12870019904E+02  0.95752973185E+02  0.45623348395E+03  0.46635100639E+03  0.51100000000E-03 0.  1.
         22    1    1    2    0    0 -0.18787576466E+02 -0.98065287205E+01  0.10319541034E+03  0.10534910417E+03  0.00000000000E+00 0.  1.
          2    1    1    2  501    0  0.59175565624E+01 -0.85946444465E+02  0.43031027147E+03  0.43884933466E+03  0.25500000000E-02 0.  1.
<mgrwt>
<rscale>  0 0.90759801E+02</rscale>
<asrwt>0</asrwt>
<pdfrwt beam="1">  1       11 0.10000000E+01 0.21192948E+02</pdfrwt>
<pdfrwt beam="2">  1        2 0.16010217E-02 0.90759801E+02</pdfrwt>
<totfact> 0.80355401E+03</totfact>
</mgrwt>
</event>
<event>
 5    1  0.2847672E-003  0.5560091E+02  0.7818608E-02  0.1678843E+00
         11   -1    0    0    0    0  0.00000000000E+00  0.00000000000E+00  0.99973667756E+03  0.99973667756E+03  0.51100000000E-03 0.  1.
          2   -1    0    0  501    0 -0.00000000000E+00 -0.00000000000E+00 -0.48798391194E+01  0.48798397856E+01  0.25500000000E-02 0.  1.
         11    1    1    2    0    0  0.13265501626E+02  0.50883015212E+02  0.27073096568E+03  0.27579033802E+03  0.51100000000E-03 0.  1.
         22    1    1    2    0    0  0.10099027769E+02  0.13482182382E+01  0.20646114524E+02  0.23023251274E+02  0.00000000000E+00 0. -1.
          2    1    1    2  501    0 -0.23364529395E+02 -0.52231233450E+02  0.70347975824E+03  0.70580292805E+03  0.25500000000E-02 0.  1.
<mgrwt>
<rscale>  0 0.23801186E+02</rscale>
<asrwt>0</asrwt>
<pdfrwt beam="1">  1       11 0.10000000E+01 0.55600909E+02</pdfrwt>
<pdfrwt beam="2">  1        2 0.75054682E-03 0.23801186E+02</pdfrwt>
<totfact> 0.17265461E+04</totfact>
</mgrwt>
</event>
<event>
 5    1  0.2847672E-003  0.1488463E+03  0.7818608E-02  0.1373544E+00
         11   -1    0    0    0    0  0.00000000000E+00  0.00000000000E+00  0.10003039001E+04  0.10003039001E+04  0.51100000000E-03 0. -1.
          2   -1    0    0  501    0 -0.00000000000E+00 -0.00000000000E+00 -0.14882402365E+03  0.14882402367E+03  0.25500000000E-02 0. -1.
         11    1    1    2    0    0  0.14574195189E+03  0.15325222023E+01  0.84630289682E+03  0.85876170055E+03  0.51100000000E-03 0. -1.
         22    1    1    2    0    0  0.29321260080E+02 -0.25889400509E+01 -0.87474444656E+02  0.92294189260E+02  0.00000000000E+00 0.  1.
          2    1    1    2  501    0 -0.17506321197E+03  0.10564178486E+01  0.92651424254E+02  0.19807203393E+03  0.25500000000E-02 0. -1.
<mgrwt>
<rscale>  0 0.66191690E+02</rscale>
<asrwt>0</asrwt>
<pdfrwt beam="1">  1       11 0.10000000E+01 0.14884627E+03</pdfrwt>
<pdfrwt beam="2">  1        2 0.22902961E-01 0.66191690E+02</pdfrwt>
<totfact> 0.28200028E+02</totfact>
</mgrwt>
</event>
<event>
 5    1  0.2847672E-003  0.3727711E+02  0.7818608E-02  0.1618654E+00
         11   -1    0    0    0    0  0.00000000000E+00  0.00000000000E+00  0.10002510759E+04  0.10002510759E+04  0.51100000000E-03 0.  1.
          2   -1    0    0  501    0 -0.00000000000E+00 -0.00000000000E+00 -0.53743757323E+01  0.53743763373E+01  0.25500000000E-02 0.  1.
         11    1    1    2    0    0  0.26388128417E+02  0.11773745216E+02  0.61712947108E+02  0.68142807682E+02  0.51100000000E-03 0.  1.
         22    1    1    2    0    0 -0.49457844749E+01  0.20781430974E+02  0.64515345891E+02  0.67959977287E+02  0.00000000000E+00 0. -1.
          2    1    1    2  501    0 -0.21442343942E+02 -0.32555176190E+02  0.86864840712E+03  0.86952266722E+03  0.25500000000E-02 0.  1.
<mgrwt>
<rscale>  0 0.28218925E+02</rscale>
<asrwt>0</asrwt>
<pdfrwt beam="1">  1       11 0.10000000E+01 0.37277113E+02</pdfrwt>
<pdfrwt beam="2">  1        2 0.82703466E-03 0.28218925E+02</pdfrwt>
<totfact> 0.15808999E+04</totfact>
</mgrwt>
</event>
<event>
 5    1  0.2847672E-003  0.3386639E+03  0.7818608E-02  0.1258888E+00
         11   -1    0    0    0    0  0.00000000000E+00  0.00000000000E+00  0.10000921483E+04  0.10000921483E+04  0.51100000000E-03 0.  1.
          2   -1    0    0  501    0 -0.00000000000E+00 -0.00000000000E+00 -0.57675480140E+03  0.57675480141E+03  0.25500000000E-02 0.  1.
         11    1    1    2    0    0  0.33437425143E+03  0.43960082618E+02  0.89516411645E+03  0.95658633916E+03  0.51100000000E-03 0.  1.
         22    1    1    2    0    0  0.18806532406E+02  0.31076908466E+02 -0.77563767179E+02  0.85648104941E+02  0.00000000000E+00 0.  1.
          2    1    1    2  501    0 -0.35318078383E+03 -0.75036991084E+02 -0.39426300238E+03  0.53461250561E+03  0.25500000000E-02 0.  1.
<mgrwt>
<rscale>  0 0.11091327E+03</rscale>
<asrwt>0</asrwt>
<pdfrwt beam="1">  1       11 0.10000000E+01 0.33866390E+03</pdfrwt>
<pdfrwt beam="2">  1        2 0.88739682E-01 0.11091327E+03</pdfrwt>
<totfact> 0.67137065E+01</totfact>
</mgrwt>
</event>
<event>
 5    1  0.2847672E-003  0.8502751E+02  0.7818608E-02  0.1502957E+00
         11   -1    0    0    0    0  0.00000000000E+00  0.00000000000E+00  0.10002204101E+04  0.10002204101E+04  0.51100000000E-03 0.  1.
          2   -1    0    0  501    0 -0.00000000000E+00 -0.00000000000E+00 -0.10260089635E+02  0.10260089952E+02  0.25500000000E-02 0.  1.
         11    1    1    2    0    0  0.92146932243E+02  0.27539971660E+02  0.44617727293E+03  0.45642487448E+03  0.51100000000E-03 0.  1.
         22    1    1    2    0    0 -0.19401418485E+02  0.19968920993E+01  0.43809048289E+02  0.47954513128E+02  0.00000000000E+00 0.  1.
          2    1    1    2  501    0 -0.72745513758E+02 -0.29536863759E+02  0.49997399921E+03  0.50610111241E+03  0.25500000000E-02 0.  1.
<mgrwt>
<rscale>  0 0.40723070E+02</rscale>
<asrwt>0</asrwt>
<pdfrwt beam="1">  1       11 0.10000000E+01 0.85027514E+02</pdfrwt>
<pdfrwt beam="2">  1        2 0.15788232E-02 0.40723070E+02</pdfrwt>
<totfact> 0.72364937E+03</totfact>
</mgrwt>
</event>
<event>
 5    1  0.2847672E-003  0.2337222E+03  0.7818608E-02  0.1437390E+00
         11   -1    0    0    0    0  0.00000000000E+00  0.00000000000E+00  0.10000883812E+04  0.10000883812E+04  0.51100000000E-03 0.  1.
          2   -1    0    0  501    0 -0.00000000000E+00 -0.00000000000E+00 -0.25248647078E+03  0.25248647079E+03  0.25500000000E-02 0.  1.
         11    1    1    2    0    0 -0.19046500735E+03 -0.13615009328E+03  0.90708469961E+03  0.93681183767E+03  0.51100000000E-03 0.  1.
         22    1    1    2    0    0  0.99877223324E+01 -0.53914454839E+01 -0.67822614244E+02  0.68765756629E+02  0.00000000000E+00 0.  1.
          2    1    1    2  501    0  0.18047728502E+03  0.14154153877E+03 -0.91660174983E+02  0.24699725766E+03  0.25500000000E-02 0.  1.
<mgrwt>
<rscale>  0 0.51504801E+02</rscale>
<asrwt>0</asrwt>
<pdfrwt beam="1">  1       11 0.10000000E+01 0.23372218E+03</pdfrwt>
<pdfrwt beam="2">  1        2 0.38847504E-01 0.51504801E+02</pdfrwt>
<totfact> 0.16036785E+02</totfact>
</mgrwt>
</event>
<event>
 5    1  0.2847672E-003  0.1216587E+03  0.7818608E-02  0.1448886E+00
         11   -1    0    0    0    0  0.00000000000E+00  0.00000000000E+00  0.10004683731E+04  0.10004683731E+04  0.51100000000E-03 0. -1.
         -2   -1    0    0    0  501 -0.00000000000E+00 -0.00000000000E+00 -0.24001287871E+02  0.24001288006E+02  0.25500000000E-02 0.  1.
         11    1    1    2    0    0 -0.80080422860E+02  0.87358210731E+02  0.66879012050E+03  0.67920877231E+03  0.51100000000E-03 0. -1.
         22    1    1    2    0    0 -0.19819484928E+02 -0.28088500724E+01  0.16206526217E+02  0.25755642364E+02  0.00000000000E+00 0.  1.
         -2    1    1    2    0  501  0.99899907788E+02 -0.84549360659E+02  0.29147043853E+03  0.31950524644E+03  0.25500000000E-02 0.  1.
<mgrwt>
<rscale>  0 0.49348825E+02</rscale>
<asrwt>0</asrwt>
<pdfrwt beam="1">  1       11 0.10000000E+01 0.12165868E+03</pdfrwt>
<pdfrwt beam="2">  1       -2 0.36942352E-02 0.49348825E+02</pdfrwt>
<totfact> 0.20694190E+03</totfact>
</mgrwt>
</event>
<event>
 5    1  0.2847672E-003  0.1719072E+03  0.7818608E-02  0.1385207E+00
         11   -1    0    0    0    0  0.00000000000E+00  0.00000000000E+00  0.99997456872E+03  0.99997456872E+03  0.51100000000E-03 0. -1.
          2   -1    0    0  501    0 -0.00000000000E+00 -0.00000000000E+00 -0.18167534923E+03  0.18167534925E+03  0.25500000000E-02 0.  1.
         11    1    1    2    0    0  0.12033608432E+02 -0.17266127900E+03  0.93576704612E+03  0.95163894919E+03  0.51100000000E-03 0. -1.
         22    1    1    2    0    0  0.13523445810E+02  0.18816660086E+02 -0.59122237579E+02  0.63501096523E+02  0.00000000000E+00 0.  1.
          2    1    1    2  501    0 -0.25557054242E+02  0.15384461892E+03 -0.58345589056E+02  0.16650987226E+03  0.25500000000E-02 0.  1.
<mgrwt>
<rscale>  0 0.63114711E+02</rscale>
<asrwt>0</asrwt>
<pdfrwt beam="1">  1       11 0.10000000E+01 0.17190723E+03</pdfrwt>
<pdfrwt beam="2">  1        2 0.27949342E-01 0.63114711E+02</pdfrwt>
<totfact> 0.22729327E+02</totfact>
</mgrwt>
</event>
<event>
 5    1  0.2847672E-003  0.1766756E+03  0.7818608E-02  0.1282663E+00
         11   -1    0    0    0    0  0.00000000000E+00  0.00000000000E+00  0.10003638701E+04  0.10003638701E+04  0.51100000000E-03 0. -1.
          2   -1    0    0  501    0 -0.00000000000E+00 -0.00000000000E+00 -0.24825737456E+03  0.24825737457E+03  0.25500000000E-02 0. -1.
         11    1    1    2    0    0 -0.17595216188E+03  0.43193014958E+02  0.77266510983E+03  0.79362218452E+03  0.51100000000E-03 0. -1.
         22    1    1    2    0    0  0.32242450864E+02  0.44980903437E+02 -0.20074347431E+03  0.20823256179E+03  0.00000000000E+00 0. -1.
          2    1    1    2  501    0  0.14370971102E+03 -0.88173918395E+02  0.18018486004E+03  0.24676649838E+03  0.25500000000E-02 0. -1.
<mgrwt>
<rscale>  0 0.98882622E+02</rscale>
<asrwt>0</asrwt>
<pdfrwt beam="1">  1       11 0.10000000E+01 0.17667560E+03</pdfrwt>
<pdfrwt beam="2">  1        2 0.38207339E-01 0.98882622E+02</pdfrwt>
<totfact> 0.16486201E+02</totfact>
</mgrwt>
</event>
<event>
 5    1  0.2847672E-003  0.2172666E+02  0.7818608E-02  0.1809031E+00
         11   -1    0    0    0    0  0.00000000000E+00  0.00000000000E+00  0.10001059908E+04  0.10001059908E+04  0.51100000000E-03 0. -1.
          2   -1    0    0  501    0 -0.00000000000E+00 -0.00000000000E+00 -0.24635701168E+01  0.24635714366E+01  0.25500000000E-02 0. -1.
         11    1    1    2    0    0 -0.28435910909E+02  0.95974579997E+01  0.13533673114E+03  0.13862446763E+03  0.51100000000E-03 0. -1.
         22    1    1    2    0    0  0.73051969871E+01 -0.11377491095E+02  0.66687843658E+02  0.68044703676E+02  0.00000000000E+00 0. -1.
          2    1    1    2  501    0  0.21130713922E+02  0.17800330950E+01  0.79561784593E+03  0.79590039098E+03  0.25500000000E-02 0. -1.
<mgrwt>
<rscale>  0 0.17139504E+02</rscale>
<asrwt>0</asrwt>
<pdfrwt beam="1">  1       11 0.10000000E+01 0.21726658E+02</pdfrwt>
<pdfrwt beam="2">  1        2 0.37905105E-03 0.17139504E+02</pdfrwt>
<totfact> 0.38515177E+04</totfact>
</mgrwt>
</event>
<event>
 5    1  0.2847672E-003  0.2398420E+03  0.7818608E-02  0.1361336E+00
         11   -1    0    0    0    0  0.00000000000E+00  0.00000000000E+00  0.10001225735E+04  0.10001225735E+04  0.51100000000E-03 0.  1.
          2   -1    0    0  501    0 -0.00000000000E+00 -0.00000000000E+00 -0.23430086404E+03  0.23430086405E+03  0.25500000000E-02 0.  1.
         11    1    1    2    0    0 -0.23799542304E+03  0.39048851240E+02  0.90740330251E+03  0.93890755006E+03  0.51100000000E-03 0.  1.
         22    1    1    2    0    0  0.17628855241E+02  0.98992081587E+01 -0.46246378137E+02  0.50472748588E+02  0.00000000000E+00 0.  1.
          2    1    1    2  501    0  0.22036656780E+03 -0.48948059399E+02 -0.95335214897E+02  0.24504313891E+03  0.25500000000E-02 0.  1.
<mgrwt>
<rscale>  0 0.69635809E+02</rscale>
<asrwt>0</asrwt>
<pdfrwt beam="1">  1       11 0.10000000E+01 0.23984203E+03</pdfrwt>
<pdfrwt beam="2">  1        2 0.36050704E-01 0.69635809E+02</pdfrwt>
<totfact> 0.17425726E+02</totfact>
</mgrwt>
</event>
<event>
 5    1  0.2847672E-003  0.2602405E+02  0.7818608E-02  0.1667423E+00
         11   -1    0    0    0    0  0.00000000000E+00  0.00000000000E+00  0.10004452763E+04  0.10004452763E+04  0.51100000000E-03 0. -1.
          2   -1    0    0  501    0 -0.00000000000E+00 -0.00000000000E+00 -0.78818098246E+01  0.78818102371E+01  0.25500000000E-02 0. -1.
         11    1    1    2    0    0 -0.28675370983E+02 -0.43826861728E+01  0.65407088972E+02  0.71551185365E+02  0.51100000000E-03 0. -1.
         22    1    1    2    0    0  0.14604963247E+02 -0.17994845162E+02  0.24471980736E+02  0.33704558222E+02  0.00000000000E+00 0. -1.
          2    1    1    2  501    0  0.14070407737E+02  0.22377531335E+02  0.90268439677E+03  0.90307134295E+03  0.25500000000E-02 0. -1.
<mgrwt>
<rscale>  0 0.24558683E+02</rscale>
<asrwt>0</asrwt>
<pdfrwt beam="1">  1       11 0.10000000E+01 0.26024053E+02</pdfrwt>
<pdfrwt beam="2">  1        2 0.12131261E-02 0.24558683E+02</pdfrwt>
<totfact> 0.92873683E+03</totfact>
</mgrwt>
</event>
<event>
 5    1  0.2847672E-003  0.2216397E+03  0.7818608E-02  0.1444563E+00
         11   -1    0    0    0    0  0.00000000000E+00  0.00000000000E+00  0.10001191918E+04  0.10001191918E+04  0.51100000000E-03 0. -1.
          2   -1    0    0  501    0 -0.00000000000E+00 -0.00000000000E+00 -0.16502600683E+03  0.16502600685E+03  0.25500000000E-02 0. -1.
         11    1    1    2    0    0 -0.20869977587E+03  0.78048671522E+02  0.85079356296E+03  0.87948671301E+03  0.51100000000E-03 0. -1.
         22    1    1    2    0    0  0.49699693319E+01 -0.10198337507E+02 -0.64468380384E+02  0.65458985269E+02  0.00000000000E+00 0. -1.
          2    1    1    2  501    0  0.20372980654E+03 -0.67850334015E+02  0.48768002397E+02  0.22019950037E+03  0.25500000000E-02 0. -1.
<mgrwt>
<rscale>  0 0.50144588E+02</rscale>
<asrwt>0</asrwt>
<pdfrwt beam="1">  1       11 0.10000000E+01 0.22163971E+03</pdfrwt>
<pdfrwt beam="2">  1        2 0.25391642E-01 0.50144588E+02</pdfrwt>
<totfact> 0.24983805E+02</totfact>
</mgrwt>
</event>
<event>
 5    1  0.2847672E-003  0.4270765E+03  0.7818608E-02  0.1216583E+00
         11   -1    0    0    0    0  0.00000000000E+00  0.00000000000E+00  0.99997131808E+03  0.99997131808E+03  0.51100000000E-03 0.  1.
          2   -1    0    0  501    0 -0.00000000000E+00 -0.00000000000E+00 -0.34519701342E+03  0.34519701342E+03  0.25500000000E-02 0.  1.
         11    1    1    2    0    0 -0.28129619005E+03 -0.31011344101E+03  0.70572278850E+03  0.82057452254E+03  0.51100000000E-03 0.  1.
         22    1    1    2    0    0 -0.37928185130E+02 -0.22965598115E+02 -0.45041699784E+02  0.63203802445E+02  0.00000000000E+00 0. -1.
          2    1    1    2  501    0  0.31922437518E+03  0.33307903913E+03 -0.59067840487E+01  0.46139000652E+03  0.25500000000E-02 0.  1.
<mgrwt>
<rscale>  0 0.13760900E+03</rscale>
<asrwt>0</asrwt>
<pdfrwt beam="1">  1       11 0.10000000E+01 0.42707653E+03</pdfrwt>
<pdfrwt beam="2">  1        2 0.53105708E-01 0.13760900E+03</pdfrwt>
<totfact> 0.11671371E+02</totfact>
</mgrwt>
</event>
<event>
 5    1  0.2847672E-003  0.1030456E+03  0.7818608E-02  0.1274019E+00
         11   -1    0    0    0    0  0.00000000000E+00  0.00000000000E+00  0.99999416661E+03  0.99999416661E+03  0.51100000000E-03 0. -1.
          2   -1    0    0  501    0 -0.00000000000E+00 -0.00000000000E+00 -0.10663519756E+02  0.10663520061E+02  0.25500000000E-02 0. -1.
         11    1    1    2    0    0  0.21708658571E+01 -0.10109794973E+03  0.41391824400E+03  0.42609132919E+03  0.51100000000E-03 0. -1.
         22    1    1    2    0    0  0.44272264092E+01  0.94523838245E+01  0.40706384681E+02  0.42023298864E+02  0.00000000000E+00 0.  1.
          2    1    1    2  501    0 -0.65980922664E+01  0.91645565907E+02  0.53470601818E+03  0.54254305862E+03  0.25500000000E-02 0. -1.
<mgrwt>
<rscale>  0 0.10304559E+03</rscale>
<asrwt>0</asrwt>
<pdfrwt beam="1">  1       11 0.10000000E+01 0.10112130E+03</pdfrwt>
<pdfrwt beam="2">  1        2 0.16405319E-02 0.10304559E+03</pdfrwt>
<totfact> 0.79088720E+03</totfact>
</mgrwt>
</event>
<event>
 5    1  0.2847672E-003  0.1990152E+03  0.7818608E-02  0.1156337E+00
         11   -1    0    0    0    0  0.00000000000E+00  0.00000000000E+00  0.99995574808E+03  0.99995574808E+03  0.51100000000E-03 0. -1.
          2   -1    0    0  501    0 -0.00000000000E+00 -0.00000000000E+00 -0.39179346249E+02  0.39179346332E+02  0.25500000000E-02 0. -1.
         11    1    1    2    0    0 -0.10383437284E+03 -0.58882174860E+02  0.34777221321E+03  0.36768763887E+03  0.51100000000E-03 0. -1.
         22    1    1    2    0    0 -0.79568611924E+02  0.82124158446E+00  0.21849757976E+03  0.23253608495E+03  0.00000000000E+00 0. -1.
          2    1    1    2  501    0  0.18340298476E+03  0.58060933276E+02  0.39450660886E+03  0.43891137059E+03  0.25500000000E-02 0. -1.
<mgrwt>
<rscale>  0 0.19237392E+03</rscale>
<asrwt>0</asrwt>
<pdfrwt beam="1">  1       11 0.10000000E+01 0.19901518E+03</pdfrwt>
<pdfrwt beam="2">  1        2 0.60273248E-02 0.19237392E+03</pdfrwt>
<totfact> 0.14749148E+03</totfact>
</mgrwt>
</event>
<event>
 5    1  0.2847672E-003  0.1068398E+03  0.7818608E-02  0.1341777E+00
         11   -1    0    0    0    0  0.00000000000E+00  0.00000000000E+00  0.10002098927E+04  0.10002098927E+04  0.51100000000E-03 0.  1.
          2   -1    0    0  501    0 -0.00000000000E+00 -0.00000000000E+00 -0.44172050844E+02  0.44172050918E+02  0.25500000000E-02 0.  1.
         11    1    1    2    0    0  0.22434067724E+02 -0.10280764052E+03  0.58893073327E+03  0.59825755903E+03  0.51100000000E-03 0.  1.
         22    1    1    2    0    0  0.52416430900E+02  0.11242738020E+02 -0.67271343365E+01  0.54029026670E+02  0.00000000000E+00 0. -1.
          2    1    1    2  501    0 -0.74850498624E+02  0.91564902497E+02  0.37383424289E+03  0.39209535789E+03  0.25500000000E-02 0.  1.
<mgrwt>
<rscale>  0 0.75680457E+02</rscale>
<asrwt>0</asrwt>
<pdfrwt beam="1">  1       11 0.10000000E+01 0.10683980E+03</pdfrwt>
<pdfrwt beam="2">  1        2 0.67971263E-02 0.75680457E+02</pdfrwt>
<totfact> 0.11793493E+03</totfact>
</mgrwt>
</event>
<event>
 5    1  0.2847672E-003  0.2969569E+03  0.7818608E-02  0.1202607E+00
         11   -1    0    0    0    0  0.00000000000E+00  0.00000000000E+00  0.10003752450E+04  0.10003752450E+04  0.51100000000E-03 0.  1.
          2   -1    0    0  501    0 -0.00000000000E+00 -0.00000000000E+00 -0.33140478350E+03  0.33140478351E+03  0.25500000000E-02 0.  1.
         11    1    1    2    0    0  0.65001722240E+02 -0.29796077892E+03  0.86917527351E+03  0.92112513035E+03  0.51100000000E-03 0.  1.
         22    1    1    2    0    0 -0.56341953552E+02  0.48032838116E+02 -0.13215921135E+03  0.15148473987E+03  0.00000000000E+00 0.  1.
          2    1    1    2  501    0 -0.86597686876E+01  0.24992794081E+03 -0.68045600644E+02  0.25917015832E+03  0.25500000000E-02 0.  1.
<mgrwt>
<rscale>  0 0.14827672E+03</rscale>
<asrwt>0</asrwt>
<pdfrwt beam="1">  1       11 0.10000000E+01 0.29695693E+03</pdfrwt>
<pdfrwt beam="2">  1        2 0.51004482E-01 0.14827672E+03</pdfrwt>
<totfact> 0.12183214E+02</totfact>
</mgrwt>
</event>
<event>
 5    1  0.2847672E-003  0.4184982E+02  0.7818608E-02  0.1661081E+00
         11   -1    0    0    0    0  0.00000000000E+00  0.00000000000E+00  0.10003338145E+04  0.10003338145E+04  0.51100000000E-03 0. -1.
         -2   -1    0    0    0  501 -0.00000000000E+00 -0.00000000000E+00 -0.52054203511E+01  0.52054209757E+01  0.25500000000E-02 0. -1.
         11    1    1    2    0    0 -0.16983008929E+02 -0.37651828333E+02  0.21238591789E+03  0.21636511014E+03  0.51100000000E-03 0. -1.
         22    1    1    2    0    0  0.14111860379E+02 -0.48676154390E+01  0.18624164938E+02  0.23868343115E+02  0.00000000000E+00 0. -1.
         -2    1    1    2    0  501  0.28711485497E+01  0.42519443772E+02  0.76411831134E+03  0.76530578224E+03  0.25500000000E-02 0. -1.
<mgrwt>
<rscale>  0 0.24994482E+02</rscale>
<asrwt>0</asrwt>
<pdfrwt beam="1">  1       11 0.10000000E+01 0.41849820E+02</pdfrwt>
<pdfrwt beam="2">  1       -2 0.80110126E-03 0.24994482E+02</pdfrwt>
<totfact> 0.15341343E+04</totfact>
</mgrwt>
</event>
<event>
 5    1  0.2847672E-003  0.9361874E+02  0.7818608E-02  0.1585628E+00
         11   -1    0    0    0    0  0.00000000000E+00  0.00000000000E+00  0.10003534124E+04  0.10003534124E+04  0.51100000000E-03 0.  1.
          2   -1    0    0  501    0 -0.00000000000E+00 -0.00000000000E+00 -0.10377451678E+02  0.10377451992E+02  0.25500000000E-02 0.  1.
         11    1    1    2    0    0 -0.35072368281E+02 -0.86655887831E+02  0.45410762158E+03  0.46363029009E+03  0.51100000000E-03 0.  1.
         22    1    1    2    0    0  0.96314533508E+01 -0.38436921416E+01  0.18039361397E+02  0.20807628950E+02  0.00000000000E+00 0. -1.
          2    1    1    2  501    0  0.25440914930E+02  0.90499579972E+02  0.51782897779E+03  0.52629294540E+03  0.25500000000E-02 0.  1.
<mgrwt>
<rscale>  0 0.31158220E+02</rscale>
<asrwt>0</asrwt>
<pdfrwt beam="1">  1       11 0.10000000E+01 0.93618739E+02</pdfrwt>
<pdfrwt beam="2">  1        2 0.15970952E-02 0.31158220E+02</pdfrwt>
<totfact> 0.67988312E+03</totfact>
</mgrwt>
</event>
<event>
 5    1  0.2847672E-003  0.3349109E+03  0.7818608E-02  0.1168424E+00
         11   -1    0    0    0    0  0.00000000000E+00  0.00000000000E+00  0.10000562564E+04  0.10000562564E+04  0.51100000000E-03 0. -1.
          2   -1    0    0  501    0 -0.00000000000E+00 -0.00000000000E+00 -0.16283751564E+03  0.16283751566E+03  0.25500000000E-02 0. -1.
         11    1    1    2    0    0 -0.76844472859E+02  0.36964911156E+03  0.44522383308E+03  0.58375491452E+03  0.51100000000E-03 0. -1.
         22    1    1    2    0    0 -0.38167922475E+02 -0.88147227055E+02  0.19039021629E+02  0.97924503002E+02  0.00000000000E+00 0.  1.
          2    1    1    2  501    0  0.11501239533E+03 -0.28150188451E+03  0.37295588600E+03  0.48121435449E+03  0.25500000000E-02 0. -1.
<mgrwt>
<rscale>  0 0.17936033E+03</rscale>
<asrwt>0</asrwt>
<pdfrwt beam="1">  1       11 0.10000000E+01 0.33491086E+03</pdfrwt>
<pdfrwt beam="2">  1        2 0.25053334E-01 0.17936033E+03</pdfrwt>
<totfact> 0.26302603E+02</totfact>
</mgrwt>
</event>
<event>
 5    1  0.2847672E-003  0.1098896E+03  0.7818608E-02  0.1260774E+00
         11   -1    0    0    0    0  0.00000000000E+00  0.00000000000E+00  0.10001567513E+04  0.10001567513E+04  0.51100000000E-03 0.  1.
          2   -1    0    0  501    0 -0.00000000000E+00 -0.00000000000E+00 -0.11537759957E+02  0.11537760239E+02  0.25500000000E-02 0.  1.
         11    1    1    2    0    0 -0.10061040498E+03  0.26206918289E+02  0.43231903814E+03  0.44464480982E+03  0.51100000000E-03 0.  1.
         22    1    1    2    0    0  0.25041812355E+02 -0.43434522929E+01  0.70932333636E+02  0.75348217623E+02  0.00000000000E+00 0. -1.
          2    1    1    2  501    0  0.75568592629E+02 -0.21863465996E+02  0.48536761960E+03  0.49170148413E+03  0.25500000000E-02 0.  1.
<mgrwt>
<rscale>  0 0.10988961E+03</rscale>
<asrwt>0</asrwt>
<pdfrwt beam="1">  1       11 0.10000000E+01 0.10396762E+03</pdfrwt>
<pdfrwt beam="2">  1        2 0.17753182E-02 0.10988961E+03</pdfrwt>
<totfact> 0.71635070E+03</totfact>
</mgrwt>
</event>
<event>
 5    1  0.2847672E-003  0.1251018E+03  0.7818608E-02  0.1489047E+00
         11   -1    0    0    0    0  0.00000000000E+00  0.00000000000E+00  0.10001965443E+04  0.10001965443E+04  0.51100000000E-03 0. -1.
          2   -1    0    0  501    0 -0.00000000000E+00 -0.00000000000E+00 -0.71826756236E+02  0.71826756281E+02  0.25500000000E-02 0. -1.
         11    1    1    2    0    0 -0.39259245500E+02 -0.12578564049E+03  0.97661672571E+02  0.16401560292E+03  0.51100000000E-03 0. -1.
         22    1    1    2    0    0 -0.91896846915E+01  0.11336533254E+02 -0.32643293229E+02  0.35756843873E+02  0.00000000000E+00 0.  1.
          2    1    1    2  501    0  0.48448930192E+02  0.11444910724E+03  0.86335140870E+03  0.87225085377E+03  0.25500000000E-02 0. -1.
<mgrwt>
<rscale>  0 0.42727737E+02</rscale>
<asrwt>0</asrwt>
<pdfrwt beam="1">  1       11 0.10000000E+01 0.12510179E+03</pdfrwt>
<pdfrwt beam="2">  1        2 0.11052442E-01 0.42727737E+02</pdfrwt>
<totfact> 0.62607513E+02</totfact>
</mgrwt>
</event>
<event>
 5    1  0.2847672E-003  0.3409774E+03  0.7818608E-02  0.1118147E+00
         11   -1    0    0    0    0  0.00000000000E+00  0.00000000000E+00  0.10003005773E+04  0.10003005773E+04  0.51100000000E-03 0. -1.
          2   -1    0    0  501    0 -0.00000000000E+00 -0.00000000000E+00 -0.53912729215E+03  0.53912729215E+03  0.25500000000E-02 0. -1.
         11    1    1    2    0    0 -0.32528668093E+03 -0.92905887901E+02  0.43295163604E+03  0.54944521833E+03  0.51100000000E-03 0. -1.
         22    1    1    2    0    0 -0.33401455399E+02  0.16917916869E+03 -0.39439524716E+03  0.43044727822E+03  0.00000000000E+00 0. -1.
          2    1    1    2  501    0  0.35868813633E+03 -0.76273280790E+02  0.42261689627E+03  0.55953537290E+03  0.25500000000E-02 0. -1.
<mgrwt>
<rscale>  0 0.24248673E+03</rscale>
<asrwt>0</asrwt>
<pdfrwt beam="1">  1       11 0.10000000E+01 0.34097737E+03</pdfrwt>
<pdfrwt beam="2">  1        2 0.82967589E-01 0.24248673E+03</pdfrwt>
<totfact> 0.71316823E+01</totfact>
</mgrwt>
</event>
<event>
 5    1  0.2847672E-003  0.9931287E+02  0.7818608E-02  0.1281748E+00
         11   -1    0    0    0    0  0.00000000000E+00  0.00000000000E+00  0.10003668056E+04  0.10003668056E+04  0.51100000000E-03 0. -1.
          2   -1    0    0  501    0 -0.00000000000E+00 -0.00000000000E+00 -0.96308026043E+01  0.96308029419E+01  0.25500000000E-02 0. -1.
         11    1    1    2    0    0 -0.93218429805E+02 -0.26577891863E+02  0.50217326596E+03  0.51144310440E+03  0.51100000000E-03 0. -1.
         22    1    1    2    0    0  0.11566944910E+02 -0.34325617672E+01  0.48730385673E+02  0.50201864335E+02  0.00000000000E+00 0.  1.
          2    1    1    2  501    0  0.81651484895E+02  0.30010453630E+02  0.43983235138E+03  0.44835263983E+03  0.25500000000E-02 0. -1.
<mgrwt>
<rscale>  0 0.99312867E+02</rscale>
<asrwt>0</asrwt>
<pdfrwt beam="1">  1       11 0.10000000E+01 0.96933276E+02</pdfrwt>
<pdfrwt beam="2">  1        2 0.14822054E-02 0.99312867E+02</pdfrwt>
<totfact> 0.90357270E+03</totfact>
</mgrwt>
</event>
<event>
 5    1  0.3232341E-003  0.2270053E+03  0.7818608E-02  0.1421682E+00
         11   -1    0    0    0    0  0.00000000000E+00  0.00000000000E+00  0.10001662188E+04  0.10001662188E+04  0.51100000000E-03 0. -1.
         -2   -1    0    0    0  501 -0.00000000000E+00 -0.00000000000E+00 -0.25585122763E+03  0.25585122765E+03  0.25500000000E-02 0.  1.
         11    1    1    2    0    0 -0.21324946983E+03  0.78787808008E+02  0.92934276714E+03  0.95674491580E+03  0.51100000000E-03 0. -1.
         22    1    1    2    0    0  0.95706973379E+01  0.90392734275E+01 -0.13714512300E+02  0.19010380303E+02  0.00000000000E+00 0.  1.
         -2    1    1    2    0  501  0.20367877249E+03 -0.87827081435E+02 -0.17131326368E+03  0.28026215034E+03  0.25500000000E-02 0.  1.
<mgrwt>
<rscale>  0 0.54666567E+02</rscale>
<asrwt>0</asrwt>
<pdfrwt beam="1">  1       11 0.10000000E+01 0.22700526E+03</pdfrwt>
<pdfrwt beam="2">  1       -2 0.39368269E-01 0.54666567E+02</pdfrwt>
<totfact> 0.48921330E+01</totfact>
</mgrwt>
</event>
<event>
 5    1  0.2847672E-003  0.2698875E+03  0.7818608E-02  0.1239042E+00
         11   -1    0    0    0    0  0.00000000000E+00  0.00000000000E+00  0.10003777204E+04  0.10003777204E+04  0.51100000000E-03 0. -1.
         -2   -1    0    0    0  501 -0.00000000000E+00 -0.00000000000E+00 -0.79156872003E+03  0.79156872003E+03  0.25500000000E-02 0.  1.
         11    1    1    2    0    0  0.13957335337E+03  0.22878155845E+03  0.92740000954E+03  0.96534579305E+03  0.51100000000E-03 0. -1.
         22    1    1    2    0    0  0.10136006570E+02  0.54662715824E+02 -0.26748833107E+03  0.27320460902E+03  0.00000000000E+00 0. -1.
         -2    1    1    2    0  501 -0.14970935994E+03 -0.28344427427E+03 -0.45110267810E+03  0.55339603836E+03  0.25500000000E-02 0.  1.
<mgrwt>
<rscale>  0 0.12249190E+03</rscale>
<asrwt>0</asrwt>
<pdfrwt beam="1">  1       11 0.10000000E+01 0.26988748E+03</pdfrwt>
<pdfrwt beam="2">  1       -2 0.12182580E+00 0.12249190E+03</pdfrwt>
<totfact> 0.44849312E+00</totfact>
</mgrwt>
</event>
<event>
 5    1  0.2847672E-003  0.2743761E+02  0.7818608E-02  0.1788778E+00
         11   -1    0    0    0    0  0.00000000000E+00  0.00000000000E+00  0.10002396259E+04  0.10002396259E+04  0.51100000000E-03 0. -1.
          2   -1    0    0  501    0 -0.00000000000E+00 -0.00000000000E+00 -0.24067685771E+01  0.24067699280E+01  0.25500000000E-02 0. -1.
         11    1    1    2    0    0 -0.23938639138E+02 -0.11809473809E+02  0.13643743505E+03  0.13902408352E+03  0.51100000000E-03 0. -1.
         22    1    1    2    0    0  0.63490886156E+01 -0.99244915234E+01  0.38740392108E+02  0.40492276287E+02  0.00000000000E+00 0.  1.
          2    1    1    2  501    0  0.17589550522E+02  0.21733965333E+02  0.82265503014E+03  0.82313003600E+03  0.25500000000E-02 0. -1.
<mgrwt>
<rscale>  0 0.17979410E+02</rscale>
<asrwt>0</asrwt>
<pdfrwt beam="1">  1       11 0.10000000E+01 0.27437609E+02</pdfrwt>
<pdfrwt beam="2">  1        2 0.37036091E-03 0.17979410E+02</pdfrwt>
<totfact> 0.40270613E+04</totfact>
</mgrwt>
</event>
<event>
 5    1  0.2847672E-003  0.5263048E+02  0.7818608E-02  0.1431649E+00
         11   -1    0    0    0    0  0.00000000000E+00  0.00000000000E+00  0.10000107508E+04  0.10000107508E+04  0.51100000000E-03 0. -1.
          2   -1    0    0  501    0 -0.00000000000E+00 -0.00000000000E+00 -0.21383631601E+02  0.21383631753E+02  0.25500000000E-02 0. -1.
         11    1    1    2    0    0 -0.14364569419E+02  0.50150574629E+02  0.15490809912E+02  0.54418619811E+02  0.51100000000E-03 0. -1.
         22    1    1    2    0    0  0.16144771762E+01  0.13409385761E+02  0.59344213328E+02  0.60861759904E+02  0.00000000000E+00 0. -1.
          2    1    1    2  501    0  0.12750092243E+02 -0.63559960390E+02  0.90379209600E+03  0.90611400288E+03  0.25500000000E-02 0. -1.
<mgrwt>
<rscale>  0 0.52630480E+02</rscale>
<asrwt>0</asrwt>
<pdfrwt beam="1">  1       11 0.10000000E+01 0.13506227E+02</pdfrwt>
<pdfrwt beam="2">  1        2 0.32898248E-02 0.52630480E+02</pdfrwt>
<totfact> 0.28704833E+03</totfact>
</mgrwt>
</event>
<event>
 5    1  0.2847672E-003  0.5040666E+02  0.7818608E-02  0.1443160E+00
         11   -1    0    0    0    0  0.00000000000E+00  0.00000000000E+00  0.10001382933E+04  0.10001382933E+04  0.51100000000E-03 0. -1.
         -2   -1    0    0    0  501 -0.00000000000E+00 -0.00000000000E+00 -0.46395855414E+01  0.46395862421E+01  0.25500000000E-02 0. -1.
         11    1    1    2    0    0  0.15082763903E+02 -0.64704410322E+01  0.79600448093E+02  0.81274766754E+02  0.51100000000E-03 0. -1.
         22    1    1    2    0    0  0.36506955741E+02  0.31986599811E+02  0.22313269472E+03  0.22835082623E+03  0.00000000000E+00 0. -1.
         -2    1    1    2    0  501 -0.51589719644E+02 -0.25516158779E+02  0.69276556491E+03  0.69515228653E+03  0.25500000000E-02 0. -1.
<mgrwt>
<rscale>  0 0.50406656E+02</rscale>
<asrwt>0</asrwt>
<pdfrwt beam="1">  1       11 0.10000000E+01 0.16412088E+02</pdfrwt>
<pdfrwt beam="2">  1       -2 0.71388114E-03 0.50406656E+02</pdfrwt>
<totfact> 0.20948187E+04</totfact>
</mgrwt>
</event>
<event>
 5    1  0.2847672E-003  0.1192465E+03  0.7818608E-02  0.1374814E+00
         11   -1    0    0    0    0  0.00000000000E+00  0.00000000000E+00  0.99986547740E+03  0.99986547740E+03  0.51100000000E-03 0. -1.
          2   -1    0    0  501    0 -0.00000000000E+00 -0.00000000000E+00 -0.20313365748E+02  0.20313365908E+02  0.25500000000E-02 0. -1.
         11    1    1    2    0    0  0.62819696516E+01  0.12372978879E+03  0.38188794977E+03  0.40148092104E+03  0.51100000000E-03 0. -1.
         22    1    1    2    0    0  0.34111998942E+02 -0.12586977667E+02  0.82869814117E+02  0.90495671556E+02  0.00000000000E+00 0. -1.
          2    1    1    2  501    0 -0.40393968594E+02 -0.11114281112E+03  0.51479434777E+03  0.52820225072E+03  0.25500000000E-02 0. -1.
<mgrwt>
<rscale>  0 0.65846942E+02</rscale>
<asrwt>0</asrwt>
<pdfrwt beam="1">  1       11 0.10000000E+01 0.11924654E+03</pdfrwt>
<pdfrwt beam="2">  1        2 0.31247127E-02 0.65846942E+02</pdfrwt>
<totfact> 0.31551707E+03</totfact>
</mgrwt>
</event>
<event>
 5    1  0.2847672E-003  0.6487626E+02  0.7818608E-02  0.1434815E+00
         11   -1    0    0    0    0  0.00000000000E+00  0.00000000000E+00  0.10001914508E+04  0.10001914508E+04  0.51100000000E-03 0. -1.
          2   -1    0    0  501    0 -0.00000000000E+00 -0.00000000000E+00 -0.19546801640E+02  0.19546801807E+02  0.25500000000E-02 0. -1.
         11    1    1    2    0    0 -0.79118100063E+02 -0.56498428529E+02  0.34231596881E+03  0.35585385861E+03  0.51100000000E-03 0. -1.
         22    1    1    2    0    0  0.39449438829E+02  0.13477829135E+02  0.26794095820E+02  0.49556368641E+02  0.00000000000E+00 0. -1.
          2    1    1    2  501    0  0.39668661234E+02  0.43020599393E+02  0.61153458452E+03  0.61432802535E+03  0.25500000000E-02 0. -1.
<mgrwt>
<rscale>  0 0.52005542E+02</rscale>
<asrwt>0</asrwt>
<pdfrwt beam="1">  1       11 0.10000000E+01 0.64876261E+02</pdfrwt>
<pdfrwt beam="2">  1        2 0.30077759E-02 0.52005542E+02</pdfrwt>
<totfact> 0.32204848E+03</totfact>
</mgrwt>
</event>
<event>
 5    1  0.2847672E-003  0.1694090E+03  0.7818608E-02  0.1363417E+00
         11   -1    0    0    0    0  0.00000000000E+00  0.00000000000E+00  0.10002653721E+04  0.10002653721E+04  0.51100000000E-03 0. -1.
          2   -1    0    0  501    0 -0.00000000000E+00 -0.00000000000E+00 -0.81357037240E+02  0.81357037280E+02  0.25500000000E-02 0. -1.
         11    1    1    2    0    0 -0.10835933917E+03  0.13669460259E+03  0.84709498122E+03  0.86486823734E+03  0.51100000000E-03 0. -1.
         22    1    1    2    0    0  0.22416314657E+02 -0.16993354304E+02 -0.27272654812E+02  0.39179879451E+02  0.00000000000E+00 0. -1.
          2    1    1    2  501    0  0.85943024517E+02 -0.11970124829E+03  0.99086008433E+02  0.17757429256E+03  0.25500000000E-02 0. -1.
<mgrwt>
<rscale>  0 0.69031722E+02</rscale>
<asrwt>0</asrwt>
<pdfrwt beam="1">  1       11 0.10000000E+01 0.16940896E+03</pdfrwt>
<pdfrwt beam="2">  1        2 0.12519788E-01 0.69031722E+02</pdfrwt>
<totfact> 0.55866723E+02</totfact>
</mgrwt>
</event>
<event>
 5    1  0.2847672E-003  0.9196875E+02  0.7818608E-02  0.1298153E+00
         11   -1    0    0    0    0  0.00000000000E+00  0.00000000000E+00  0.10002666695E+04  0.10002666695E+04  0.51100000000E-03 0. -1.
          2   -1    0    0  501    0 -0.00000000000E+00 -0.00000000000E+00 -0.82479201750E+01  0.82479205692E+01  0.25500000000E-02 0. -1.
         11    1    1    2    0    0 -0.81875897358E+02 -0.29946330342E+02  0.39959277960E+03  0.40899246298E+03  0.51100000000E-03 0. -1.
         22    1    1    2    0    0  0.15711232063E+02  0.62634845911E+01  0.55595694772E+02  0.58111576552E+02  0.00000000000E+00 0.  1.
          2    1    1    2  501    0  0.66164665296E+02  0.23682845751E+02  0.53683027497E+03  0.54141055055E+03  0.25500000000E-02 0. -1.
<mgrwt>
<rscale>  0 0.91968752E+02</rscale>
<asrwt>0</asrwt>
<pdfrwt beam="1">  1       11 0.10000000E+01 0.87180576E+02</pdfrwt>
<pdfrwt beam="2">  1        2 0.12692492E-02 0.91968752E+02</pdfrwt>
<totfact> 0.11041985E+04</totfact>
</mgrwt>
</event>
<event>
 5    1  0.2847672E-003  0.8281139E+02  0.7818608E-02  0.1462364E+00
         11   -1    0    0    0    0  0.00000000000E+00  0.00000000000E+00  0.10002691388E+04  0.10002691388E+04  0.51100000000E-03 0. -1.
          2   -1    0    0  501    0 -0.00000000000E+00 -0.00000000000E+00 -0.96168683596E+01  0.96168686977E+01  0.25500000000E-02 0. -1.
         11    1    1    2    0    0  0.25078773158E+02  0.80037570989E+02  0.44523743999E+03  0.45306879787E+03  0.51100000000E-03 0. -1.
         22    1    1    2    0    0  0.23842610976E+02 -0.11903528727E+02  0.95401499083E+02  0.99053571978E+02  0.00000000000E+00 0. -1.
          2    1    1    2  501    0 -0.48921384134E+02 -0.68134042262E+02  0.45001333134E+03  0.45776363762E+03  0.25500000000E-02 0. -1.
<mgrwt>
<rscale>  0 0.46976926E+02</rscale>
<asrwt>0</asrwt>
<pdfrwt beam="1">  1       11 0.10000000E+01 0.82811387E+02</pdfrwt>
<pdfrwt beam="2">  1        2 0.14799164E-02 0.46976926E+02</pdfrwt>
<totfact> 0.80768478E+03</totfact>
</mgrwt>
</event>
<event>
 5    1  0.2847672E-003  0.3249628E+03  0.7818608E-02  0.1078444E+00
         11   -1    0    0    0    0  0.00000000000E+00  0.00000000000E+00  0.10002948606E+04  0.10002948606E+04  0.51100000000E-03 0. -1.
          2   -1    0    0  501    0 -0.00000000000E+00 -0.00000000000E+00 -0.12241343390E+03  0.12241343393E+03  0.25500000000E-02 0. -1.
         11    1    1    2    0    0  0.74074336297E+02 -0.22351337168E+03  0.16988307413E+03  0.29035408296E+03  0.51100000000E-03 0. -1.
         22    1    1    2    0    0  0.68375748434E+02 -0.56316440784E+02  0.46344974935E+02  0.99973202300E+02  0.00000000000E+00 0.  1.
          2    1    1    2  501    0 -0.14245008473E+03  0.27982981246E+03  0.66165337759E+03  0.73238100922E+03  0.25500000000E-02 0. -1.
<mgrwt>
<rscale>  0 0.31400120E+03</rscale>
<asrwt>0</asrwt>
<pdfrwt beam="1">  1       11 0.10000000E+01 0.32496280E+03</pdfrwt>
<pdfrwt beam="2">  1        2 0.18838389E-01 0.31400120E+03</pdfrwt>
<totfact> 0.36891911E+02</totfact>
</mgrwt>
</event>
<event>
 5    1  0.2847672E-003  0.2478815E+02  0.7818608E-02  0.1820381E+00
         11   -1    0    0    0    0  0.00000000000E+00  0.00000000000E+00  0.10000224228E+04  0.10000224228E+04  0.51100000000E-03 0.  1.
          2   -1    0    0  501    0 -0.00000000000E+00 -0.00000000000E+00 -0.29737738169E+01  0.29737749103E+01  0.25500000000E-02 0.  1.
         11    1    1    2    0    0  0.32361734917E+02 -0.65733052918E+01  0.14433992985E+03  0.14806925940E+03  0.51100000000E-03 0.  1.
         22    1    1    2    0    0 -0.10598608971E+02 -0.37516991001E+01  0.32968039320E+02  0.34832418447E+02  0.00000000000E+00 0.  1.
          2    1    1    2  501    0 -0.21763125946E+02  0.10325004392E+02  0.81974067982E+03  0.82009451987E+03  0.25500000000E-02 0.  1.
<mgrwt>
<rscale>  0 0.16694126E+02</rscale>
<asrwt>0</asrwt>
<pdfrwt beam="1">  1       11 0.10000000E+01 0.24788154E+02</pdfrwt>
<pdfrwt beam="2">  1        2 0.45751399E-03 0.16694126E+02</pdfrwt>
<totfact> 0.29943439E+04</totfact>
</mgrwt>
</event>
<event>
 5    1  0.2847672E-003  0.1510502E+03  0.7818608E-02  0.1489605E+00
         11   -1    0    0    0    0  0.00000000000E+00  0.00000000000E+00  0.10001592348E+04  0.10001592348E+04  0.51100000000E-03 0.  1.
          2   -1    0    0  501    0 -0.00000000000E+00 -0.00000000000E+00 -0.40671868136E+02  0.40671868216E+02  0.25500000000E-02 0.  1.
         11    1    1    2    0    0  0.13372070146E+03 -0.56018916840E+02  0.14806545018E+03  0.20722625939E+03  0.51100000000E-03 0.  1.
         22    1    1    2    0    0  0.10428046092E+02  0.60171124015E+01  0.52713974585E+01  0.13142960782E+02  0.00000000000E+00 0.  1.
          2    1    1    2  501    0 -0.14414874755E+03  0.50001804438E+02  0.80615051903E+03  0.82046188285E+03  0.25500000000E-02 0.  1.
<mgrwt>
<rscale>  0 0.42644692E+02</rscale>
<asrwt>0</asrwt>
<pdfrwt beam="1">  1       11 0.10000000E+01 0.15105023E+03</pdfrwt>
<pdfrwt beam="2">  1        2 0.62582067E-02 0.42644692E+02</pdfrwt>
<totfact> 0.12402400E+03</totfact>
</mgrwt>
</event>
<event>
 5    1  0.2847672E-003  0.4625792E+02  0.7818608E-02  0.1640317E+00
         11   -1    0    0    0    0  0.00000000000E+00  0.00000000000E+00  0.10003419586E+04  0.10003419586E+04  0.51100000000E-03 0.  1.
          2   -1    0    0  501    0 -0.00000000000E+00 -0.00000000000E+00 -0.53759184038E+01  0.53759190086E+01  0.25500000000E-02 0.  1.
         11    1    1    2    0    0 -0.43021694491E+01  0.47806189131E+02  0.14559186602E+03  0.15330013644E+03  0.51100000000E-03 0.  1.
         22    1    1    2    0    0 -0.14210726725E+02 -0.53481576157E+01  0.68119492018E+02  0.69791208162E+02  0.00000000000E+00 0. -1.
          2    1    1    2  501    0  0.18512896174E+02 -0.42458031516E+02  0.78125468218E+03  0.78262653303E+03  0.25500000000E-02 0.  1.
<mgrwt>
<rscale>  0 0.26502271E+02</rscale>
<asrwt>0</asrwt>
<pdfrwt beam="1">  1       11 0.10000000E+01 0.46257924E+02</pdfrwt>
<pdfrwt beam="2">  1        2 0.82734721E-03 0.26502271E+02</pdfrwt>
<totfact> 0.15579145E+04</totfact>
</mgrwt>
</event>
<event>
 5    1  0.2847672E-003  0.3040553E+03  0.7818608E-02  0.1388857E+00
         11   -1    0    0    0    0  0.00000000000E+00  0.00000000000E+00  0.10003083609E+04  0.10003083609E+04  0.51100000000E-03 0. -1.
          2   -1    0    0  501    0 -0.00000000000E+00 -0.00000000000E+00 -0.13408214926E+03  0.13408214928E+03  0.25500000000E-02 0. -1.
         11    1    1    2    0    0 -0.19765932343E+03 -0.22909737441E+03  0.71866793546E+03  0.77976818129E+03  0.51100000000E-03 0. -1.
         22    1    1    2    0    0  0.42696209090E+01 -0.11982875679E+02  0.10665232603E+02  0.16600185502E+02  0.00000000000E+00 0.  1.
          2    1    1    2  501    0  0.19338970252E+03  0.24108025009E+03  0.13689304355E+03  0.33802214336E+03  0.25500000000E-02 0. -1.
<mgrwt>
<rscale>  0 0.62191875E+02</rscale>
<asrwt>0</asrwt>
<pdfrwt beam="1">  1       11 0.10000000E+01 0.30405530E+03</pdfrwt>
<pdfrwt beam="2">  1        2 0.20634383E-01 0.62191875E+02</pdfrwt>
<totfact> 0.31530446E+02</totfact>
</mgrwt>
</event>
<event>
 5    1  0.2847672E-003  0.7520324E+02  0.7818608E-02  0.1448390E+00
         11   -1    0    0    0    0  0.00000000000E+00  0.00000000000E+00  0.10001365289E+04  0.10001365289E+04  0.51100000000E-03 0. -1.
          2   -1    0    0  501    0 -0.00000000000E+00 -0.00000000000E+00 -0.21883706852E+02  0.21883707001E+02  0.25500000000E-02 0. -1.
         11    1    1    2    0    0 -0.69835567916E+02  0.36205481934E+02  0.39627402723E+03  0.40400612387E+03  0.51100000000E-03 0. -1.
         22    1    1    2    0    0 -0.57288437387E+01 -0.31992807257E+02  0.14089597258E+01  0.32532207646E+02  0.00000000000E+00 0. -1.
          2    1    1    2  501    0  0.75564411655E+02 -0.42126746769E+01  0.58056983512E+03  0.58548190441E+03  0.25500000000E-02 0. -1.
<mgrwt>
<rscale>  0 0.49439161E+02</rscale>
<asrwt>0</asrwt>
<pdfrwt beam="1">  1       11 0.10000000E+01 0.75203242E+02</pdfrwt>
<pdfrwt beam="2">  1        2 0.33671837E-02 0.49439161E+02</pdfrwt>
<totfact> 0.27634943E+03</totfact>
</mgrwt>
</event>
<event>
 5    1  0.2847672E-003  0.3345044E+02  0.7818608E-02  0.1744636E+00
         11   -1    0    0    0    0  0.00000000000E+00  0.00000000000E+00  0.10002509886E+04  0.10002509886E+04  0.51100000000E-03 0. -1.
          2   -1    0    0  501    0 -0.00000000000E+00 -0.00000000000E+00 -0.58675512482E+01  0.58675518023E+01  0.25500000000E-02 0. -1.
         11    1    1    2    0    0 -0.40230913287E+02  0.93211385278E+01  0.24275400685E+03  0.24624158432E+03  0.51100000000E-03 0. -1.
         22    1    1    2    0    0  0.11212246634E+02  0.42753718999E+01  0.57443612989E+01  0.13303795180E+02  0.00000000000E+00 0. -1.
          2    1    1    2  501    0  0.29018666653E+02 -0.13596510428E+02  0.74588506917E+03  0.74657316087E+03  0.25500000000E-02 0. -1.
<mgrwt>
<rscale>  0 0.20034864E+02</rscale>
<asrwt>0</asrwt>
<pdfrwt beam="1">  1       11 0.10000000E+01 0.33450444E+02</pdfrwt>
<pdfrwt beam="2">  1        2 0.90292678E-03 0.20034864E+02</pdfrwt>
<totfact> 0.13020465E+04</totfact>
</mgrwt>
</event>
<event>
 5    1  0.2847672E-003  0.4423311E+02  0.7818608E-02  0.1479187E+00
         11   -1    0    0    0    0  0.00000000000E+00  0.00000000000E+00  0.99992893834E+03  0.99992893834E+03  0.51100000000E-03 0.  1.
          2   -1    0    0  501    0 -0.00000000000E+00 -0.00000000000E+00 -0.34434666283E+02  0.34434666378E+02  0.25500000000E-02 0.  1.
         11    1    1    2    0    0  0.12237435517E+02 -0.27261951967E+02  0.32092054411E+02  0.43850528043E+02  0.51100000000E-03 0.  1.
         22    1    1    2    0    0 -0.43545571640E+02  0.94311207357E+01 -0.10620161023E+02  0.45803391446E+02  0.00000000000E+00 0.  1.
          2    1    1    2  501    0  0.31308136123E+02  0.17830831231E+02  0.94402237867E+03  0.94470968523E+03  0.25500000000E-02 0.  1.
<mgrwt>
<rscale>  0 0.44233106E+02</rscale>
<asrwt>0</asrwt>
<pdfrwt beam="1">  1       11 0.10000000E+01 0.29882599E+02</pdfrwt>
<pdfrwt beam="2">  1        2 0.52972644E-02 0.44233106E+02</pdfrwt>
<totfact> 0.15316834E+03</totfact>
</mgrwt>
</event>
<event>
 5    1  0.2847672E-003  0.4143804E+03  0.7818608E-02  0.1343061E+00
         11   -1    0    0    0    0  0.00000000000E+00  0.00000000000E+00  0.10002448987E+04  0.10002448987E+04  0.51100000000E-03 0. -1.
          2   -1    0    0  501    0 -0.00000000000E+00 -0.00000000000E+00 -0.44077083578E+03  0.44077083579E+03  0.25500000000E-02 0. -1.
         11    1    1    2    0    0  0.38841022774E+03 -0.14536598178E+03  0.82285446518E+03  0.92145713115E+03  0.51100000000E-03 0. -1.
         22    1    1    2    0    0 -0.72059798350E+01 -0.11615993436E+02 -0.56824285753E+02  0.58445332579E+02  0.00000000000E+00 0. -1.
          2    1    1    2  501    0 -0.38120424791E+03  0.15698197521E+03 -0.20655611654E+03  0.46111327074E+03  0.25500000000E-02 0. -1.
<mgrwt>
<rscale>  0 0.75262252E+02</rscale>
<asrwt>0</asrwt>
<pdfrwt beam="1">  1       11 0.10000000E+01 0.41438041E+03</pdfrwt>
<pdfrwt beam="2">  1        2 0.67827503E-01 0.75262252E+02</pdfrwt>
<totfact> 0.90329492E+01</totfact>
</mgrwt>
</event>
<event>
 5    1  0.2847672E-003  0.1476501E+03  0.7818608E-02  0.1257591E+00
         11   -1    0    0    0    0  0.00000000000E+00  0.00000000000E+00  0.10002349361E+04  0.10002349361E+04  0.51100000000E-03 0. -1.
          2   -1    0    0  501    0 -0.00000000000E+00 -0.00000000000E+00 -0.12858792590E+03  0.12858792593E+03  0.25500000000E-02 0. -1.
         11    1    1    2    0    0 -0.15006217054E+03  0.54029731974E+02  0.91442875254E+03  0.92823370464E+03  0.51100000000E-03 0. -1.
         22    1    1    2    0    0  0.83792460139E+02  0.10012041831E+02 -0.64130355486E+02  0.10599113101E+03  0.00000000000E+00 0. -1.
          2    1    1    2  501    0  0.66269710399E+02 -0.64041773804E+02  0.21348613176E+02  0.94598026403E+02  0.25500000000E-02 0. -1.
<mgrwt>
<rscale>  0 0.11162424E+03</rscale>
<asrwt>0</asrwt>
<pdfrwt beam="1">  1       11 0.10000000E+01 0.14765012E+03</pdfrwt>
<pdfrwt beam="2">  1        2 0.19787405E-01 0.11162424E+03</pdfrwt>
<totfact> 0.33780249E+02</totfact>
</mgrwt>
</event>
<event>
 5    1  0.2847672E-003  0.6521806E+02  0.7818608E-02  0.1459201E+00
         11   -1    0    0    0    0  0.00000000000E+00  0.00000000000E+00  0.10003188385E+04  0.10003188385E+04  0.51100000000E-03 0. -1.
         -2   -1    0    0    0  501 -0.00000000000E+00 -0.00000000000E+00 -0.12113250185E+02  0.12113250453E+02  0.25500000000E-02 0. -1.
         11    1    1    2    0    0 -0.87251598800E+02  0.14565830744E+02  0.46418263174E+03  0.47253626372E+03  0.51100000000E-03 0. -1.
         22    1    1    2    0    0  0.30821241953E+02 -0.15774581248E+02  0.41339661500E+02  0.53923593927E+02  0.00000000000E+00 0. -1.
         -2    1    1    2    0  501  0.56430356847E+02  0.12087505046E+01  0.48268329508E+03  0.48597223131E+03  0.25500000000E-02 0. -1.
<mgrwt>
<rscale>  0 0.47519216E+02</rscale>
<asrwt>0</asrwt>
<pdfrwt beam="1">  1       11 0.10000000E+01 0.65218055E+02</pdfrwt>
<pdfrwt beam="2">  1       -2 0.18641711E-02 0.47519216E+02</pdfrwt>
<totfact> 0.54395623E+03</totfact>
</mgrwt>
</event>
<event>
 5    1  0.2847672E-003  0.2021695E+03  0.7818608E-02  0.1460175E+00
         11   -1    0    0    0    0  0.00000000000E+00  0.00000000000E+00  0.10003962016E+04  0.10003962016E+04  0.51100000000E-03 0. -1.
          2   -1    0    0  501    0 -0.00000000000E+00 -0.00000000000E+00 -0.18396881472E+03  0.18396881474E+03  0.25500000000E-02 0. -1.
         11    1    1    2    0    0 -0.15591134175E+03 -0.12749675165E+03  0.91150712930E+03  0.93349291102E+03  0.51100000000E-03 0. -1.
         22    1    1    2    0    0 -0.76070331133E+01 -0.80703759098E+01 -0.24755536511E+02  0.27126269704E+02  0.00000000000E+00 0.  1.
          2    1    1    2  501    0  0.16351837487E+03  0.13556712756E+03 -0.70324205938E+02  0.22374583558E+03  0.25500000000E-02 0. -1.
<mgrwt>
<rscale>  0 0.47351343E+02</rscale>
<asrwt>0</asrwt>
<pdfrwt beam="1">  1       11 0.10000000E+01 0.20216954E+03</pdfrwt>
<pdfrwt beam="2">  1        2 0.28314107E-01 0.47351343E+02</pdfrwt>
<totfact> 0.22221077E+02</totfact>
</mgrwt>
</event>
<event>
 5    1  0.2847672E-003  0.2894501E+03  0.7818608E-02  0.1270869E+00
         11   -1    0    0    0    0  0.00000000000E+00  0.00000000000E+00  0.99999040212E+03  0.99999040212E+03  0.51100000000E-03 0. -1.
          2   -1    0    0  501    0 -0.00000000000E+00 -0.00000000000E+00 -0.15426222102E+03  0.15426222104E+03  0.25500000000E-02 0. -1.
         11    1    1    2    0    0 -0.54624682821E+02 -0.28814339244E+03  0.76567329099E+03  0.81991832466E+03  0.51100000000E-03 0. -1.
         22    1    1    2    0    0 -0.29215906802E+02  0.24008053137E+02 -0.15967463348E+02  0.41047724803E+02  0.00000000000E+00 0. -1.
          2    1    1    2  501    0  0.83840589624E+02  0.26413533930E+03  0.96022353466E+02  0.29328657369E+03  0.25500000000E-02 0. -1.
<mgrwt>
<rscale>  0 0.10462068E+03</rscale>
<asrwt>0</asrwt>
<pdfrwt beam="1">  1       11 0.10000000E+01 0.28945012E+03</pdfrwt>
<pdfrwt beam="2">  1        2 0.23732421E-01 0.10462068E+03</pdfrwt>
<totfact> 0.27535756E+02</totfact>
</mgrwt>
</event>
<event>
 5    1  0.2847672E-003  0.4174399E+02  0.7818608E-02  0.1495756E+00
         11   -1    0    0    0    0  0.00000000000E+00  0.00000000000E+00  0.10004493165E+04  0.10004493165E+04  0.51100000000E-03 0. -1.
          2   -1    0    0  501    0 -0.00000000000E+00 -0.00000000000E+00 -0.56007596991E+01  0.56007602796E+01  0.25500000000E-02 0. -1.
         11    1    1    2    0    0  0.34630848237E+02  0.95425963425E+01  0.19512111435E+03  0.19840011607E+03  0.51100000000E-03 0. -1.
         22    1    1    2    0    0 -0.20250067617E+02  0.37622528646E+02  0.14756231360E+03  0.15362342366E+03  0.00000000000E+00 0. -1.
          2    1    1    2  501    0 -0.14380780619E+02 -0.47165124988E+02  0.65216512886E+03  0.65402653706E+03  0.25500000000E-02 0. -1.
<mgrwt>
<rscale>  0 0.41743994E+02</rscale>
<asrwt>0</asrwt>
<pdfrwt beam="1">  1       11 0.10000000E+01 0.35921555E+02</pdfrwt>
<pdfrwt beam="2">  1        2 0.86204251E-03 0.41743994E+02</pdfrwt>
<totfact> 0.16252130E+04</totfact>
</mgrwt>
</event>
<event>
 5    1  0.2847672E-003  0.4114108E+03  0.7818608E-02  0.1039899E+00
         11   -1    0    0    0    0  0.00000000000E+00  0.00000000000E+00  0.10003060437E+04  0.10003060437E+04  0.51100000000E-03 0. -1.
          2   -1    0    0  501    0 -0.00000000000E+00 -0.00000000000E+00 -0.39229879481E+03  0.39229879482E+03  0.25500000000E-02 0. -1.
         11    1    1    2    0    0  0.28346540385E+03 -0.29042072546E+03  0.83088756811E+03  0.92470048329E+03  0.51100000000E-03 0. -1.
         22    1    1    2    0    0 -0.23875992666E+02  0.69023455138E+01 -0.26162791765E+02  0.36085967803E+02  0.00000000000E+00 0.  1.
          2    1    1    2  501    0 -0.25958941118E+03  0.28351837994E+03 -0.19671752740E+03  0.43181838747E+03  0.25500000000E-02 0. -1.
<mgrwt>
<rscale>  0 0.41141080E+03</rscale>
<asrwt>0</asrwt>
<pdfrwt beam="1">  1       11 0.10000000E+01 0.40582858E+03</pdfrwt>
<pdfrwt beam="2">  1        2 0.60372130E-01 0.41141080E+03</pdfrwt>
<totfact> 0.10104612E+02</totfact>
</mgrwt>
</event>
<event>
 5    1  0.2847672E-003  0.5532306E+02  0.7818608E-02  0.1418577E+00
         11   -1    0    0    0    0  0.00000000000E+00  0.00000000000E+00  0.99997837113E+03  0.99997837113E+03  0.51100000000E-03 0. -1.
          2   -1    0    0  501    0 -0.00000000000E+00 -0.00000000000E+00 -0.86609194460E+01  0.86609198214E+01  0.25500000000E-02 0. -1.
         11    1    1    2    0    0 -0.41633301079E+02 -0.39119693883E+02  0.11258658750E+03  0.12625142334E+03  0.51100000000E-03 0. -1.
         22    1    1    2    0    0  0.23560019499E+02 -0.53187277637E+01  0.13742376033E+03  0.13953011606E+03  0.00000000000E+00 0. -1.
          2    1    1    2  501    0  0.18073281580E+02  0.44438421646E+02  0.74130710385E+03  0.74285775156E+03  0.25500000000E-02 0. -1.
<mgrwt>
<rscale>  0 0.55323056E+02</rscale>
<asrwt>0</asrwt>
<pdfrwt beam="1">  1       11 0.10000000E+01 0.24152917E+02</pdfrwt>
<pdfrwt beam="2">  1        2 0.13324203E-02 0.55323056E+02</pdfrwt>
<totfact> 0.95487413E+03</totfact>
</mgrwt>
</event>
<event>
 5    1  0.2847672E-003  0.2678743E+03  0.7818608E-02  0.1322344E+00
         11   -1    0    0    0    0  0.00000000000E+00  0.00000000000E+00  0.10002894423E+04  0.10002894423E+04  0.51100000000E-03 0.  1.
          2   -1    0    0  501    0 -0.00000000000E+00 -0.00000000000E+00 -0.14304307707E+03  0.14304307709E+03  0.25500000000E-02 0.  1.
         11    1    1    2    0    0 -0.26552642843E+03  0.53907810681E+02  0.77642257670E+03  0.82233956116E+03  0.51100000000E-03 0.  1.
         22    1    1    2    0    0  0.18351828300E+02  0.17493576533E+02 -0.31352062008E+02  0.40320796297E+02  0.00000000000E+00 0.  1.
          2    1    1    2  501    0  0.24717460013E+03 -0.71401387215E+02  0.11217585056E+03  0.28067216196E+03  0.25500000000E-02 0.  1.
<mgrwt>
<rscale>  0 0.82411345E+02</rscale>
<asrwt>0</asrwt>
<pdfrwt beam="1">  1       11 0.10000000E+01 0.26787431E+03</pdfrwt>
<pdfrwt beam="2">  1        2 0.22012996E-01 0.82411345E+02</pdfrwt>
<totfact> 0.29681578E+02</totfact>
</mgrwt>
</event>
<event>
 5    1  0.2847672E-003  0.1359352E+03  0.7818608E-02  0.1218905E+00
         11   -1    0    0    0    0  0.00000000000E+00  0.00000000000E+00  0.10001928625E+04  0.10001928625E+04  0.51100000000E-03 0. -1.
         -2   -1    0    0    0  501 -0.00000000000E+00 -0.00000000000E+00 -0.19297620028E+02  0.19297620196E+02  0.25500000000E-02 0. -1.
         11    1    1    2    0    0 -0.59197640030E+01  0.12997386931E+03  0.33357044235E+03  0.35804677113E+03  0.51100000000E-03 0. -1.
         22    1    1    2    0    0 -0.37640956750E+01 -0.32671669656E+02  0.95040527164E+02  0.10056991706E+03  0.00000000000E+00 0. -1.
         -2    1    1    2    0  501  0.96838596780E+01 -0.97302199651E+02  0.55228427300E+03  0.56087379454E+03  0.25500000000E-02 0. -1.
<mgrwt>
<rscale>  0 0.13593523E+03</rscale>
<asrwt>0</asrwt>
<pdfrwt beam="1">  1       11 0.10000000E+01 0.13010867E+03</pdfrwt>
<pdfrwt beam="2">  1       -2 0.29694371E-02 0.13593523E+03</pdfrwt>
<totfact> 0.32019210E+03</totfact>
</mgrwt>
</event>
<event>
 5    1  0.2847672E-003  0.2008480E+03  0.7818608E-02  0.1351333E+00
         11   -1    0    0    0    0  0.00000000000E+00  0.00000000000E+00  0.10000541546E+04  0.10000541546E+04  0.51100000000E-03 0. -1.
          2   -1    0    0  501    0 -0.00000000000E+00 -0.00000000000E+00 -0.12126103007E+03  0.12126103010E+03  0.25500000000E-02 0.  1.
         11    1    1    2    0    0  0.45342816102E+02 -0.19710132718E+03  0.88153379098E+03  0.90443724425E+03  0.51100000000E-03 0. -1.
         22    1    1    2    0    0  0.19196514703E+02  0.17937607134E+02 -0.30047381375E+01  0.26444136925E+02  0.00000000000E+00 0.  1.
          2    1    1    2  501    0 -0.64539330806E+02  0.17916372005E+03  0.26407173218E+00  0.19043380357E+03  0.25500000000E-02 0.  1.
<mgrwt>
<rscale>  0 0.72641965E+02</rscale>
<asrwt>0</asrwt>
<pdfrwt beam="1">  1       11 0.10000000E+01 0.20084803E+03</pdfrwt>
<pdfrwt beam="2">  1        2 0.18656553E-01 0.72641965E+02</pdfrwt>
<totfact> 0.35484690E+02</totfact>
</mgrwt>
</event>
<event>
 5    1  0.2847672E-003  0.2271622E+03  0.7818608E-02  0.1330925E+00
         11   -1    0    0    0    0  0.00000000000E+00  0.00000000000E+00  0.10004380055E+04  0.10004380055E+04  0.51100000000E-03 0. -1.
          2   -1    0    0  501    0 -0.00000000000E+00 -0.00000000000E+00 -0.12079063953E+03  0.12079063955E+03  0.25500000000E-02 0. -1.
         11    1    1    2    0    0  0.22801878934E+03 -0.23123889930E+02  0.79801004300E+03  0.83026942091E+03  0.51100000000E-03 0. -1.
         22    1    1    2    0    0 -0.80575325675E+01  0.26515982286E+02 -0.32837955618E+02  0.42969203819E+02  0.00000000000E+00 0. -1.
          2    1    1    2  501    0 -0.21996125677E+03 -0.33920923555E+01  0.11447527861E+03  0.24799002034E+03  0.25500000000E-02 0. -1.
<mgrwt>
<rscale>  0 0.79343497E+02</rscale>
<asrwt>0</asrwt>
<pdfrwt beam="1">  1       11 0.10000000E+01 0.22716221E+03</pdfrwt>
<pdfrwt beam="2">  1        2 0.18591314E-01 0.79343497E+02</pdfrwt>
<totfact> 0.35757498E+02</totfact>
</mgrwt>
</event>
<event>
 5    1  0.2847672E-003  0.1782392E+03  0.7818608E-02  0.1169518E+00
         11   -1    0    0    0    0  0.00000000000E+00  0.00000000000E+00  0.10001599910E+04  0.10001599910E+04  0.51100000000E-03 0. -1.
         -2   -1    0    0    0  501 -0.00000000000E+00 -0.00000000000E+00 -0.14165716267E+03  0.14165716269E+03  0.25500000000E-02 0.  1.
         11    1    1    2    0    0  0.16548734596E+03  0.39530490870E+02  0.93318165758E+03  0.94856561577E+03  0.51100000000E-03 0. -1.
         22    1    1    2    0    0 -0.52269396009E+02  0.11836309551E+02 -0.17228911345E+02  0.56294079343E+02  0.00000000000E+00 0.  1.
         -2    1    1    2    0  501 -0.11321794995E+03 -0.51366800421E+02 -0.57449917926E+02  0.13695745855E+03  0.25500000000E-02 0.  1.
<mgrwt>
<rscale>  0 0.17823925E+03</rscale>
<asrwt>0</asrwt>
<pdfrwt beam="1">  1       11 0.10000000E+01 0.17014324E+03</pdfrwt>
<pdfrwt beam="2">  1       -2 0.21796896E-01 0.17823925E+03</pdfrwt>
<totfact> 0.14396965E+02</totfact>
</mgrwt>
</event>
<event>
 5    1  0.2847672E-003  0.6321901E+02  0.7818608E-02  0.1398186E+00
         11   -1    0    0    0    0  0.00000000000E+00  0.00000000000E+00  0.10003489414E+04  0.10003489414E+04  0.51100000000E-03 0. -1.
          2   -1    0    0  501    0 -0.00000000000E+00 -0.00000000000E+00 -0.56996339001E+01  0.56996344705E+01  0.25500000000E-02 0. -1.
         11    1    1    2    0    0 -0.37288637380E+02  0.36437895975E+02  0.17952484198E+03  0.18694205420E+03  0.51100000000E-03 0. -1.
         22    1    1    2    0    0 -0.11017812496E+02 -0.99262743144E+00  0.35513407473E+02  0.37196499993E+02  0.00000000000E+00 0.  1.
          2    1    1    2  501    0  0.48306449876E+02 -0.35445268543E+02  0.77961105808E+03  0.78191002171E+03  0.25500000000E-02 0. -1.
<mgrwt>
<rscale>  0 0.59915609E+02</rscale>
<asrwt>0</asrwt>
<pdfrwt beam="1">  1       11 0.10000000E+01 0.63219006E+02</pdfrwt>
<pdfrwt beam="2">  1        2 0.87717275E-03 0.59915609E+02</pdfrwt>
<totfact> 0.17005079E+04</totfact>
</mgrwt>
</event>
<event>
 5    1  0.2847672E-003  0.1206375E+03  0.7818608E-02  0.1508888E+00
         11   -1    0    0    0    0  0.00000000000E+00  0.00000000000E+00  0.99994298923E+03  0.99994298923E+03  0.51100000000E-03 0. -1.
          2   -1    0    0  501    0 -0.00000000000E+00 -0.00000000000E+00 -0.19313965122E+02  0.19313965290E+02  0.25500000000E-02 0. -1.
         11    1    1    2    0    0  0.92495513775E+02 -0.83107690520E+02  0.42569325162E+03  0.44348286638E+03  0.51100000000E-03 0. -1.
         22    1    1    2    0    0  0.26714758834E+01  0.12928975559E+02  0.64615502377E+01  0.14698531351E+02  0.00000000000E+00 0.  1.
          2    1    1    2  501    0 -0.95166989659E+02  0.70178714961E+02  0.54847422225E+03  0.56107555679E+03  0.25500000000E-02 0. -1.
<mgrwt>
<rscale>  0 0.39908217E+02</rscale>
<asrwt>0</asrwt>
<pdfrwt beam="1">  1       11 0.10000000E+01 0.12063745E+03</pdfrwt>
<pdfrwt beam="2">  1        2 0.29712098E-02 0.39908217E+02</pdfrwt>
<totfact> 0.31573140E+03</totfact>
</mgrwt>
</event>
<event>
 5    1  0.2847672E-003  0.1111669E+03  0.7818608E-02  0.1472398E+00
         11   -1    0    0    0    0  0.00000000000E+00  0.00000000000E+00  0.10000690367E+04  0.10000690367E+04  0.51100000000E-03 0.  1.
          2   -1    0    0  501    0 -0.00000000000E+00 -0.00000000000E+00 -0.15419749472E+02  0.15419749682E+02  0.25500000000E-02 0.  1.
         11    1    1    2    0    0 -0.52443623550E+02 -0.10516664669E+03  0.57543473267E+03  0.58731208807E+03  0.51100000000E-03 0.  1.
         22    1    1    2    0    0  0.16919891402E+02  0.74065508621E+01  0.32664444291E+02  0.37524733731E+02  0.00000000000E+00 0.  1.
          2    1    1    2  501    0  0.35523732149E+02  0.97760095832E+02  0.37655011022E+03  0.39065196454E+03  0.25500000000E-02 0.  1.
<mgrwt>
<rscale>  0 0.45312788E+02</rscale>
<asrwt>0</asrwt>
<pdfrwt beam="1">  1       11 0.10000000E+01 0.11116688E+03</pdfrwt>
<pdfrwt beam="2">  1        2 0.23724329E-02 0.45312788E+02</pdfrwt>
<totfact> 0.43077979E+03</totfact>
</mgrwt>
</event>
<event>
 5    1  0.2847672E-003  0.2848434E+02  0.7818608E-02  0.1615473E+00
         11   -1    0    0    0    0  0.00000000000E+00  0.00000000000E+00  0.10001222853E+04  0.10001222853E+04  0.51100000000E-03 0. -1.
          2   -1    0    0  501    0 -0.00000000000E+00 -0.00000000000E+00 -0.14495109303E+02  0.14495109527E+02  0.25500000000E-02 0. -1.
         11    1    1    2    0    0  0.37500257409E+01 -0.11161692794E+02  0.69323304678E+02  0.70316190531E+02  0.51100000000E-03 0. -1.
         22    1    1    2    0    0  0.11209952382E+02  0.26337338363E+02  0.88817882564E+00  0.28637515362E+02  0.00000000000E+00 0. -1.
          2    1    1    2  501    0 -0.14959978123E+02 -0.15175645569E+02  0.91541569254E+03  0.91566368898E+03  0.25500000000E-02 0. -1.
<mgrwt>
<rscale>  0 0.28484340E+02</rscale>
<asrwt>0</asrwt>
<pdfrwt beam="1">  1       11 0.10000000E+01 0.11774807E+02</pdfrwt>
<pdfrwt beam="2">  1        2 0.22302895E-02 0.28484340E+02</pdfrwt>
<totfact> 0.43394416E+03</totfact>
</mgrwt>
</event>
<event>
 5    1  0.2847672E-003  0.1503679E+03  0.7818608E-02  0.1385768E+00
         11   -1    0    0    0    0  0.00000000000E+00  0.00000000000E+00  0.10001455690E+04  0.10001455690E+04  0.51100000000E-03 0. -1.
          2   -1    0    0  501    0 -0.00000000000E+00 -0.00000000000E+00 -0.10582438067E+03  0.10582438070E+03  0.25500000000E-02 0. -1.
         11    1    1    2    0    0 -0.83509281408E+02  0.12409268267E+03  0.89558189862E+03  0.90798663597E+03  0.51100000000E-03 0. -1.
         22    1    1    2    0    0 -0.25735047138E+02 -0.57588615714E+01 -0.23601857807E+02  0.35390744973E+02  0.00000000000E+00 0. -1.
          2    1    1    2  501    0  0.10924432855E+03 -0.11833382110E+03  0.22341147531E+02  0.16259256876E+03  0.25500000000E-02 0. -1.
<mgrwt>
<rscale>  0 0.62971670E+02</rscale>
<asrwt>0</asrwt>
<pdfrwt beam="1">  1       11 0.10000000E+01 0.15036794E+03</pdfrwt>
<pdfrwt beam="2">  1        2 0.16283043E-01 0.62971670E+02</pdfrwt>
<totfact> 0.41079469E+02</totfact>
</mgrwt>
</event>
<event>
 5    1  0.2847672E-003  0.4954982E+03  0.7818608E-02  0.1014961E+00
         11   -1    0    0    0    0  0.00000000000E+00  0.00000000000E+00  0.99992362793E+03  0.99992362793E+03  0.51100000000E-03 0. -1.
          2   -1    0    0  501    0 -0.00000000000E+00 -0.00000000000E+00 -0.62060591870E+03  0.62060591871E+03  0.25500000000E-02 0. -1.
         11    1    1    2    0    0  0.48277270575E+03  0.62576349369E+02  0.82248995372E+03  0.95575886545E+03  0.51100000000E-03 0. -1.
         22    1    1    2    0    0 -0.24703897406E+02  0.14436397553E+01 -0.57327371399E+02  0.62440324745E+02  0.00000000000E+00 0. -1.
          2    1    1    2  501    0 -0.45806880834E+03 -0.64019989125E+02 -0.38584487310E+03  0.60233035644E+03  0.25500000000E-02 0. -1.
<mgrwt>
<rscale>  0 0.49549815E+03</rscale>
<asrwt>0</asrwt>
<pdfrwt beam="1">  1       11 0.10000000E+01 0.48681134E+03</pdfrwt>
<pdfrwt beam="2">  1        2 0.95470539E-01 0.49549815E+03</pdfrwt>
<totfact> 0.59589432E+01</totfact>
</mgrwt>
</event>
<event>
 5    1  0.2847672E-003  0.1782748E+03  0.7818608E-02  0.1328542E+00
         11   -1    0    0    0    0  0.00000000000E+00  0.00000000000E+00  0.10005789117E+04  0.10005789117E+04  0.51100000000E-03 0.  1.
         -2   -1    0    0    0  501 -0.00000000000E+00 -0.00000000000E+00 -0.70294781542E+03  0.70294781543E+03  0.25500000000E-02 0.  1.
         11    1    1    2    0    0 -0.16758857426E+03 -0.63873869435E+02  0.96657595025E+03  0.98307419304E+03  0.51100000000E-03 0.  1.
         22    1    1    2    0    0  0.15674377777E+03 -0.15569015450E+02 -0.26216179100E+03  0.30584278767E+03  0.00000000000E+00 0.  1.
         -2    1    1    2    0  501  0.10844796497E+02  0.79442884885E+02 -0.40678306293E+03  0.41460974646E+03  0.25500000000E-02 0.  1.
<mgrwt>
<rscale>  0 0.80179683E+02</rscale>
<asrwt>0</asrwt>
<pdfrwt beam="1">  1       11 0.10000000E+01 0.17827478E+03</pdfrwt>
<pdfrwt beam="2">  1       -2 0.10820842E+00 0.80179683E+02</pdfrwt>
<totfact> 0.60173609E+00</totfact>
</mgrwt>
</event>
<event>
 5    1  0.2847672E-003  0.2439380E+03  0.7818608E-02  0.1339109E+00
         11   -1    0    0    0    0  0.00000000000E+00  0.00000000000E+00  0.10000740245E+04  0.10000740245E+04  0.51100000000E-03 0.  1.
          2   -1    0    0  501    0 -0.00000000000E+00 -0.00000000000E+00 -0.15552799553E+03  0.15552799556E+03  0.25500000000E-02 0.  1.
         11    1    1    2    0    0  0.22444932379E+03 -0.75786780243E+02  0.63029431310E+03  0.67334393599E+03  0.51100000000E-03 0.  1.
         22    1    1    2    0    0  0.19461854261E+02 -0.14091715369E+02 -0.83566630650E+02  0.86952412109E+02  0.00000000000E+00 0. -1.
          2    1    1    2  501    0 -0.24391117805E+03  0.89878495611E+02  0.29781834650E+03  0.39530567194E+03  0.25500000000E-02 0.  1.
<mgrwt>
<rscale>  0 0.76559252E+02</rscale>
<asrwt>0</asrwt>
<pdfrwt beam="1">  1       11 0.10000000E+01 0.24393800E+03</pdfrwt>
<pdfrwt beam="2">  1        2 0.23929154E-01 0.76559252E+02</pdfrwt>
<totfact> 0.27023456E+02</totfact>
</mgrwt>
</event>
<event>
 5    1  0.2847672E-003  0.1590922E+03  0.7818608E-02  0.1478585E+00
         11   -1    0    0    0    0  0.00000000000E+00  0.00000000000E+00  0.10003189033E+04  0.10003189033E+04  0.51100000000E-03 0.  1.
          2   -1    0    0  501    0 -0.00000000000E+00 -0.00000000000E+00 -0.43063533218E+02  0.43063533294E+02  0.25500000000E-02 0.  1.
         11    1    1    2    0    0  0.54941180190E+02 -0.15212105770E+03  0.78444093391E+03  0.80094127641E+03  0.51100000000E-03 0.  1.
         22    1    1    2    0    0 -0.79090987172E+01  0.94862540382E+01 -0.13944966460E+01  0.12429299220E+02  0.00000000000E+00 0. -1.
          2    1    1    2  501    0 -0.47032081473E+02  0.14263480366E+03  0.17420893283E+03  0.23001186097E+03  0.25500000000E-02 0.  1.
<mgrwt>
<rscale>  0 0.44327413E+02</rscale>
<asrwt>0</asrwt>
<pdfrwt beam="1">  1       11 0.10000000E+01 0.15909218E+03</pdfrwt>
<pdfrwt beam="2">  1        2 0.66272716E-02 0.44327413E+02</pdfrwt>
<totfact> 0.11600775E+03</totfact>
</mgrwt>
</event>
<event>
 5    1  0.2847672E-003  0.7710114E+02  0.7818608E-02  0.1417567E+00
         11   -1    0    0    0    0  0.00000000000E+00  0.00000000000E+00  0.10000482155E+04  0.10000482155E+04  0.51100000000E-03 0. -1.
          2   -1    0    0  501    0 -0.00000000000E+00 -0.00000000000E+00 -0.13828571447E+02  0.13828571682E+02  0.25500000000E-02 0. -1.
         11    1    1    2    0    0  0.72271386250E+02  0.73746304242E+02  0.41574805272E+03  0.42837847051E+03  0.51100000000E-03 0. -1.
         22    1    1    2    0    0 -0.36874781470E+02 -0.15518281471E+02  0.71810634112E+02  0.82203003229E+02  0.00000000000E+00 0. -1.
          2    1    1    2  501    0 -0.35396604780E+02 -0.58228022771E+02  0.49866095724E+03  0.50329531346E+03  0.25500000000E-02 0. -1.
<mgrwt>
<rscale>  0 0.55539088E+02</rscale>
<asrwt>0</asrwt>
<pdfrwt beam="1">  1       11 0.10000000E+01 0.77101145E+02</pdfrwt>
<pdfrwt beam="2">  1        2 0.21275751E-02 0.55539088E+02</pdfrwt>
<totfact> 0.51206605E+03</totfact>
</mgrwt>
</event>
<event>
 5    1  0.2847672E-003  0.1871642E+03  0.7818608E-02  0.1161044E+00
         11   -1    0    0    0    0  0.00000000000E+00  0.00000000000E+00  0.99995610729E+03  0.99995610729E+03  0.51100000000E-03 0. -1.
          2   -1    0    0  501    0 -0.00000000000E+00 -0.00000000000E+00 -0.88696146534E+02  0.88696146570E+02  0.25500000000E-02 0.  1.
         11    1    1    2    0    0  0.80036951559E+02 -0.29414736685E+02  0.51420398040E+03  0.52122631726E+03  0.51100000000E-03 0. -1.
         22    1    1    2    0    0 -0.12510355378E+03 -0.14944054954E+03  0.10333308872E+03  0.22059262055E+03  0.00000000000E+00 0.  1.
          2    1    1    2  501    0  0.45066602221E+02  0.17885528622E+03  0.29372289164E+03  0.34683331605E+03  0.25500000000E-02 0.  1.
<mgrwt>
<rscale>  0 0.18716425E+03</rscale>
<asrwt>0</asrwt>
<pdfrwt beam="1">  1       11 0.10000000E+01 0.85270982E+02</pdfrwt>
<pdfrwt beam="2">  1        2 0.13644962E-01 0.18716425E+03</pdfrwt>
<totfact> 0.53035709E+02</totfact>
</mgrwt>
</event>
<event>
 5    1  0.2847672E-003  0.5212562E+03  0.7818608E-02  0.1215572E+00
         11   -1    0    0    0    0  0.00000000000E+00  0.00000000000E+00  0.10002568385E+04  0.10002568385E+04  0.51100000000E-03 0. -1.
          2   -1    0    0  501    0 -0.00000000000E+00 -0.00000000000E+00 -0.64381468782E+03  0.64381468782E+03  0.25500000000E-02 0.  1.
         11    1    1    2    0    0 -0.43865631467E+03  0.29200268435E+03  0.77937162315E+03  0.94080022164E+03  0.51100000000E-03 0. -1.
         22    1    1    2    0    0  0.28772177804E+02 -0.22812213397E+02 -0.12318440242E+03  0.12854039169E+03  0.00000000000E+00 0.  1.
          2    1    1    2  501    0  0.40988413686E+03 -0.26919047095E+03 -0.29974507006E+03  0.57473091298E+03  0.25500000000E-02 0.  1.
<mgrwt>
<rscale>  0 0.13834614E+03</rscale>
<asrwt>0</asrwt>
<pdfrwt beam="1">  1       11 0.10000000E+01 0.52125618E+03</pdfrwt>
<pdfrwt beam="2">  1        2 0.99073850E-01 0.13834614E+03</pdfrwt>
<totfact> 0.58919396E+01</totfact>
</mgrwt>
</event>
<event>
 5    1  0.2847672E-003  0.4981614E+03  0.7818608E-02  0.1109247E+00
         11   -1    0    0    0    0  0.00000000000E+00  0.00000000000E+00  0.10001371922E+04  0.10001371922E+04  0.51100000000E-03 0. -1.
          2   -1    0    0  501    0 -0.00000000000E+00 -0.00000000000E+00 -0.10291004412E+04  0.10291004412E+04  0.25500000000E-02 0. -1.
         11    1    1    2    0    0 -0.19231107302E+03  0.48210204531E+03  0.81434870971E+03  0.96569651128E+03  0.51100000000E-03 0. -1.
         22    1    1    2    0    0  0.83280310652E+02 -0.10254229141E+03 -0.56544600323E+03  0.58067177840E+03  0.00000000000E+00 0. -1.
          2    1    1    2  501    0  0.10903076237E+03 -0.37955975390E+03 -0.27786595549E+03  0.48286934377E+03  0.25500000000E-02 0. -1.
<mgrwt>
<rscale>  0 0.25652945E+03</rscale>
<asrwt>0</asrwt>
<pdfrwt beam="1">  1       11 0.10000000E+01 0.49816145E+03</pdfrwt>
<pdfrwt beam="2">  1        2 0.15834486E+00 0.25652945E+03</pdfrwt>
<totfact> 0.31608089E+01</totfact>
</mgrwt>
</event>
<event>
 5    1  0.2847672E-003  0.1670156E+03  0.7818608E-02  0.1388360E+00
         11   -1    0    0    0    0  0.00000000000E+00  0.00000000000E+00  0.10003472313E+04  0.10003472313E+04  0.51100000000E-03 0.  1.
          2   -1    0    0  501    0 -0.00000000000E+00 -0.00000000000E+00 -0.27441500016E+03  0.27441500017E+03  0.25500000000E-02 0.  1.
         11    1    1    2    0    0  0.76496736341E+02 -0.14724208405E+03  0.93111814773E+03  0.94578696703E+03  0.51100000000E-03 0.  1.
         22    1    1    2    0    0  0.66753487126E+01 -0.22272600036E+02 -0.11929242314E+03  0.12153728322E+03  0.00000000000E+00 0.  1.
          2    1    1    2  501    0 -0.83172085053E+02  0.16951468408E+03 -0.85893493409E+02  0.20743798126E+03  0.25500000000E-02 0.  1.
<mgrwt>
<rscale>  0 0.62316550E+02</rscale>
<asrwt>0</asrwt>
<pdfrwt beam="1">  1       11 0.10000000E+01 0.16701564E+03</pdfrwt>
<pdfrwt beam="2">  1        2 0.42232350E-01 0.62316550E+02</pdfrwt>
<totfact> 0.14759858E+02</totfact>
</mgrwt>
</event>
<event>
 5    1  0.2847672E-003  0.4400564E+02  0.7818608E-02  0.1533451E+00
         11   -1    0    0    0    0  0.00000000000E+00  0.00000000000E+00  0.10005212100E+04  0.10005212100E+04  0.51100000000E-03 0. -1.
          2   -1    0    0  501    0 -0.00000000000E+00 -0.00000000000E+00 -0.43900333797E+01  0.43900341203E+01  0.25500000000E-02 0. -1.
         11    1    1    2    0    0 -0.35624238475E+01 -0.35017505799E+02  0.16446339404E+03  0.16818776577E+03  0.51100000000E-03 0. -1.
         22    1    1    2    0    0  0.29324521891E+02 -0.91477558539E+01  0.14843438461E+03  0.15157960138E+03  0.00000000000E+00 0. -1.
          2    1    1    2  501    0 -0.25762098044E+02  0.44165261653E+02  0.68323339801E+03  0.68514387701E+03  0.25500000000E-02 0. -1.
<mgrwt>
<rscale>  0 0.36766481E+02</rscale>
<asrwt>0</asrwt>
<pdfrwt beam="1">  1       11 0.10000000E+01 0.44005637E+02</pdfrwt>
<pdfrwt beam="2">  1        2 0.67574181E-03 0.36766481E+02</pdfrwt>
<totfact> 0.21909626E+04</totfact>
</mgrwt>
</event>
<event>
 5    1  0.2847672E-003  0.1754873E+03  0.7818608E-02  0.1172243E+00
         11   -1    0    0    0    0  0.00000000000E+00  0.00000000000E+00  0.10001898079E+04  0.10001898079E+04  0.51100000000E-03 0. -1.
          2   -1    0    0  501    0 -0.00000000000E+00 -0.00000000000E+00 -0.14845627795E+03  0.14845627798E+03  0.25500000000E-02 0.  1.
         11    1    1    2    0    0  0.63725159869E+02  0.16167440212E+03  0.93739530870E+03  0.95336743865E+03  0.51100000000E-03 0. -1.
         22    1    1    2    0    0 -0.11277388718E+00 -0.21428005494E+02 -0.12163971666E+02  0.24640096268E+02  0.00000000000E+00 0. -1.
          2    1    1    2  501    0 -0.63612385981E+02 -0.14024639662E+03 -0.73497807096E+02  0.17063855095E+03  0.25500000000E-02 0.  1.
<mgrwt>
<rscale>  0 0.17548735E+03</rscale>
<asrwt>0</asrwt>
<pdfrwt beam="1">  1       11 0.10000000E+01 0.17378006E+03</pdfrwt>
<pdfrwt beam="2">  1        2 0.22843762E-01 0.17548735E+03</pdfrwt>
<totfact> 0.29144115E+02</totfact>
</mgrwt>
</event>
<event>
 5    1  0.2847672E-003  0.1637945E+03  0.7818608E-02  0.1283120E+00
         11   -1    0    0    0    0  0.00000000000E+00  0.00000000000E+00  0.99996446750E+03  0.99996446750E+03  0.51100000000E-03 0. -1.
          2   -1    0    0  501    0 -0.00000000000E+00 -0.00000000000E+00 -0.53998236607E+02  0.53998236667E+02  0.25500000000E-02 0. -1.
         11    1    1    2    0    0 -0.82848939508E+02  0.12922773435E+03  0.32095866292E+03  0.35577832621E+03  0.51100000000E-03 0. -1.
         22    1    1    2    0    0 -0.55239334901E+02 -0.21942704598E+02  0.11887463117E+02  0.60614999668E+02  0.00000000000E+00 0. -1.
          2    1    1    2  501    0  0.13808827441E+03 -0.10728502975E+03  0.61312010486E+03  0.63756937829E+03  0.25500000000E-02 0. -1.
<mgrwt>
<rscale>  0 0.98669142E+02</rscale>
<asrwt>0</asrwt>
<pdfrwt beam="1">  1       11 0.10000000E+01 0.16379450E+03</pdfrwt>
<pdfrwt beam="2">  1        2 0.83071256E-02 0.98669142E+02</pdfrwt>
<totfact> 0.93719645E+02</totfact>
</mgrwt>
</event>
<event>
 5    1  0.2847672E-003  0.2065502E+03  0.7818608E-02  0.1247636E+00
         11   -1    0    0    0    0  0.00000000000E+00  0.00000000000E+00  0.10001110410E+04  0.10001110410E+04  0.51100000000E-03 0.  1.
          2   -1    0    0  501    0 -0.00000000000E+00 -0.00000000000E+00 -0.83762042258E+02  0.83762042296E+02  0.25500000000E-02 0.  1.
         11    1    1    2    0    0 -0.70881800425E+01  0.23777933576E+03  0.50685532587E+03  0.55990318465E+03  0.51100000000E-03 0.  1.
         22    1    1    2    0    0  0.78168113235E+02 -0.14448116970E+03  0.98371162127E+02  0.19147309958E+03  0.00000000000E+00 0.  1.
          2    1    1    2  501    0 -0.71079933193E+02 -0.93298166057E+02  0.31112251071E+03  0.33249679904E+03  0.25500000000E-02 0.  1.
<mgrwt>
<rscale>  0 0.11728983E+03</rscale>
<asrwt>0</asrwt>
<pdfrwt beam="1">  1       11 0.10000000E+01 0.20655020E+03</pdfrwt>
<pdfrwt beam="2">  1        2 0.12887899E-01 0.11728983E+03</pdfrwt>
<totfact> 0.55567992E+02</totfact>
</mgrwt>
</event>
<event>
 5    1  0.2847672E-003  0.1901877E+03  0.7818608E-02  0.1158292E+00
         11   -1    0    0    0    0  0.00000000000E+00  0.00000000000E+00  0.99978470457E+03  0.99978470457E+03  0.51100000000E-03 0.  1.
          2   -1    0    0  501    0 -0.00000000000E+00 -0.00000000000E+00 -0.40019590854E+03  0.40019590855E+03  0.25500000000E-02 0.  1.
         11    1    1    2    0    0  0.11015236499E+03 -0.86250563738E+02  0.67237794217E+03  0.68677856720E+03  0.51100000000E-03 0.  1.
         22    1    1    2    0    0  0.16122917449E+03  0.91903239559E+02 -0.30431112644E+03  0.35643556756E+03  0.00000000000E+00 0.  1.
          2    1    1    2  501    0 -0.27138153948E+03 -0.56526758217E+01  0.23152198030E+03  0.35676647836E+03  0.25500000000E-02 0.  1.
<mgrwt>
<rscale>  0 0.19018775E+03</rscale>
<asrwt>0</asrwt>
<pdfrwt beam="1">  1       11 0.10000000E+01 0.13990248E+03</pdfrwt>
<pdfrwt beam="2">  1        2 0.61555344E-01 0.19018775E+03</pdfrwt>
<totfact> 0.99518585E+01</totfact>
</mgrwt>
</event>
<event>
 5    1  0.2847672E-003  0.7343211E+02  0.7818608E-02  0.1620773E+00
         11   -1    0    0    0    0  0.00000000000E+00  0.00000000000E+00  0.10007842020E+04  0.10007842020E+04  0.51100000000E-03 0. -1.
          2   -1    0    0  501    0 -0.00000000000E+00 -0.00000000000E+00 -0.72491676415E+01  0.72491680900E+01  0.25500000000E-02 0. -1.
         11    1    1    2    0    0 -0.56838576348E+01  0.75837081286E+02  0.40309731337E+03  0.41020849965E+03  0.51100000000E-03 0. -1.
         22    1    1    2    0    0  0.99611145555E+01 -0.39349327287E+01  0.18557101793E+02  0.21426001160E+02  0.00000000000E+00 0.  1.
          2    1    1    2  501    0 -0.42772569207E+01 -0.71902148557E+02  0.57188061922E+03  0.57639886931E+03  0.25500000000E-02 0. -1.
<mgrwt>
<rscale>  0 0.28044057E+02</rscale>
<asrwt>0</asrwt>
<pdfrwt beam="1">  1       11 0.10000000E+01 0.73432108E+02</pdfrwt>
<pdfrwt beam="2">  1        2 0.11161311E-02 0.28044057E+02</pdfrwt>
<totfact> 0.10646238E+04</totfact>
</mgrwt>
</event>
<event>
 5    1  0.2847672E-003  0.3520787E+02  0.7818608E-02  0.1546762E+00
         11   -1    0    0    0    0  0.00000000000E+00  0.00000000000E+00  0.99974503061E+03  0.99974503062E+03  0.51100000000E-03 0. -1.
          2   -1    0    0  501    0 -0.00000000000E+00 -0.00000000000E+00 -0.32034009836E+01  0.32034019986E+01  0.25500000000E-02 0. -1.
         11    1    1    2    0    0  0.10380654671E+02  0.55256177759E+01  0.26006719276E+02  0.28541897116E+02  0.51100000000E-03 0. -1.
         22    1    1    2    0    0 -0.77376103397E+01 -0.35949223524E+02  0.20561985471E+03  0.20888212451E+03  0.00000000000E+00 0. -1.
          2    1    1    2  501    0 -0.26430443318E+01  0.30423605749E+02  0.76491505564E+03  0.76552441099E+03  0.25500000000E-02 0. -1.
<mgrwt>
<rscale>  0 0.35207872E+02</rscale>
<asrwt>0</asrwt>
<pdfrwt beam="1">  1       11 0.10000000E+01 0.11759702E+02</pdfrwt>
<pdfrwt beam="2">  1        2 0.49270533E-03 0.35207872E+02</pdfrwt>
<totfact> 0.33074544E+04</totfact>
</mgrwt>
</event>
<event>
 5    1  0.2847672E-003  0.1844298E+03  0.7818608E-02  0.1460547E+00
         11   -1    0    0    0    0  0.00000000000E+00  0.00000000000E+00  0.10002596361E+04  0.10002596361E+04  0.51100000000E-03 0. -1.
          2   -1    0    0  501    0 -0.00000000000E+00 -0.00000000000E+00 -0.11808780349E+03  0.11808780352E+03  0.25500000000E-02 0. -1.
         11    1    1    2    0    0  0.12663862066E+03  0.13490237673E+03  0.88410207773E+03  0.90325659440E+03  0.51100000000E-03 0. -1.
         22    1    1    2    0    0 -0.11624207728E+02  0.34465366620E+01 -0.30593809601E+02  0.32908691955E+02  0.00000000000E+00 0. -1.
          2    1    1    2  501    0 -0.11501441293E+03 -0.13834891339E+03  0.28663564434E+02  0.18218215322E+03  0.25500000000E-02 0. -1.
<mgrwt>
<rscale>  0 0.47287409E+02</rscale>
<asrwt>0</asrwt>
<pdfrwt beam="1">  1       11 0.10000000E+01 0.18442982E+03</pdfrwt>
<pdfrwt beam="2">  1        2 0.18172071E-01 0.47287409E+02</pdfrwt>
<totfact> 0.35811101E+02</totfact>
</mgrwt>
</event>
<event>
 5    1  0.2847672E-003  0.1355045E+03  0.7818608E-02  0.1292537E+00
         11   -1    0    0    0    0  0.00000000000E+00  0.00000000000E+00  0.10002638397E+04  0.10002638397E+04  0.51100000000E-03 0.  1.
          2   -1    0    0  501    0 -0.00000000000E+00 -0.00000000000E+00 -0.32025842533E+02  0.32025842634E+02  0.25500000000E-02 0.  1.
         11    1    1    2    0    0 -0.15129536465E+03 -0.27930139274E+02  0.45511423750E+03  0.48041580867E+03  0.51100000000E-03 0.  1.
         22    1    1    2    0    0  0.27998353439E+02  0.59504078536E+02  0.10081234953E+03  0.12036516513E+03  0.00000000000E+00 0.  1.
          2    1    1    2  501    0  0.12329701121E+03 -0.31573939262E+02  0.41231141018E+03  0.43150870858E+03  0.25500000000E-02 0.  1.
<mgrwt>
<rscale>  0 0.94398340E+02</rscale>
<asrwt>0</asrwt>
<pdfrwt beam="1">  1       11 0.10000000E+01 0.13550452E+03</pdfrwt>
<pdfrwt beam="2">  1        2 0.49283525E-02 0.94398340E+02</pdfrwt>
<totfact> 0.18096182E+03</totfact>
</mgrwt>
</event>
<event>
 5    1  0.2847672E-003  0.1341380E+03  0.7818608E-02  0.1221442E+00
         11   -1    0    0    0    0  0.00000000000E+00  0.00000000000E+00  0.10003800888E+04  0.10003800888E+04  0.51100000000E-03 0. -1.
          2   -1    0    0  501    0 -0.00000000000E+00 -0.00000000000E+00 -0.24654912680E+02  0.24654912812E+02  0.25500000000E-02 0. -1.
         11    1    1    2    0    0  0.11323717846E+03 -0.69681876957E+02  0.68312714950E+03  0.69594606468E+03  0.51100000000E-03 0. -1.
         22    1    1    2    0    0 -0.50896511487E+01 -0.10647633057E+02  0.52195060752E+02  0.53512624730E+02  0.00000000000E+00 0. -1.
          2    1    1    2  501    0 -0.10814752731E+03  0.80329510014E+02  0.24040296590E+03  0.27557631224E+03  0.25500000000E-02 0. -1.
<mgrwt>
<rscale>  0 0.13413805E+03</rscale>
<asrwt>0</asrwt>
<pdfrwt beam="1">  1       11 0.10000000E+01 0.11801552E+02</pdfrwt>
<pdfrwt beam="2">  1        2 0.37945051E-02 0.13413805E+03</pdfrwt>
<totfact> 0.26328320E+03</totfact>
</mgrwt>
</event>
<event>
 5    1  0.2847672E-003  0.3932022E+02  0.7818608E-02  0.1672497E+00
         11   -1    0    0    0    0  0.00000000000E+00  0.00000000000E+00  0.10002257242E+04  0.10002257242E+04  0.51100000000E-03 0. -1.
          2   -1    0    0  501    0 -0.00000000000E+00 -0.00000000000E+00 -0.42396746226E+01  0.42396753895E+01  0.25500000000E-02 0. -1.
         11    1    1    2    0    0 -0.41345932513E+02 -0.31351944568E+02  0.22315506161E+03  0.22910829772E+03  0.51100000000E-03 0. -1.
         22    1    1    2    0    0  0.10268682991E+02  0.10818739483E+02  0.71582757351E+02  0.73120326342E+02  0.00000000000E+00 0.  1.
          2    1    1    2  501    0  0.31077249521E+02  0.20533205085E+02  0.70124823061E+03  0.70223677552E+03  0.25500000000E-02 0. -1.
<mgrwt>
<rscale>  0 0.24217870E+02</rscale>
<asrwt>0</asrwt>
<pdfrwt beam="1">  1       11 0.10000000E+01 0.39320217E+02</pdfrwt>
<pdfrwt beam="2">  1        2 0.65240491E-03 0.24217870E+02</pdfrwt>
<totfact> 0.20836200E+04</totfact>
</mgrwt>
</event>
<event>
 5    1  0.2847672E-003  0.9662493E+02  0.7818608E-02  0.1287558E+00
         11   -1    0    0    0    0  0.00000000000E+00  0.00000000000E+00  0.10003732575E+04  0.10003732575E+04  0.51100000000E-03 0.  1.
          2   -1    0    0  501    0 -0.00000000000E+00 -0.00000000000E+00 -0.86814593407E+01  0.86814597152E+01  0.25500000000E-02 0.  1.
         11    1    1    2    0    0 -0.47410952732E+02  0.76215327519E+02  0.47815069515E+03  0.48650247878E+03  0.51100000000E-03 0.  1.
         22    1    1    2    0    0  0.20506086754E+01 -0.18698668647E+02  0.53382135656E+02  0.56599448869E+02  0.00000000000E+00 0. -1.
          2    1    1    2  501    0  0.45360344057E+02 -0.57516658872E+02  0.46015896734E+03  0.46595278955E+03  0.25500000000E-02 0.  1.
<mgrwt>
<rscale>  0 0.96624932E+02</rscale>
<asrwt>0</asrwt>
<pdfrwt beam="1">  1       11 0.10000000E+01 0.89758423E+02</pdfrwt>
<pdfrwt beam="2">  1        2 0.13361076E-02 0.96624932E+02</pdfrwt>
<totfact> 0.10369207E+04</totfact>
</mgrwt>
</event>
<event>
 5    1  0.2847672E-003  0.7884500E+02  0.7818608E-02  0.1589353E+00
         11   -1    0    0    0    0  0.00000000000E+00  0.00000000000E+00  0.10004694250E+04  0.10004694250E+04  0.51100000000E-03 0.  1.
          2   -1    0    0  501    0 -0.00000000000E+00 -0.00000000000E+00 -0.87152167997E+01  0.87152171727E+01  0.25500000000E-02 0.  1.
         11    1    1    2    0    0 -0.59441865458E+02  0.54998554426E+02  0.27969542596E+03  0.29118328877E+03  0.51100000000E-03 0.  1.
         22    1    1    2    0    0 -0.51587754905E+01 -0.10874297906E+02  0.54990246163E+02  0.56292010913E+02  0.00000000000E+00 0. -1.
          2    1    1    2  501    0  0.64600640949E+02 -0.44124256520E+02  0.65706853611E+03  0.66170934252E+03  0.25500000000E-02 0.  1.
<mgrwt>
<rscale>  0 0.30805381E+02</rscale>
<asrwt>0</asrwt>
<pdfrwt beam="1">  1       11 0.10000000E+01 0.78845000E+02</pdfrwt>
<pdfrwt beam="2">  1        2 0.13414320E-02 0.30805381E+02</pdfrwt>
<totfact> 0.85243376E+03</totfact>
</mgrwt>
</event>
<event>
 5    1  0.2847672E-003  0.5473271E+02  0.7818608E-02  0.1429407E+00
         11   -1    0    0    0    0  0.00000000000E+00  0.00000000000E+00  0.99997250814E+03  0.99997250814E+03  0.51100000000E-03 0.  1.
          2   -1    0    0  501    0 -0.00000000000E+00 -0.00000000000E+00 -0.64931527746E+01  0.64931532753E+01  0.25500000000E-02 0.  1.
         11    1    1    2    0    0  0.21242963976E+02  0.22820288490E+02  0.59052320863E+02  0.66777284198E+02  0.51100000000E-03 0.  1.
         22    1    1    2    0    0  0.10246814212E+02  0.19909179469E+02  0.67074844125E+02  0.70713558410E+02  0.00000000000E+00 0.  1.
          2    1    1    2  501    0 -0.31489778188E+02 -0.42729467959E+02  0.86735219038E+03  0.86897481881E+03  0.25500000000E-02 0.  1.
<mgrwt>
<rscale>  0 0.53079314E+02</rscale>
<asrwt>0</asrwt>
<pdfrwt beam="1">  1       11 0.10000000E+01 0.54732715E+02</pdfrwt>
<pdfrwt beam="2">  1        2 0.99891913E-03 0.53079314E+02</pdfrwt>
<totfact> 0.13960089E+04</totfact>
</mgrwt>
</event>
<event>
 5    1  0.2847672E-003  0.4452216E+03  0.7818608E-02  0.1295664E+00
         11   -1    0    0    0    0  0.00000000000E+00  0.00000000000E+00  0.10001967084E+04  0.10001967084E+04  0.51100000000E-03 0.  1.
          2   -1    0    0  501    0 -0.00000000000E+00 -0.00000000000E+00 -0.52332872938E+03  0.52332872939E+03  0.25500000000E-02 0.  1.
         11    1    1    2    0    0  0.31609102850E+03  0.31707871962E+03  0.81935594044E+03  0.93370049259E+03  0.51100000000E-03 0.  1.
         22    1    1    2    0    0 -0.16611520500E+02 -0.10099837453E+02 -0.90171001535E+02  0.92242933864E+02  0.00000000000E+00 0. -1.
          2    1    1    2  501    0 -0.29947950800E+03 -0.30697888216E+03 -0.25231695985E+03  0.49758201137E+03  0.25500000000E-02 0.  1.
<mgrwt>
<rscale>  0 0.93035029E+02</rscale>
<asrwt>0</asrwt>
<pdfrwt beam="1">  1       11 0.10000000E+01 0.44522158E+03</pdfrwt>
<pdfrwt beam="2">  1        2 0.80527947E-01 0.93035029E+02</pdfrwt>
<totfact> 0.74971542E+01</totfact>
</mgrwt>
</event>
<event>
 5    1  0.2847672E-003  0.7266160E+02  0.7818608E-02  0.1615728E+00
         11   -1    0    0    0    0  0.00000000000E+00  0.00000000000E+00  0.99990325141E+03  0.99990325141E+03  0.51100000000E-03 0.  1.
          2   -1    0    0  501    0 -0.00000000000E+00 -0.00000000000E+00 -0.69299855606E+01  0.69299860297E+01  0.25500000000E-02 0.  1.
         11    1    1    2    0    0 -0.51968519885E+02 -0.52589745139E+02  0.44660619488E+03  0.45268477074E+03  0.51100000000E-03 0.  1.
         22    1    1    2    0    0  0.96166742818E+01 -0.56418308701E+01  0.20158742650E+02  0.23036614010E+02  0.00000000000E+00 0.  1.
          2    1    1    2  501    0  0.42351845603E+02  0.58231576009E+02  0.52620832832E+03  0.53111185270E+03  0.25500000000E-02 0.  1.
<mgrwt>
<rscale>  0 0.28462923E+02</rscale>
<asrwt>0</asrwt>
<pdfrwt beam="1">  1       11 0.10000000E+01 0.72661604E+02</pdfrwt>
<pdfrwt beam="2">  1        2 0.10660485E-02 0.28462923E+02</pdfrwt>
<totfact> 0.11342250E+04</totfact>
</mgrwt>
</event>
<event>
 5    1  0.2847672E-003  0.1455125E+03  0.7818608E-02  0.1494460E+00
         11   -1    0    0    0    0  0.00000000000E+00  0.00000000000E+00  0.10001923077E+04  0.10001923077E+04  0.51100000000E-03 0.  1.
         -2   -1    0    0    0  501 -0.00000000000E+00 -0.00000000000E+00 -0.39961334446E+02  0.39961334527E+02  0.25500000000E-02 0.  1.
         11    1    1    2    0    0  0.17291379603E+01  0.14470839159E+03  0.74442462060E+03  0.75836107777E+03  0.51100000000E-03 0.  1.
         22    1    1    2    0    0 -0.11601079516E+02  0.33791127911E+01 -0.70865359593E+01  0.14007942072E+02  0.00000000000E+00 0. -1.
         -2    1    1    2    0  501  0.98719415559E+01 -0.14808750439E+03  0.22289288860E+03  0.26778462237E+03  0.25500000000E-02 0.  1.
<mgrwt>
<rscale>  0 0.41931548E+02</rscale>
<asrwt>0</asrwt>
<pdfrwt beam="1">  1       11 0.10000000E+01 0.14551248E+03</pdfrwt>
<pdfrwt beam="2">  1       -2 0.61490797E-02 0.41931548E+02</pdfrwt>
<totfact> 0.96839422E+02</totfact>
</mgrwt>
</event>
<event>
 5    1  0.2847672E-003  0.6370121E+02  0.7818608E-02  0.1552598E+00
         11   -1    0    0    0    0  0.00000000000E+00  0.00000000000E+00  0.10002477082E+04  0.10002477082E+04  0.51100000000E-03 0. -1.
          2   -1    0    0  501    0 -0.00000000000E+00 -0.00000000000E+00 -0.68662210477E+02  0.68662210524E+02  0.25500000000E-02 0. -1.
         11    1    1    2    0    0  0.56727559574E+02 -0.59037946633E+02  0.87531366997E+01  0.82341438900E+02  0.51100000000E-03 0. -1.
         22    1    1    2    0    0 -0.13843276516E+02  0.12636237210E+02 -0.27969786410E+02  0.33669270075E+02  0.00000000000E+00 0. -1.
          2    1    1    2  501    0 -0.42884283058E+02  0.46401709422E+02  0.95080214741E+03  0.95289920973E+03  0.25500000000E-02 0. -1.
<mgrwt>
<rscale>  0 0.34553863E+02</rscale>
<asrwt>0</asrwt>
<pdfrwt beam="1">  1       11 0.10000000E+01 0.63701211E+02</pdfrwt>
<pdfrwt beam="2">  1        2 0.10566033E-01 0.34553863E+02</pdfrwt>
<totfact> 0.64894064E+02</totfact>
</mgrwt>
</event>
<event>
 5    1  0.2847672E-003  0.2851116E+03  0.7818608E-02  0.1382949E+00
         11   -1    0    0    0    0  0.00000000000E+00  0.00000000000E+00  0.10001461693E+04  0.10001461693E+04  0.51100000000E-03 0. -1.
          2   -1    0    0  501    0 -0.00000000000E+00 -0.00000000000E+00 -0.20606128321E+03  0.20606128322E+03  0.25500000000E-02 0. -1.
         11    1    1    2    0    0  0.43435323965E+02 -0.28367933601E+03  0.84804100606E+03  0.89528439114E+03  0.51100000000E-03 0. -1.
         22    1    1    2    0    0  0.22390637172E+01  0.14052351775E+02 -0.33847002225E+02  0.36716502507E+02  0.00000000000E+00 0. -1.
          2    1    1    2  501    0 -0.45674387682E+02  0.26962698424E+03 -0.20109117730E+02  0.27420655890E+03  0.25500000000E-02 0. -1.
<mgrwt>
<rscale>  0 0.63694807E+02</rscale>
<asrwt>0</asrwt>
<pdfrwt beam="1">  1       11 0.10000000E+01 0.28511157E+03</pdfrwt>
<pdfrwt beam="2">  1        2 0.31706369E-01 0.63694807E+02</pdfrwt>
<totfact> 0.19898280E+02</totfact>
</mgrwt>
</event>
<event>
 5    1  0.2847672E-003  0.1874797E+03  0.7818608E-02  0.1160754E+00
         11   -1    0    0    0    0  0.00000000000E+00  0.00000000000E+00  0.10002445902E+04  0.10002445902E+04  0.51100000000E-03 0.  1.
          2   -1    0    0  501    0 -0.00000000000E+00 -0.00000000000E+00 -0.98277001653E+02  0.98277001686E+02  0.25500000000E-02 0.  1.
         11    1    1    2    0    0  0.17826870612E+03 -0.10703956424E+03  0.82843806088E+03  0.85413513018E+03  0.51100000000E-03 0.  1.
         22    1    1    2    0    0 -0.30214846073E+02 -0.39435779212E+01  0.49045851822E+02  0.57740664275E+02  0.00000000000E+00 0.  1.
          2    1    1    2  501    0 -0.14805386005E+03  0.11098314216E+03  0.24483675882E+02  0.18664579747E+03  0.25500000000E-02 0.  1.
<mgrwt>
<rscale>  0 0.18747970E+03</rscale>
<asrwt>0</asrwt>
<pdfrwt beam="1">  1       11 0.10000000E+01 0.30471113E+02</pdfrwt>
<pdfrwt beam="2">  1        2 0.15123236E-01 0.18747970E+03</pdfrwt>
<totfact> 0.46941296E+02</totfact>
</mgrwt>
</event>
<event>
 5    1  0.2847672E-003  0.1110391E+04  0.7818608E-02  0.1050249E+00
         11   -1    0    0    0    0  0.00000000000E+00  0.00000000000E+00  0.99995117844E+03  0.99995117844E+03  0.51100000000E-03 0.  1.
          2   -1    0    0  501    0 -0.00000000000E+00 -0.00000000000E+00 -0.16512955240E+04  0.16512955240E+04  0.25500000000E-02 0.  1.
         11    1    1    2    0    0 -0.50560416134E+02 -0.11317272942E+04  0.24159713380E+03  0.11583316447E+04  0.51100000000E-03 0.  1.
         22    1    1    2    0    0 -0.10431909732E+03  0.79763306713E+02 -0.12494228236E+03  0.18126012546E+03  0.00000000000E+00 0.  1.
          2    1    1    2  501    0  0.15487951345E+03  0.10519639875E+04 -0.76799919704E+03  0.13116549323E+04  0.25500000000E-02 0.  1.
<mgrwt>
<rscale>  0 0.38185781E+03</rscale>
<asrwt>0</asrwt>
<pdfrwt beam="1">  1       11 0.10000000E+01 0.11103913E+04</pdfrwt>
<pdfrwt beam="2">  1        2 0.25403306E+00 0.38185781E+03</pdfrwt>
<totfact> 0.13828590E+01</totfact>
</mgrwt>
</event>
<event>
 5    1  0.2847672E-003  0.7814537E+02  0.7818608E-02  0.1334399E+00
         11   -1    0    0    0    0  0.00000000000E+00  0.00000000000E+00  0.99997696068E+03  0.99997696068E+03  0.51100000000E-03 0.  1.
          2   -1    0    0  501    0 -0.00000000000E+00 -0.00000000000E+00 -0.77132128391E+01  0.77132132606E+01  0.25500000000E-02 0.  1.
         11    1    1    2    0    0 -0.17296976308E+02 -0.40387489284E+01  0.89233431688E+02  0.90984076702E+02  0.51100000000E-03 0.  1.
         22    1    1    2    0    0  0.65101384897E+02 -0.51469763400E+02  0.41600542728E+03  0.42420259592E+03  0.00000000000E+00 0.  1.
          2    1    1    2  501    0 -0.47804408589E+02  0.55508512329E+02  0.48702488888E+03  0.49250350132E+03  0.25500000000E-02 0.  1.
<mgrwt>
<rscale>  0 0.78145372E+02</rscale>
<asrwt>0</asrwt>
<pdfrwt beam="1">  1       11 0.10000000E+01 0.17762241E+02</pdfrwt>
<pdfrwt beam="2">  1        2 0.11866208E-02 0.78145372E+02</pdfrwt>
<totfact> 0.11804799E+04</totfact>
</mgrwt>
</event>
<event>
 5    1  0.2847672E-003  0.1606153E+03  0.7818608E-02  0.1188004E+00
         11   -1    0    0    0    0  0.00000000000E+00  0.00000000000E+00  0.10003135226E+04  0.10003135226E+04  0.51100000000E-03 0.  1.
          2   -1    0    0  501    0 -0.00000000000E+00 -0.00000000000E+00 -0.53951297646E+02  0.53951297706E+02  0.25500000000E-02 0.  1.
         11    1    1    2    0    0 -0.28102678854E+02 -0.88511647195E+02  0.36706589434E+03  0.37863101172E+03  0.51100000000E-03 0.  1.
         22    1    1    2    0    0 -0.12954582542E+03 -0.47761594412E+02  0.20326457060E+03  0.24572296687E+03  0.00000000000E+00 0.  1.
          2    1    1    2  501    0  0.15764850428E+03  0.13627324161E+03  0.37603175998E+03  0.42991084168E+03  0.25500000000E-02 0.  1.
<mgrwt>
<rscale>  0 0.16061526E+03</rscale>
<asrwt>0</asrwt>
<pdfrwt beam="1">  1       11 0.10000000E+01 0.92865883E+02</pdfrwt>
<pdfrwt beam="2">  1        2 0.83028017E-02 0.16061526E+03</pdfrwt>
<totfact> 0.96785783E+02</totfact>
</mgrwt>
</event>
<event>
 5    1  0.2847672E-003  0.6963136E+02  0.7818608E-02  0.1415102E+00
         11   -1    0    0    0    0  0.00000000000E+00  0.00000000000E+00  0.10001673273E+04  0.10001673273E+04  0.51100000000E-03 0. -1.
          2   -1    0    0  501    0 -0.00000000000E+00 -0.00000000000E+00 -0.14523802055E+02  0.14523802279E+02  0.25500000000E-02 0. -1.
         11    1    1    2    0    0  0.66980147940E+02  0.32485914701E+02  0.29418114685E+03  0.30345382191E+03  0.51100000000E-03 0. -1.
         22    1    1    2    0    0  0.37967657509E+01 -0.44991221701E+02  0.56995822345E+02  0.72712785843E+02  0.00000000000E+00 0. -1.
          2    1    1    2  501    0 -0.70776913691E+02  0.12505307000E+02  0.63446655604E+03  0.63852452181E+03  0.25500000000E-02 0. -1.
<mgrwt>
<rscale>  0 0.56070790E+02</rscale>
<asrwt>0</asrwt>
<pdfrwt beam="1">  1       11 0.10000000E+01 0.69631356E+02</pdfrwt>
<pdfrwt beam="2">  1        2 0.22348049E-02 0.56070790E+02</pdfrwt>
<totfact> 0.48046334E+03</totfact>
</mgrwt>
</event>
<event>
 5    1  0.2847672E-003  0.1872175E+03  0.7818608E-02  0.1209166E+00
         11   -1    0    0    0    0  0.00000000000E+00  0.00000000000E+00  0.10000456731E+04  0.10000456731E+04  0.51100000000E-03 0.  1.
         -2   -1    0    0    0  501 -0.00000000000E+00 -0.00000000000E+00 -0.25272923825E+03  0.25272923826E+03  0.25500000000E-02 0. -1.
         11    1    1    2    0    0  0.43009807486E+02  0.14728961996E+03  0.41229520027E+03  0.43992204747E+03  0.51100000000E-03 0.  1.
         22    1    1    2    0    0  0.22306462705E+02  0.10714179674E+03 -0.19369727520E+03  0.22247601513E+03  0.00000000000E+00 0. -1.
         -2    1    1    2    0  501 -0.65316270191E+02 -0.25443141670E+03  0.52871850982E+03  0.59037684879E+03  0.25500000000E-02 0. -1.
<mgrwt>
<rscale>  0 0.14313959E+03</rscale>
<asrwt>0</asrwt>
<pdfrwt beam="1">  1       11 0.10000000E+01 0.18721755E+03</pdfrwt>
<pdfrwt beam="2">  1       -2 0.38883196E-01 0.14313959E+03</pdfrwt>
<totfact> 0.50658804E+01</totfact>
</mgrwt>
</event>
<event>
 5    1  0.2847672E-003  0.3000763E+02  0.7818608E-02  0.1619662E+00
         11   -1    0    0    0    0  0.00000000000E+00  0.00000000000E+00  0.10002560628E+04  0.10002560628E+04  0.51100000000E-03 0. -1.
          2   -1    0    0  501    0 -0.00000000000E+00 -0.00000000000E+00 -0.97041855823E+01  0.97041859174E+01  0.25500000000E-02 0. -1.
         11    1    1    2    0    0 -0.18009029318E+02 -0.41481962157E+02  0.23013793458E+03  0.23453901010E+03  0.51100000000E-03 0. -1.
         22    1    1    2    0    0 -0.61346626120E+01  0.25657074436E+02  0.16861488153E+02  0.31308614418E+02  0.00000000000E+00 0. -1.
          2    1    1    2  501    0  0.24143691930E+02  0.15824887721E+02  0.74355245444E+03  0.74411262416E+03  0.25500000000E-02 0. -1.
<mgrwt>
<rscale>  0 0.28135556E+02</rscale>
<asrwt>0</asrwt>
<pdfrwt beam="1">  1       11 0.10000000E+01 0.30007629E+02</pdfrwt>
<pdfrwt beam="2">  1        2 0.14933339E-02 0.28135556E+02</pdfrwt>
<totfact> 0.72812601E+03</totfact>
</mgrwt>
</event>
<event>
 5    1  0.2847672E-003  0.2144261E+03  0.7818608E-02  0.1365677E+00
         11   -1    0    0    0    0  0.00000000000E+00  0.00000000000E+00  0.10003485753E+04  0.10003485753E+04  0.51100000000E-03 0. -1.
         -2   -1    0    0    0  501 -0.00000000000E+00 -0.00000000000E+00 -0.10102024801E+03  0.10102024804E+03  0.25500000000E-02 0. -1.
         11    1    1    2    0    0 -0.11064110514E+03 -0.18825947905E+03  0.77868848924E+03  0.80872668367E+03  0.51100000000E-03 0. -1.
         22    1    1    2    0    0 -0.29274015325E+01  0.21611278295E+02 -0.32695903801E+02  0.39301897596E+02  0.00000000000E+00 0. -1.
         -2    1    1    2    0  501  0.11356850667E+03  0.16664820076E+03  0.15333574187E+03  0.25334024209E+03  0.25500000000E-02 0. -1.
<mgrwt>
<rscale>  0 0.68383785E+02</rscale>
<asrwt>0</asrwt>
<pdfrwt beam="1">  1       11 0.10000000E+01 0.21442606E+03</pdfrwt>
<pdfrwt beam="2">  1       -2 0.15546994E-01 0.68383785E+02</pdfrwt>
<totfact> 0.24319877E+02</totfact>
</mgrwt>
</event>
<event>
 5    1  0.2847672E-003  0.5454802E+03  0.7818608E-02  0.1218536E+00
         11   -1    0    0    0    0  0.00000000000E+00  0.00000000000E+00  0.99994281569E+03  0.99994281569E+03  0.51100000000E-03 0.  1.
          2   -1    0    0  501    0 -0.00000000000E+00 -0.00000000000E+00 -0.38002773127E+03  0.38002773128E+03  0.25500000000E-02 0.  1.
         11    1    1    2    0    0 -0.29426620064E+03 -0.46975246969E+03  0.55070836265E+03  0.78137038613E+03  0.51100000000E-03 0.  1.
         22    1    1    2    0    0  0.32671999855E+02  0.94363327110E+01 -0.45556860005E+02  0.56850078656E+02  0.00000000000E+00 0.  1.
          2    1    1    2  501    0  0.26159420079E+03  0.46031613697E+03  0.11476358177E+03  0.54175008219E+03  0.25500000000E-02 0.  1.
<mgrwt>
<rscale>  0 0.13619974E+03</rscale>
<asrwt>0</asrwt>
<pdfrwt beam="1">  1       11 0.10000000E+01 0.54548018E+03</pdfrwt>
<pdfrwt beam="2">  1        2 0.58462460E-01 0.13619974E+03</pdfrwt>
<totfact> 0.10537181E+02</totfact>
</mgrwt>
</event>
<event>
 5    1  0.2847672E-003  0.2516399E+02  0.7818608E-02  0.1658658E+00
         11   -1    0    0    0    0  0.00000000000E+00  0.00000000000E+00  0.10000777625E+04  0.10000777625E+04  0.51100000000E-03 0.  1.
          2   -1    0    0  501    0 -0.00000000000E+00 -0.00000000000E+00 -0.56613869374E+01  0.56613875117E+01  0.25500000000E-02 0.  1.
         11    1    1    2    0    0 -0.73644788812E+01  0.75850331017E+01  0.74370184155E+01  0.12925846956E+02  0.51100000000E-03 0.  1.
         22    1    1    2    0    0 -0.23939892685E+02 -0.67055080461E+01  0.55572206187E+02  0.60879819320E+02  0.00000000000E+00 0. -1.
          2    1    1    2  501    0  0.31304371566E+02 -0.87952505559E+00  0.93140715098E+03  0.93193348375E+03  0.25500000000E-02 0.  1.
<mgrwt>
<rscale>  0 0.25163987E+02</rscale>
<asrwt>0</asrwt>
<pdfrwt beam="1">  1       11 0.10000000E+01 0.10572057E+02</pdfrwt>
<pdfrwt beam="2">  1        2 0.87105036E-03 0.25163987E+02</pdfrwt>
<totfact> 0.14391330E+04</totfact>
</mgrwt>
</event>
<event>
 5    1  0.2847672E-003  0.8627939E+02  0.7818608E-02  0.1568795E+00
         11   -1    0    0    0    0  0.00000000000E+00  0.00000000000E+00  0.99992463848E+03  0.99992463848E+03  0.51100000000E-03 0.  1.
          2   -1    0    0  501    0 -0.00000000000E+00 -0.00000000000E+00 -0.10684247630E+02  0.10684247934E+02  0.25500000000E-02 0.  1.
         11    1    1    2    0    0 -0.56513063075E+02 -0.74609136130E+02  0.39451868253E+03  0.40546916080E+03  0.51100000000E-03 0.  1.
         22    1    1    2    0    0  0.11043244790E+02  0.58337393839E+01  0.14707416469E+02  0.19294918240E+02  0.00000000000E+00 0.  1.
          2    1    1    2  501    0  0.45469818285E+02  0.68775396747E+02  0.58001429185E+03  0.58584480738E+03  0.25500000000E-02 0.  1.
<mgrwt>
<rscale>  0 0.32826506E+02</rscale>
<asrwt>0</asrwt>
<pdfrwt beam="1">  1       11 0.10000000E+01 0.86279387E+02</pdfrwt>
<pdfrwt beam="2">  1        2 0.16436065E-02 0.32826506E+02</pdfrwt>
<totfact> 0.66103854E+03</totfact>
</mgrwt>
</event>
<event>
 5    1  0.2847672E-003  0.4036513E+02  0.7818608E-02  0.1528992E+00
         11   -1    0    0    0    0  0.00000000000E+00  0.00000000000E+00  0.10004599309E+04  0.10004599309E+04  0.51100000000E-03 0. -1.
         -2   -1    0    0    0  501 -0.00000000000E+00 -0.00000000000E+00 -0.30665835502E+01  0.30665846105E+01  0.25500000000E-02 0. -1.
         11    1    1    2    0    0 -0.10575272007E+02 -0.19554449987E+02  0.11619946346E+03  0.11830692373E+03  0.51100000000E-03 0. -1.
         22    1    1    2    0    0 -0.94378246290E+01 -0.11934184543E+02  0.34523962472E+02  0.37727990660E+02  0.00000000000E+00 0. -1.
         -2    1    1    2    0  501  0.20013096636E+02  0.31488634530E+02  0.84666992137E+03  0.84749160108E+03  0.25500000000E-02 0. -1.
<mgrwt>
<rscale>  0 0.37310295E+02</rscale>
<asrwt>0</asrwt>
<pdfrwt beam="1">  1       11 0.10000000E+01 0.40365126E+02</pdfrwt>
<pdfrwt beam="2">  1       -2 0.47199914E-03 0.37310295E+02</pdfrwt>
<totfact> 0.34603351E+04</totfact>
</mgrwt>
</event>
<event>
 5    1  0.2847672E-003  0.1663380E+03  0.7818608E-02  0.1423459E+00
         11   -1    0    0    0    0  0.00000000000E+00  0.00000000000E+00  0.10001936668E+04  0.10001936668E+04  0.51100000000E-03 0. -1.
          2   -1    0    0  501    0 -0.00000000000E+00 -0.00000000000E+00 -0.95782310564E+02  0.95782310598E+02  0.25500000000E-02 0. -1.
         11    1    1    2    0    0  0.13661876213E+03 -0.96254811934E+02  0.90272838536E+03  0.91806765149E+03  0.51100000000E-03 0. -1.
         22    1    1    2    0    0 -0.15972981270E+02 -0.76794977242E+01 -0.53466427574E+01  0.18512088071E+02  0.00000000000E+00 0. -1.
          2    1    1    2  501    0 -0.12064578086E+03  0.10393430966E+03  0.70296136449E+01  0.15939623784E+03  0.25500000000E-02 0. -1.
<mgrwt>
<rscale>  0 0.54295828E+02</rscale>
<asrwt>0</asrwt>
<pdfrwt beam="1">  1       11 0.10000000E+01 0.16633800E+03</pdfrwt>
<pdfrwt beam="2">  1        2 0.14738593E-01 0.54295828E+02</pdfrwt>
<totfact> 0.45632120E+02</totfact>
</mgrwt>
</event>
<event>
 5    1  0.2847672E-003  0.3864374E+02  0.7818608E-02  0.1625700E+00
         11   -1    0    0    0    0  0.00000000000E+00  0.00000000000E+00  0.10001960030E+04  0.10001960030E+04  0.51100000000E-03 0. -1.
          2   -1    0    0  501    0 -0.00000000000E+00 -0.00000000000E+00 -0.45205929332E+02  0.45205929404E+02  0.25500000000E-02 0. -1.
         11    1    1    2    0    0 -0.37965700353E+02 -0.81369124138E+01  0.16734425977E+03  0.17178971164E+03  0.51100000000E-03 0. -1.
         22    1    1    2    0    0  0.24012914385E+00  0.19773084161E+02 -0.40213293940E+02  0.44812292161E+02  0.00000000000E+00 0. -1.
          2    1    1    2  501    0  0.37725571209E+02 -0.11636171747E+02  0.82785910786E+03  0.82879992863E+03  0.25500000000E-02 0. -1.
<mgrwt>
<rscale>  0 0.27643477E+02</rscale>
<asrwt>0</asrwt>
<pdfrwt beam="1">  1       11 0.10000000E+01 0.38643737E+02</pdfrwt>
<pdfrwt beam="2">  1        2 0.69561213E-02 0.27643477E+02</pdfrwt>
<totfact> 0.10418810E+03</totfact>
</mgrwt>
</event>
<event>
 5    1  0.2847672E-003  0.3888488E+02  0.7818608E-02  0.1623271E+00
         11   -1    0    0    0    0  0.00000000000E+00  0.00000000000E+00  0.10002868932E+04  0.10002868932E+04  0.51100000000E-03 0. -1.
          2   -1    0    0  501    0 -0.00000000000E+00 -0.00000000000E+00 -0.43574897921E+01  0.43574905382E+01  0.25500000000E-02 0. -1.
         11    1    1    2    0    0  0.41188737876E+02  0.36835243463E+02  0.30624508951E+03  0.31119029891E+03  0.51100000000E-03 0. -1.
         22    1    1    2    0    0 -0.13240606187E+02 -0.14898956154E+02  0.70840607245E+02  0.73591332244E+02  0.00000000000E+00 0.  1.
          2    1    1    2  501    0 -0.27948131688E+02 -0.21936287309E+02  0.61884370664E+03  0.61986275256E+03  0.25500000000E-02 0. -1.
<mgrwt>
<rscale>  0 0.27839913E+02</rscale>
<asrwt>0</asrwt>
<pdfrwt beam="1">  1       11 0.10000000E+01 0.38884880E+02</pdfrwt>
<pdfrwt beam="2">  1        2 0.67057541E-03 0.27839913E+02</pdfrwt>
<totfact> 0.20781158E+04</totfact>
</mgrwt>
</event>
<event>
 5    1  0.2847672E-003  0.1251297E+03  0.7818608E-02  0.1234867E+00
         11   -1    0    0    0    0  0.00000000000E+00  0.00000000000E+00  0.10002185916E+04  0.10002185916E+04  0.51100000000E-03 0.  1.
         -2   -1    0    0    0  501 -0.00000000000E+00 -0.00000000000E+00 -0.28986616055E+02  0.28986616167E+02  0.25500000000E-02 0. -1.
         11    1    1    2    0    0  0.63246184212E+02  0.15467703220E+02  0.14039708457E+03  0.15476004335E+03  0.51100000000E-03 0.  1.
         22    1    1    2    0    0  0.57781060113E+02 -0.85816869968E+02  0.56099552412E+03  0.57045522538E+03  0.00000000000E+00 0.  1.
         -2    1    1    2    0  501 -0.12102724433E+03  0.70349166748E+02  0.26983936689E+03  0.30398993908E+03  0.25500000000E-02 0. -1.
<mgrwt>
<rscale>  0 0.12512974E+03</rscale>
<asrwt>0</asrwt>
<pdfrwt beam="1">  1       11 0.10000000E+01 0.65110167E+02</pdfrwt>
<pdfrwt beam="2">  1       -2 0.44604541E-02 0.12512974E+03</pdfrwt>
<totfact> 0.17395230E+03</totfact>
</mgrwt>
</event>
<event>
 5    1  0.2847672E-003  0.1471239E+03  0.7818608E-02  0.1204052E+00
         11   -1    0    0    0    0  0.00000000000E+00  0.00000000000E+00  0.10001578108E+04  0.10001578108E+04  0.51100000000E-03 0.  1.
          2   -1    0    0  501    0 -0.00000000000E+00 -0.00000000000E+00 -0.21328450717E+02  0.21328450869E+02  0.25500000000E-02 0.  1.
         11    1    1    2    0    0 -0.13023124517E+03 -0.43372957503E+02  0.58991291317E+03  0.60567205300E+03  0.51100000000E-03 0.  1.
         22    1    1    2    0    0  0.27454218539E+02  0.19131418612E+02  0.45174247604E+02  0.56217950339E+02  0.00000000000E+00 0.  1.
          2    1    1    2  501    0  0.10277702663E+03  0.24241538891E+02  0.34374219929E+03  0.35959625831E+03  0.25500000000E-02 0.  1.
<mgrwt>
<rscale>  0 0.14712394E+03</rscale>
<asrwt>0</asrwt>
<pdfrwt beam="1">  1       11 0.10000000E+01 0.13726395E+03</pdfrwt>
<pdfrwt beam="2">  1        2 0.32818179E-02 0.14712394E+03</pdfrwt>
<totfact> 0.32236725E+03</totfact>
</mgrwt>
</event>
<event>
 5    1  0.2847672E-003  0.1983562E+03  0.7818608E-02  0.1387459E+00
         11   -1    0    0    0    0  0.00000000000E+00  0.00000000000E+00  0.10003182550E+04  0.10003182550E+04  0.51100000000E-03 0. -1.
         -2   -1    0    0    0  501 -0.00000000000E+00 -0.00000000000E+00 -0.15583201120E+03  0.15583201122E+03  0.25500000000E-02 0.  1.
         11    1    1    2    0    0 -0.18532470152E+03  0.66365762434E+02  0.88641044224E+03  0.90800502836E+03  0.51100000000E-03 0. -1.
         22    1    1    2    0    0 -0.19565059359E+02 -0.24689540950E+01 -0.26414110660E+02  0.32963502909E+02  0.00000000000E+00 0. -1.
         -2    1    1    2    0  501  0.20488976088E+03 -0.63896808339E+02 -0.15510087776E+02  0.21518173496E+03  0.25500000000E-02 0.  1.
<mgrwt>
<rscale>  0 0.62543015E+02</rscale>
<asrwt>0</asrwt>
<pdfrwt beam="1">  1       11 0.10000000E+01 0.19835619E+03</pdfrwt>
<pdfrwt beam="2">  1       -2 0.23981785E-01 0.62543015E+02</pdfrwt>
<totfact> 0.11820201E+02</totfact>
</mgrwt>
</event>
<event>
 5    1  0.2847672E-003  0.9712437E+02  0.7818608E-02  0.1490646E+00
         11   -1    0    0    0    0  0.00000000000E+00  0.00000000000E+00  0.10003269785E+04  0.10003269785E+04  0.51100000000E-03 0. -1.
          2   -1    0    0  501    0 -0.00000000000E+00 -0.00000000000E+00 -0.18997052116E+02  0.18997052287E+02  0.25500000000E-02 0. -1.
         11    1    1    2    0    0 -0.38012235753E+02  0.97804379817E+02  0.46462227891E+03  0.47632393267E+03  0.51100000000E-03 0. -1.
         22    1    1    2    0    0 -0.67200948715E+01 -0.17331614898E+02  0.44735726089E+00  0.18594210889E+02  0.00000000000E+00 0. -1.
          2    1    1    2  501    0  0.44732330624E+02 -0.80472764919E+02  0.51626029017E+03  0.52440588718E+03  0.25500000000E-02 0. -1.
<mgrwt>
<rscale>  0 0.42490321E+02</rscale>
<asrwt>0</asrwt>
<pdfrwt beam="1">  1       11 0.10000000E+01 0.97124370E+02</pdfrwt>
<pdfrwt beam="2">  1        2 0.29235790E-02 0.42490321E+02</pdfrwt>
<totfact> 0.32523495E+03</totfact>
</mgrwt>
</event>
<event>
 5    1  0.2847672E-003  0.3808656E+02  0.7818608E-02  0.1536850E+00
         11   -1    0    0    0    0  0.00000000000E+00  0.00000000000E+00  0.10004508582E+04  0.10004508582E+04  0.51100000000E-03 0. -1.
          2   -1    0    0  501    0 -0.00000000000E+00 -0.00000000000E+00 -0.77634316270E+01  0.77634320458E+01  0.25500000000E-02 0. -1.
         11    1    1    2    0    0 -0.22938852288E+02 -0.14726398776E+02  0.29442074464E+02  0.40123478341E+02  0.51100000000E-03 0. -1.
         22    1    1    2    0    0 -0.34849482193E+01 -0.10249375473E+02  0.12041701486E+02  0.16192502474E+02  0.00000000000E+00 0.  1.
          2    1    1    2  501    0  0.26423800507E+02  0.24975774249E+02  0.95120365058E+03  0.95189830939E+03  0.25500000000E-02 0. -1.
<mgrwt>
<rscale>  0 0.36359408E+02</rscale>
<asrwt>0</asrwt>
<pdfrwt beam="1">  1       11 0.10000000E+01 0.38086560E+02</pdfrwt>
<pdfrwt beam="2">  1        2 0.11949126E-02 0.36359408E+02</pdfrwt>
<totfact> 0.10247148E+04</totfact>
</mgrwt>
</event>
<event>
 5    1  0.2847672E-003  0.3446009E+03  0.7818608E-02  0.1272499E+00
         11   -1    0    0    0    0  0.00000000000E+00  0.00000000000E+00  0.10003486453E+04  0.10003486453E+04  0.51100000000E-03 0. -1.
          2   -1    0    0  501    0 -0.00000000000E+00 -0.00000000000E+00 -0.20879233718E+03  0.20879233719E+03  0.25500000000E-02 0. -1.
         11    1    1    2    0    0 -0.21864471727E+03 -0.27648509558E+03  0.73739896136E+03  0.81731679823E+03  0.51100000000E-03 0. -1.
         22    1    1    2    0    0  0.18370389420E+02  0.25301619691E+02 -0.45733348720E+02  0.55400201729E+02  0.00000000000E+00 0. -1.
          2    1    1    2  501    0  0.20027432785E+03  0.25118347588E+03  0.99890695448E+02  0.33642398250E+03  0.25500000000E-02 0. -1.
<mgrwt>
<rscale>  0 0.10380142E+03</rscale>
<asrwt>0</asrwt>
<pdfrwt beam="1">  1       11 0.10000000E+01 0.34460091E+03</pdfrwt>
<pdfrwt beam="2">  1        2 0.32133096E-01 0.10380142E+03</pdfrwt>
<totfact> 0.19827120E+02</totfact>
</mgrwt>
</event>
<event>
 5    1  0.2847672E-003  0.1772789E+03  0.7818608E-02  0.1443511E+00
         11   -1    0    0    0    0  0.00000000000E+00  0.00000000000E+00  0.10000896546E+04  0.10000896546E+04  0.51100000000E-03 0. -1.
         -2   -1    0    0    0  501 -0.00000000000E+00 -0.00000000000E+00 -0.11185017012E+03  0.11185017015E+03  0.25500000000E-02 0.  1.
         11    1    1    2    0    0  0.15126892947E+03  0.90440622077E+02  0.88736285183E+03  0.90469587484E+03  0.51100000000E-03 0. -1.
         22    1    1    2    0    0  0.54848314603E+01  0.13201024952E+02 -0.12307890459E+02  0.18863578756E+02  0.00000000000E+00 0.  1.
         -2    1    1    2    0  501 -0.15675376093E+03 -0.10364164703E+03  0.13184523065E+02  0.18838037111E+03  0.25500000000E-02 0.  1.
<mgrwt>
<rscale>  0 0.50341069E+02</rscale>
<asrwt>0</asrwt>
<pdfrwt beam="1">  1       11 0.10000000E+01 0.17727891E+03</pdfrwt>
<pdfrwt beam="2">  1       -2 0.17209261E-01 0.50341069E+02</pdfrwt>
<totfact> 0.20291714E+02</totfact>
</mgrwt>
</event>
<event>
 5    1  0.2847672E-003  0.3785389E+02  0.7818608E-02  0.1605048E+00
         11   -1    0    0    0    0  0.00000000000E+00  0.00000000000E+00  0.10003107304E+04  0.10003107304E+04  0.51100000000E-03 0. -1.
          2   -1    0    0  501    0 -0.00000000000E+00 -0.00000000000E+00 -0.12484105043E+02  0.12484105303E+02  0.25500000000E-02 0. -1.
         11    1    1    2    0    0  0.14628109393E+02  0.17692877046E+02  0.31129561005E+01  0.23167001932E+02  0.51100000000E-03 0. -1.
         22    1    1    2    0    0  0.22067860875E+02 -0.57419244314E+01  0.61230667745E+02  0.65338769902E+02  0.00000000000E+00 0. -1.
          2    1    1    2  501    0 -0.36695970267E+02 -0.11950952614E+02  0.92348300155E+03  0.92428906391E+03  0.25500000000E-02 0. -1.
<mgrwt>
<rscale>  0 0.29379721E+02</rscale>
<asrwt>0</asrwt>
<pdfrwt beam="1">  1       11 0.10000000E+01 0.37853889E+02</pdfrwt>
<pdfrwt beam="2">  1        2 0.19212283E-02 0.29379721E+02</pdfrwt>
<totfact> 0.52901641E+03</totfact>
</mgrwt>
</event>
<event>
 5    1  0.2847672E-003  0.1640492E+03  0.7818608E-02  0.1380940E+00
         11   -1    0    0    0    0  0.00000000000E+00  0.00000000000E+00  0.10001465081E+04  0.10001465081E+04  0.51100000000E-03 0. -1.
          2   -1    0    0  501    0 -0.00000000000E+00 -0.00000000000E+00 -0.19370969456E+03  0.19370969457E+03  0.25500000000E-02 0. -1.
         11    1    1    2    0    0 -0.92463019978E+02 -0.13624041529E+03  0.94403418474E+03  0.95828565823E+03  0.51100000000E-03 0. -1.
         22    1    1    2    0    0 -0.74278275843E+01  0.24015587461E+02  0.79745463807E+01  0.26372608019E+02  0.00000000000E+00 0. -1.
          2    1    1    2  501    0  0.99890847562E+02  0.11222482783E+03 -0.14557191758E+03  0.20919793642E+03  0.25500000000E-02 0. -1.
<mgrwt>
<rscale>  0 0.64217403E+02</rscale>
<asrwt>0</asrwt>
<pdfrwt beam="1">  1       11 0.10000000E+01 0.16404918E+03</pdfrwt>
<pdfrwt beam="2">  1        2 0.29805857E-01 0.64217403E+02</pdfrwt>
<totfact> 0.21242078E+02</totfact>
</mgrwt>
</event>
<event>
 5    1  0.2847672E-003  0.1194691E+03  0.7818608E-02  0.1466435E+00
         11   -1    0    0    0    0  0.00000000000E+00  0.00000000000E+00  0.10002829926E+04  0.10002829926E+04  0.51100000000E-03 0.  1.
          2   -1    0    0  501    0 -0.00000000000E+00 -0.00000000000E+00 -0.25176480799E+02  0.25176480928E+02  0.25500000000E-02 0.  1.
         11    1    1    2    0    0  0.49986480094E+02 -0.11292714854E+03  0.73389586965E+03  0.74421390511E+03  0.51100000000E-03 0.  1.
         22    1    1    2    0    0 -0.16149412003E+02  0.78061933813E+01  0.23478685652E+01  0.18090125759E+02  0.00000000000E+00 0.  1.
          2    1    1    2  501    0 -0.33837068091E+02  0.10512095516E+03  0.23886277360E+03  0.26315544267E+03  0.25500000000E-02 0.  1.
<mgrwt>
<rscale>  0 0.46291811E+02</rscale>
<asrwt>0</asrwt>
<pdfrwt beam="1">  1       11 0.10000000E+01 0.11946913E+03</pdfrwt>
<pdfrwt beam="2">  1        2 0.38744008E-02 0.46291811E+02</pdfrwt>
<totfact> 0.22882507E+03</totfact>
</mgrwt>
</event>
<event>
 5    1  0.2847672E-003  0.1131081E+03  0.7818608E-02  0.1254920E+00
         11   -1    0    0    0    0  0.00000000000E+00  0.00000000000E+00  0.10003655183E+04  0.10003655183E+04  0.51100000000E-03 0. -1.
          2   -1    0    0  501    0 -0.00000000000E+00 -0.00000000000E+00 -0.13658646283E+02  0.13658646521E+02  0.25500000000E-02 0. -1.
         11    1    1    2    0    0 -0.33063727098E+01 -0.11017617079E+03  0.63741728070E+03  0.64687750807E+03  0.51100000000E-03 0. -1.
         22    1    1    2    0    0  0.71417174935E+01  0.29685784973E+02  0.67956217851E+02  0.74500318810E+02  0.00000000000E+00 0.  1.
          2    1    1    2  501    0 -0.38353447837E+01  0.80490385813E+02  0.28133337342E+03  0.29264633790E+03  0.25500000000E-02 0. -1.
<mgrwt>
<rscale>  0 0.11310813E+03</rscale>
<asrwt>0</asrwt>
<pdfrwt beam="1">  1       11 0.10000000E+01 0.11022577E+03</pdfrwt>
<pdfrwt beam="2">  1        2 0.21020982E-02 0.11310813E+03</pdfrwt>
<totfact> 0.57149778E+03</totfact>
</mgrwt>
</event>
<event>
 5    1  0.2847672E-003  0.8121285E+02  0.7818608E-02  0.1546230E+00
         11   -1    0    0    0    0  0.00000000000E+00  0.00000000000E+00  0.99972058572E+03  0.99972058572E+03  0.51100000000E-03 0.  1.
          2   -1    0    0  501    0 -0.00000000000E+00 -0.00000000000E+00 -0.12686936737E+02  0.12686936993E+02  0.25500000000E-02 0.  1.
         11    1    1    2    0    0  0.61681941530E+02 -0.61998523371E+02  0.24560843698E+03  0.26071437077E+03  0.51100000000E-03 0.  1.
         22    1    1    2    0    0  0.26801412074E+01  0.15079707460E+02  0.16917958225E+02  0.22821000077E+02  0.00000000000E+00 0.  1.
          2    1    1    2  501    0 -0.64362082737E+02  0.46918815910E+02  0.72450725378E+03  0.72887215186E+03  0.25500000000E-02 0.  1.
<mgrwt>
<rscale>  0 0.35268367E+02</rscale>
<asrwt>0</asrwt>
<pdfrwt beam="1">  1       11 0.10000000E+01 0.81212851E+02</pdfrwt>
<pdfrwt beam="2">  1        2 0.19512910E-02 0.35268367E+02</pdfrwt>
<totfact> 0.53487728E+03</totfact>
</mgrwt>
</event>
<event>
 5    1  0.2847672E-003  0.1893503E+03  0.7818608E-02  0.1337896E+00
         11   -1    0    0    0    0  0.00000000000E+00  0.00000000000E+00  0.10005716961E+04  0.10005716961E+04  0.51100000000E-03 0.  1.
          2   -1    0    0  501    0 -0.00000000000E+00 -0.00000000000E+00 -0.12363972032E+03  0.12363972035E+03  0.25500000000E-02 0. -1.
         11    1    1    2    0    0  0.15523557514E+03 -0.11057296596E+03  0.88719071022E+03  0.90743144143E+03  0.51100000000E-03 0.  1.
         22    1    1    2    0    0  0.45932247689E+01  0.30943778576E+02  0.17845888967E+02  0.36015148193E+02  0.00000000000E+00 0. -1.
          2    1    1    2  501    0 -0.15982879991E+03  0.79629187383E+02 -0.28104623379E+02  0.18076482685E+03  0.25500000000E-02 0. -1.
<mgrwt>
<rscale>  0 0.76963707E+02</rscale>
<asrwt>0</asrwt>
<pdfrwt beam="1">  1       11 0.10000000E+01 0.18935030E+03</pdfrwt>
<pdfrwt beam="2">  1        2 0.19032369E-01 0.76963707E+02</pdfrwt>
<totfact> 0.34787830E+02</totfact>
</mgrwt>
</event>
<event>
 5    1  0.2847672E-003  0.4429292E+03  0.7818608E-02  0.1029852E+00
         11   -1    0    0    0    0  0.00000000000E+00  0.00000000000E+00  0.99998662150E+03  0.99998662150E+03  0.51100000000E-03 0. -1.
          2   -1    0    0  501    0 -0.00000000000E+00 -0.00000000000E+00 -0.40396060120E+03  0.40396060121E+03  0.25500000000E-02 0. -1.
         11    1    1    2    0    0 -0.18800204199E+03  0.39150307917E+03  0.80462734590E+03  0.91435474218E+03  0.51100000000E-03 0. -1.
         22    1    1    2    0    0  0.16919480732E+02 -0.14173432347E+02 -0.32797383466E+02  0.39532560946E+02  0.00000000000E+00 0. -1.
          2    1    1    2  501    0  0.17108256126E+03 -0.37732964682E+03 -0.17580394214E+03  0.45005991958E+03  0.25500000000E-02 0. -1.
<mgrwt>
<rscale>  0 0.44292921E+03</rscale>
<asrwt>0</asrwt>
<pdfrwt beam="1">  1       11 0.10000000E+01 0.43430338E+03</pdfrwt>
<pdfrwt beam="2">  1        2 0.62146952E-01 0.44292921E+03</pdfrwt>
<totfact> 0.97786013E+01</totfact>
</mgrwt>
</event>
<event>
 5    1  0.2847672E-003  0.1989642E+02  0.7818608E-02  0.1873218E+00
         11   -1    0    0    0    0  0.00000000000E+00  0.00000000000E+00  0.10000111955E+04  0.10000111955E+04  0.51100000000E-03 0.  1.
          2   -1    0    0  501    0 -0.00000000000E+00 -0.00000000000E+00 -0.39307650653E+01  0.39307658925E+01  0.25500000000E-02 0.  1.
         11    1    1    2    0    0  0.13426819555E+02  0.21131320741E+01  0.67719403463E+02  0.69069982020E+02  0.51100000000E-03 0.  1.
         22    1    1    2    0    0  0.68111893579E+01 -0.87109148951E+01  0.66254665578E+01  0.12890661189E+02  0.00000000000E+00 0.  1.
          2    1    1    2  501    0 -0.20238008912E+02  0.65977828210E+01  0.92173556044E+03  0.92198131822E+03  0.25500000000E-02 0.  1.
<mgrwt>
<rscale>  0 0.14832671E+02</rscale>
<asrwt>0</asrwt>
<pdfrwt beam="1">  1       11 0.10000000E+01 0.19896416E+02</pdfrwt>
<pdfrwt beam="2">  1        2 0.60473990E-03 0.14832671E+02</pdfrwt>
<totfact> 0.20188559E+04</totfact>
</mgrwt>
</event>
<event>
 5    1  0.2847672E-003  0.3304023E+02  0.7818608E-02  0.1700604E+00
         11   -1    0    0    0    0  0.00000000000E+00  0.00000000000E+00  0.10004867993E+04  0.10004867993E+04  0.51100000000E-03 0. -1.
         -2   -1    0    0    0  501 -0.00000000000E+00 -0.00000000000E+00 -0.52078499756E+01  0.52078505999E+01  0.25500000000E-02 0. -1.
         11    1    1    2    0    0 -0.77519228431E+01  0.21265562835E+02  0.89555175162E+02  0.92371239404E+02  0.51100000000E-03 0. -1.
         22    1    1    2    0    0  0.47606762785E+01  0.14490595987E+02  0.13471614796E+02  0.20350081471E+02  0.00000000000E+00 0. -1.
         -2    1    1    2    0  501  0.29912465646E+01 -0.35756158821E+02  0.89225215941E+03  0.89297332907E+03  0.25500000000E-02 0. -1.
<mgrwt>
<rscale>  0 0.22448803E+02</rscale>
<asrwt>0</asrwt>
<pdfrwt beam="1">  1       11 0.10000000E+01 0.33040232E+02</pdfrwt>
<pdfrwt beam="2">  1       -2 0.80159774E-03 0.22448803E+02</pdfrwt>
<totfact> 0.14936474E+04</totfact>
</mgrwt>
</event>
<event>
 5    1  0.2847672E-003  0.1908488E+03  0.7818608E-02  0.1348808E+00
         11   -1    0    0    0    0  0.00000000000E+00  0.00000000000E+00  0.10000922265E+04  0.10000922265E+04  0.51100000000E-03 0. -1.
          2   -1    0    0  501    0 -0.00000000000E+00 -0.00000000000E+00 -0.13993952268E+03  0.13993952270E+03  0.25500000000E-02 0. -1.
         11    1    1    2    0    0  0.46486537171E+02 -0.18592003800E+03  0.86652245355E+03  0.88746178575E+03  0.51100000000E-03 0. -1.
         22    1    1    2    0    0  0.25049472765E+02  0.13063653773E+02 -0.52743973117E+02  0.59833617941E+02  0.00000000000E+00 0.  1.
          2    1    1    2  501    0 -0.71536009937E+02  0.17285638423E+03  0.46374223414E+02  0.19273634554E+03  0.25500000000E-02 0. -1.
<mgrwt>
<rscale>  0 0.73428365E+02</rscale>
<asrwt>0</asrwt>
<pdfrwt beam="1">  1       11 0.10000000E+01 0.19084883E+03</pdfrwt>
<pdfrwt beam="2">  1        2 0.21531142E-01 0.73428365E+02</pdfrwt>
<totfact> 0.30286930E+02</totfact>
</mgrwt>
</event>
<event>
 5    1  0.2847672E-003  0.9771414E+02  0.7818608E-02  0.1526196E+00
         11   -1    0    0    0    0  0.00000000000E+00  0.00000000000E+00  0.10000264363E+04  0.10000264363E+04  0.51100000000E-03 0.  1.
          2   -1    0    0  501    0 -0.00000000000E+00 -0.00000000000E+00 -0.14611858426E+02  0.14611858649E+02  0.25500000000E-02 0.  1.
         11    1    1    2    0    0  0.86909817186E+02 -0.43939070504E+02  0.50983403525E+03  0.51905173320E+03  0.51100000000E-03 0.  1.
         22    1    1    2    0    0 -0.63840623692E+01 -0.13032651687E+02  0.59104182287E+01  0.15669693869E+02  0.00000000000E+00 0.  1.
          2    1    1    2  501    0 -0.80525754817E+02  0.56971722191E+02  0.46967012441E+03  0.47991686789E+03  0.25500000000E-02 0.  1.
<mgrwt>
<rscale>  0 0.37657070E+02</rscale>
<asrwt>0</asrwt>
<pdfrwt beam="1">  1       11 0.10000000E+01 0.97714141E+02</pdfrwt>
<pdfrwt beam="2">  1        2 0.22480376E-02 0.37657070E+02</pdfrwt>
<totfact> 0.44942766E+03</totfact>
</mgrwt>
</event>
<event>
 5    1  0.2847672E-003  0.1443583E+03  0.7818608E-02  0.1328536E+00
         11   -1    0    0    0    0  0.00000000000E+00  0.00000000000E+00  0.10001536011E+04  0.10001536011E+04  0.51100000000E-03 0. -1.
          2   -1    0    0  501    0 -0.00000000000E+00 -0.00000000000E+00 -0.59116371801E+02  0.59116371856E+02  0.25500000000E-02 0. -1.
         11    1    1    2    0    0  0.19241505016E+03 -0.29281017242E+02  0.23016457326E+03  0.30142438568E+03  0.51100000000E-03 0. -1.
         22    1    1    2    0    0 -0.11228282781E+03  0.26462469101E+02  0.14016170915E+03  0.18152961303E+03  0.00000000000E+00 0.  1.
          2    1    1    2  501    0 -0.80132222350E+02  0.28185481408E+01  0.57071094692E+03  0.57631597428E+03  0.25500000000E-02 0. -1.
<mgrwt>
<rscale>  0 0.80181776E+02</rscale>
<asrwt>0</asrwt>
<pdfrwt beam="1">  1       11 0.10000000E+01 0.14435832E+03</pdfrwt>
<pdfrwt beam="2">  1        2 0.90962232E-02 0.80181776E+02</pdfrwt>
<totfact> 0.82636813E+02</totfact>
</mgrwt>
</event>
<event>
 5    1  0.2847672E-003  0.2090933E+03  0.7818608E-02  0.1189996E+00
         11   -1    0    0    0    0  0.00000000000E+00  0.00000000000E+00  0.10003881422E+04  0.10003881422E+04  0.51100000000E-03 0. -1.
          2   -1    0    0  501    0 -0.00000000000E+00 -0.00000000000E+00 -0.94053586002E+02  0.94053586037E+02  0.25500000000E-02 0. -1.
         11    1    1    2    0    0 -0.18036970659E+03  0.10506317765E+02  0.33855343817E+03  0.38374737037E+03  0.51100000000E-03 0. -1.
         22    1    1    2    0    0 -0.48394069643E+02  0.11055904948E+03  0.47703930647E+02  0.12977270282E+03  0.00000000000E+00 0. -1.
          2    1    1    2  501    0  0.22876377623E+03 -0.12106536724E+03  0.52007718737E+03  0.58092165504E+03  0.25500000000E-02 0. -1.
<mgrwt>
<rscale>  0 0.15885463E+03</rscale>
<asrwt>0</asrwt>
<pdfrwt beam="1">  1       11 0.10000000E+01 0.20909335E+03</pdfrwt>
<pdfrwt beam="2">  1        2 0.14475398E-01 0.15885463E+03</pdfrwt>
<totfact> 0.49105233E+02</totfact>
</mgrwt>
</event>
<event>
 5    1  0.2847672E-003  0.2568698E+02  0.7818608E-02  0.1651326E+00
         11   -1    0    0    0    0  0.00000000000E+00  0.00000000000E+00  0.10003788627E+04  0.10003788627E+04  0.51100000000E-03 0.  1.
         -2   -1    0    0    0  501 -0.00000000000E+00 -0.00000000000E+00 -0.56833017676E+01  0.56833023396E+01  0.25500000000E-02 0.  1.
         11    1    1    2    0    0 -0.88629507636E+01  0.78214218992E+01  0.50433681350E+02  0.51800412658E+02  0.51100000000E-03 0.  1.
         22    1    1    2    0    0 -0.24618018544E+02  0.58652617057E+01  0.29846762437E+02  0.39131539196E+02  0.00000000000E+00 0.  1.
         -2    1    1    2    0  501  0.33480969308E+02 -0.13686683605E+02  0.91441511713E+03  0.91513021317E+03  0.25500000000E-02 0.  1.
<mgrwt>
<rscale>  0 0.25686977E+02</rscale>
<asrwt>0</asrwt>
<pdfrwt beam="1">  1       11 0.10000000E+01 0.11820604E+02</pdfrwt>
<pdfrwt beam="2">  1       -2 0.87468540E-03 0.25686977E+02</pdfrwt>
<totfact> 0.13708097E+04</totfact>
</mgrwt>
</event>
<event>
 5    1  0.2847672E-003  0.1912880E+03  0.7818608E-02  0.1414693E+00
         11   -1    0    0    0    0  0.00000000000E+00  0.00000000000E+00  0.10003009070E+04  0.10003009070E+04  0.51100000000E-03 0.  1.
          2   -1    0    0  501    0 -0.00000000000E+00 -0.00000000000E+00 -0.22651126226E+03  0.22651126228E+03  0.25500000000E-02 0.  1.
         11    1    1    2    0    0 -0.15728196148E+03 -0.10865610852E+03  0.93888811387E+03  0.95815168720E+03  0.51100000000E-03 0.  1.
         22    1    1    2    0    0  0.71401547474E+01 -0.14861442710E+02 -0.20801145175E+02  0.26543020359E+02  0.00000000000E+00 0.  1.
          2    1    1    2  501    0  0.15014180673E+03  0.12351755123E+03 -0.14429732392E+03  0.24211746176E+03  0.25500000000E-02 0.  1.
<mgrwt>
<rscale>  0 0.56159582E+02</rscale>
<asrwt>0</asrwt>
<pdfrwt beam="1">  1       11 0.10000000E+01 0.19128795E+03</pdfrwt>
<pdfrwt beam="2">  1        2 0.34858371E-01 0.56159582E+02</pdfrwt>
<totfact> 0.17968817E+02</totfact>
</mgrwt>
</event>
<event>
 5    1  0.2847672E-003  0.1373910E+03  0.7818608E-02  0.1414743E+00
         11   -1    0    0    0    0  0.00000000000E+00  0.00000000000E+00  0.10003936431E+04  0.10003936431E+04  0.51100000000E-03 0. -1.
          2   -1    0    0  501    0 -0.00000000000E+00 -0.00000000000E+00 -0.45990986501E+02  0.45990986572E+02  0.25500000000E-02 0. -1.
         11    1    1    2    0    0  0.11747617929E+02 -0.13731428392E+03  0.83273662465E+03  0.84406368547E+03  0.51100000000E-03 0. -1.
         22    1    1    2    0    0  0.22389527055E+02  0.50264196789E+01  0.70968717020E+01  0.24019188257E+02  0.00000000000E+00 0. -1.
          2    1    1    2  501    0 -0.34137144984E+02  0.13228786424E+03  0.11456916029E+03  0.17830175599E+03  0.25500000000E-02 0. -1.
<mgrwt>
<rscale>  0 0.56148767E+02</rscale>
<asrwt>0</asrwt>
<pdfrwt beam="1">  1       11 0.10000000E+01 0.13739098E+03</pdfrwt>
<pdfrwt beam="2">  1        2 0.70783214E-02 0.56148767E+02</pdfrwt>
<totfact> 0.10932361E+03</totfact>
</mgrwt>
</event>
<event>
 5    1  0.2847672E-003  0.1340186E+03  0.7818608E-02  0.1498862E+00
         11   -1    0    0    0    0  0.00000000000E+00  0.00000000000E+00  0.10002855550E+04  0.10002855550E+04  0.51100000000E-03 0. -1.
          2   -1    0    0  501    0 -0.00000000000E+00 -0.00000000000E+00 -0.22761673619E+02  0.22761673762E+02  0.25500000000E-02 0. -1.
         11    1    1    2    0    0  0.64017009620E+02  0.11610694633E+03  0.63830929912E+03  0.65193386310E+03  0.51100000000E-03 0. -1.
         22    1    1    2    0    0  0.12580627186E+02 -0.19237472350E+01  0.35918652204E+02  0.38106725915E+02  0.00000000000E+00 0.  1.
          2    1    1    2  501    0 -0.76597636806E+02 -0.11418319910E+03  0.30329593001E+03  0.33300663970E+03  0.25500000000E-02 0. -1.
<mgrwt>
<rscale>  0 0.41299344E+02</rscale>
<asrwt>0</asrwt>
<pdfrwt beam="1">  1       11 0.10000000E+01 0.13401858E+03</pdfrwt>
<pdfrwt beam="2">  1        2 0.35027958E-02 0.41299344E+02</pdfrwt>
<totfact> 0.25667630E+03</totfact>
</mgrwt>
</event>
<event>
 5    1  0.2847672E-003  0.1696597E+03  0.7818608E-02  0.1447580E+00
         11   -1    0    0    0    0  0.00000000000E+00  0.00000000000E+00  0.10002754757E+04  0.10002754757E+04  0.51100000000E-03 0.  1.
          2   -1    0    0  501    0 -0.00000000000E+00 -0.00000000000E+00 -0.17899467761E+03  0.17899467762E+03  0.25500000000E-02 0. -1.
         11    1    1    2    0    0 -0.41840788691E+02  0.16378823836E+03  0.93364681133E+03  0.94882749061E+03  0.51100000000E-03 0.  1.
         22    1    1    2    0    0  0.45399341287E+01  0.13763788326E+02 -0.25409848442E+02  0.29252577131E+02  0.00000000000E+00 0.  1.
          2    1    1    2  501    0  0.37300854563E+02 -0.17755202668E+03 -0.86956164806E+02  0.20119008558E+03  0.25500000000E-02 0. -1.
<mgrwt>
<rscale>  0 0.49587413E+02</rscale>
<asrwt>0</asrwt>
<pdfrwt beam="1">  1       11 0.10000000E+01 0.16965966E+03</pdfrwt>
<pdfrwt beam="2">  1        2 0.27545228E-01 0.49587413E+02</pdfrwt>
<totfact> 0.22909008E+02</totfact>
</mgrwt>
</event>
<event>
 5    1  0.2847672E-003  0.8644667E+02  0.7818608E-02  0.1551139E+00
         11   -1    0    0    0    0  0.00000000000E+00  0.00000000000E+00  0.99986899564E+03  0.99986899564E+03  0.51100000000E-03 0. -1.
          2   -1    0    0  501    0 -0.00000000000E+00 -0.00000000000E+00 -0.96164364340E+01  0.96164367721E+01  0.25500000000E-02 0. -1.
         11    1    1    2    0    0 -0.42391913139E+02  0.83061826582E+02  0.56369668277E+03  0.57135828645E+03  0.51100000000E-03 0. -1.
         22    1    1    2    0    0  0.83638011997E+01 -0.11153839741E+02  0.23740011052E+02  0.27530881501E+02  0.00000000000E+00 0. -1.
          2    1    1    2  501    0  0.34028111940E+02 -0.71907986841E+02  0.40281586539E+03  0.41059626446E+03  0.25500000000E-02 0. -1.
<mgrwt>
<rscale>  0 0.34715752E+02</rscale>
<asrwt>0</asrwt>
<pdfrwt beam="1">  1       11 0.10000000E+01 0.86446665E+02</pdfrwt>
<pdfrwt beam="2">  1        2 0.14792579E-02 0.34715752E+02</pdfrwt>
<totfact> 0.76667475E+03</totfact>
</mgrwt>
</event>
<event>
 5    1  0.2847672E-003  0.2144234E+03  0.7818608E-02  0.1374777E+00
         11   -1    0    0    0    0  0.00000000000E+00  0.00000000000E+00  0.10000904312E+04  0.10000904312E+04  0.51100000000E-03 0.  1.
          2   -1    0    0  501    0 -0.00000000000E+00 -0.00000000000E+00 -0.13468735474E+03  0.13468735476E+03  0.25500000000E-02 0.  1.
         11    1    1    2    0    0 -0.88619591243E+02  0.19881252957E+03  0.84743501607E+03  0.87494340407E+03  0.51100000000E-03 0.  1.
         22    1    1    2    0    0  0.10383985839E+02 -0.17358073062E+02 -0.47534206662E+02  0.51658790785E+02  0.00000000000E+00 0.  1.
          2    1    1    2  501    0  0.78235605404E+02 -0.18145445650E+03  0.65502267055E+02  0.20817559111E+03  0.25500000000E-02 0.  1.
<mgrwt>
<rscale>  0 0.65856918E+02</rscale>
<asrwt>0</asrwt>
<pdfrwt beam="1">  1       11 0.10000000E+01 0.21442342E+03</pdfrwt>
<pdfrwt beam="2">  1        2 0.20723005E-01 0.65856918E+02</pdfrwt>
<totfact> 0.31454485E+02</totfact>
</mgrwt>
</event>
<event>
 5    1  0.2847672E-003  0.1822492E+03  0.7818608E-02  0.1283941E+00
         11   -1    0    0    0    0  0.00000000000E+00  0.00000000000E+00  0.10001473597E+04  0.10001473597E+04  0.51100000000E-03 0. -1.
          2   -1    0    0  501    0 -0.00000000000E+00 -0.00000000000E+00 -0.84013412211E+02  0.84013412250E+02  0.25500000000E-02 0. -1.
         11    1    1    2    0    0 -0.16313543508E+03 -0.92676051295E+02  0.81282022038E+03  0.83419346157E+03  0.51100000000E-03 0. -1.
         22    1    1    2    0    0  0.47061655623E+02 -0.24388989655E+02 -0.41668409171E+01  0.53169397304E+02  0.00000000000E+00 0. -1.
          2    1    1    2  501    0  0.11607377946E+03  0.11706504095E+03  0.10748056806E+03  0.19679791312E+03  0.25500000000E-02 0. -1.
<mgrwt>
<rscale>  0 0.98286717E+02</rscale>
<asrwt>0</asrwt>
<pdfrwt beam="1">  1       11 0.10000000E+01 0.18224922E+03</pdfrwt>
<pdfrwt beam="2">  1        2 0.12927045E-01 0.98286717E+02</pdfrwt>
<totfact> 0.54872237E+02</totfact>
</mgrwt>
</event>
<event>
 5    1  0.2847672E-003  0.8929889E+02  0.7818608E-02  0.1370125E+00
         11   -1    0    0    0    0  0.00000000000E+00  0.00000000000E+00  0.99997009346E+03  0.99997009346E+03  0.51100000000E-03 0. -1.
          2   -1    0    0  501    0 -0.00000000000E+00 -0.00000000000E+00 -0.25650327928E+02  0.25650328055E+02  0.25500000000E-02 0. -1.
         11    1    1    2    0    0 -0.12027950182E+02  0.84738487341E+02  0.49554293953E+03  0.50287979452E+03  0.51100000000E-03 0. -1.
         22    1    1    2    0    0 -0.50363735111E+02 -0.32463745041E+01  0.22841939919E+02  0.55396741610E+02  0.00000000000E+00 0. -1.
          2    1    1    2  501    0  0.62391685293E+02 -0.81492112836E+02  0.45593488609E+03  0.46734388539E+03  0.25500000000E-02 0. -1.
<mgrwt>
<rscale>  0 0.67132401E+02</rscale>
<asrwt>0</asrwt>
<pdfrwt beam="1">  1       11 0.10000000E+01 0.89298892E+02</pdfrwt>
<pdfrwt beam="2">  1        2 0.39460862E-02 0.67132401E+02</pdfrwt>
<totfact> 0.23324356E+03</totfact>
</mgrwt>
</event>
<event>
 5    1  0.2847672E-003  0.4013525E+02  0.7818608E-02  0.1507219E+00
         11   -1    0    0    0    0  0.00000000000E+00  0.00000000000E+00  0.10001111809E+04  0.10001111809E+04  0.51100000000E-03 0.  1.
          2   -1    0    0  501    0 -0.00000000000E+00 -0.00000000000E+00 -0.10957149198E+02  0.10957149494E+02  0.25500000000E-02 0.  1.
         11    1    1    2    0    0  0.38977811586E+02 -0.16357218001E+01  0.66676361605E+02  0.77250777207E+02  0.51100000000E-03 0.  1.
         22    1    1    2    0    0 -0.18502671822E+02 -0.37091853161E+02  0.79097587278E+02  0.89300519308E+02  0.00000000000E+00 0.  1.
          2    1    1    2  501    0 -0.20475139765E+02  0.38727574961E+02  0.84338008282E+03  0.84451703389E+03  0.25500000000E-02 0.  1.
<mgrwt>
<rscale>  0 0.40135246E+02</rscale>
<asrwt>0</asrwt>
<pdfrwt beam="1">  1       11 0.10000000E+01 0.39012138E+02</pdfrwt>
<pdfrwt beam="2">  1        2 0.16859027E-02 0.40135246E+02</pdfrwt>
<totfact> 0.66201502E+03</totfact>
</mgrwt>
</event>
<event>
 5    1  0.2847672E-003  0.1873109E+03  0.7818608E-02  0.1175335E+00
         11   -1    0    0    0    0  0.00000000000E+00  0.00000000000E+00  0.10002894477E+04  0.10002894477E+04  0.51100000000E-03 0. -1.
          2   -1    0    0  501    0 -0.00000000000E+00 -0.00000000000E+00 -0.40164207549E+03  0.40164207550E+03  0.25500000000E-02 0. -1.
         11    1    1    2    0    0  0.38719279115E+02 -0.19539962100E+03  0.83193422293E+03  0.85545002528E+03  0.51100000000E-03 0. -1.
         22    1    1    2    0    0 -0.14985897020E+03  0.52336360733E+02 -0.31114681570E+03  0.34929807690E+03  0.00000000000E+00 0. -1.
          2    1    1    2  501    0  0.11113969109E+03  0.14306326027E+03  0.77859964976E+02  0.19718342102E+03  0.25500000000E-02 0. -1.
<mgrwt>
<rscale>  0 0.17243203E+03</rscale>
<asrwt>0</asrwt>
<pdfrwt beam="1">  1       11 0.10000000E+01 0.18731094E+03</pdfrwt>
<pdfrwt beam="2">  1        2 0.61808972E-01 0.17243203E+03</pdfrwt>
<totfact> 0.99143978E+01</totfact>
</mgrwt>
</event>
<event>
 5    1  0.2847672E-003  0.9398390E+02  0.7818608E-02  0.1364062E+00
         11   -1    0    0    0    0  0.00000000000E+00  0.00000000000E+00  0.10004050953E+04  0.10004050953E+04  0.51100000000E-03 0. -1.
         -2   -1    0    0    0  501 -0.00000000000E+00 -0.00000000000E+00 -0.27836582463E+02  0.27836582580E+02  0.25500000000E-02 0.  1.
         11    1    1    2    0    0  0.10383896224E+02  0.67582371335E+02  0.13528364611E+03  0.15158122285E+03  0.51100000000E-03 0. -1.
         22    1    1    2    0    0 -0.35217977772E+02  0.36097528668E+02  0.23004703253E+02  0.55430622458E+02  0.00000000000E+00 0.  1.
         -2    1    1    2    0  501  0.24834081549E+02 -0.10367990000E+03  0.81428016350E+03  0.82122983259E+03  0.25500000000E-02 0.  1.
<mgrwt>
<rscale>  0 0.68845828E+02</rscale>
<asrwt>0</asrwt>
<pdfrwt beam="1">  1       11 0.10000000E+01 0.93983903E+02</pdfrwt>
<pdfrwt beam="2">  1       -2 0.42842859E-02 0.68845828E+02</pdfrwt>
<totfact> 0.17369579E+03</totfact>
</mgrwt>
</event>
<event>
 5    1  0.2847672E-003  0.8894603E+02  0.7818608E-02  0.1484188E+00
         11   -1    0    0    0    0  0.00000000000E+00  0.00000000000E+00  0.10000492593E+04  0.10000492593E+04  0.51100000000E-03 0. -1.
          2   -1    0    0  501    0 -0.00000000000E+00 -0.00000000000E+00 -0.27621166711E+02  0.27621166829E+02  0.25500000000E-02 0. -1.
         11    1    1    2    0    0  0.43838180675E+02  0.92200360572E+02  0.46528950970E+03  0.47635808003E+03  0.51100000000E-03 0. -1.
         22    1    1    2    0    0 -0.12986590083E+02 -0.16801568559E+02 -0.12956209281E+02  0.24875843442E+02  0.00000000000E+00 0.  1.
          2    1    1    2  501    0 -0.30851590592E+02 -0.75398792012E+02  0.52009479219E+03  0.52643650268E+03  0.25500000000E-02 0. -1.
<mgrwt>
<rscale>  0 0.43460416E+02</rscale>
<asrwt>0</asrwt>
<pdfrwt beam="1">  1       11 0.10000000E+01 0.88946026E+02</pdfrwt>
<pdfrwt beam="2">  1        2 0.42496195E-02 0.43460416E+02</pdfrwt>
<totfact> 0.20185631E+03</totfact>
</mgrwt>
</event>
<event>
 5    1  0.2847672E-003  0.1343562E+03  0.7818608E-02  0.1364148E+00
         11   -1    0    0    0    0  0.00000000000E+00  0.00000000000E+00  0.10001236900E+04  0.10001236900E+04  0.51100000000E-03 0. -1.
          2   -1    0    0  501    0 -0.00000000000E+00 -0.00000000000E+00 -0.31103948945E+02  0.31103949050E+02  0.25500000000E-02 0. -1.
         11    1    1    2    0    0  0.14586650108E+03 -0.25001045668E+02  0.67572631067E+03  0.69174282458E+03  0.51100000000E-03 0. -1.
         22    1    1    2    0    0 -0.34798379173E+02 -0.56379218172E+01  0.15050844079E+02  0.38330683049E+02  0.00000000000E+00 0. -1.
          2    1    1    2  501    0 -0.11106812191E+03  0.30638967485E+02  0.27824258627E+03  0.30115413139E+03  0.25500000000E-02 0. -1.
<mgrwt>
<rscale>  0 0.68821096E+02</rscale>
<asrwt>0</asrwt>
<pdfrwt beam="1">  1       11 0.10000000E+01 0.13435619E+03</pdfrwt>
<pdfrwt beam="2">  1        2 0.47858147E-02 0.68821096E+02</pdfrwt>
<totfact> 0.18235675E+03</totfact>
</mgrwt>
</event>
<event>
 5    1  0.2847672E-003  0.3488994E+02  0.7818608E-02  0.1615547E+00
         11   -1    0    0    0    0  0.00000000000E+00  0.00000000000E+00  0.10001380998E+04  0.10001380998E+04  0.51100000000E-03 0. -1.
          2   -1    0    0  501    0 -0.00000000000E+00 -0.00000000000E+00 -0.27889182251E+02  0.27889182367E+02  0.25500000000E-02 0. -1.
         11    1    1    2    0    0 -0.97457967350E+00  0.27657214345E+02  0.33157117397E+02  0.43188722431E+02  0.51100000000E-03 0. -1.
         22    1    1    2    0    0  0.23241667369E+02  0.36913345107E+00 -0.16545044972E+02  0.28531559276E+02  0.00000000000E+00 0. -1.
          2    1    1    2  501    0 -0.22267087695E+02 -0.28026347796E+02  0.95563684516E+03  0.95630700050E+03  0.25500000000E-02 0. -1.
<mgrwt>
<rscale>  0 0.28478101E+02</rscale>
<asrwt>0</asrwt>
<pdfrwt beam="1">  1       11 0.10000000E+01 0.34889939E+02</pdfrwt>
<pdfrwt beam="2">  1        2 0.42912358E-02 0.28478101E+02</pdfrwt>
<totfact> 0.18905033E+03</totfact>
</mgrwt>
</event>
<event>
 5    1  0.2847672E-003  0.7210256E+02  0.7818608E-02  0.1441646E+00
         11   -1    0    0    0    0  0.00000000000E+00  0.00000000000E+00  0.10001833608E+04  0.10001833608E+04  0.51100000000E-03 0. -1.
         -2   -1    0    0    0  501 -0.00000000000E+00 -0.00000000000E+00 -0.10180126272E+02  0.10180126591E+02  0.25500000000E-02 0.  1.
         11    1    1    2    0    0  0.43234183586E+02 -0.39658663803E+02  0.34957752362E+03  0.35446642897E+03  0.51100000000E-03 0. -1.
         22    1    1    2    0    0  0.31531399460E+02 -0.16609897549E+02  0.78206706133E+02  0.85944207092E+02  0.00000000000E+00 0. -1.
         -2    1    1    2    0  501 -0.74765583045E+02  0.56268561352E+02  0.56221900480E+03  0.56995285136E+03  0.25500000000E-02 0.  1.
<mgrwt>
<rscale>  0 0.50691641E+02</rscale>
<asrwt>0</asrwt>
<pdfrwt beam="1">  1       11 0.10000000E+01 0.72102562E+02</pdfrwt>
<pdfrwt beam="2">  1       -2 0.15664604E-02 0.50691641E+02</pdfrwt>
<totfact> 0.70197529E+03</totfact>
</mgrwt>
</event>
<event>
 5    1  0.2847672E-003  0.1875946E+03  0.7818608E-02  0.1268460E+00
         11   -1    0    0    0    0  0.00000000000E+00  0.00000000000E+00  0.99980806657E+03  0.99980806657E+03  0.51100000000E-03 0. -1.
          2   -1    0    0  501    0 -0.00000000000E+00 -0.00000000000E+00 -0.37166778126E+03  0.37166778127E+03  0.25500000000E-02 0. -1.
         11    1    1    2    0    0 -0.10296317327E+03  0.15281090961E+03  0.77178889097E+03  0.79348010773E+03  0.51100000000E-03 0. -1.
         22    1    1    2    0    0  0.37502790949E+02  0.46478546381E+02 -0.30660774245E+03  0.31237000869E+03  0.00000000000E+00 0. -1.
          2    1    1    2  501    0  0.65460382321E+02 -0.19928945599E+03  0.16295913679E+03  0.26562573142E+03  0.25500000000E-02 0. -1.
<mgrwt>
<rscale>  0 0.10584669E+03</rscale>
<asrwt>0</asrwt>
<pdfrwt beam="1">  1       11 0.10000000E+01 0.18759462E+03</pdfrwt>
<pdfrwt beam="2">  1        2 0.57168682E-01 0.10584669E+03</pdfrwt>
<totfact> 0.10798073E+02</totfact>
</mgrwt>
</event>
<event>
 5    1  0.2847672E-003  0.9240305E+02  0.7818608E-02  0.1488680E+00
         11   -1    0    0    0    0  0.00000000000E+00  0.00000000000E+00  0.10003256183E+04  0.10003256183E+04  0.51100000000E-03 0.  1.
          2   -1    0    0  501    0 -0.00000000000E+00 -0.00000000000E+00 -0.12138114539E+02  0.12138114807E+02  0.25500000000E-02 0.  1.
         11    1    1    2    0    0  0.65864916109E+02  0.65076517095E+02  0.34762904950E+03  0.35974865713E+03  0.51100000000E-03 0.  1.
         22    1    1    2    0    0  0.12713129075E+02 -0.15190257747E+02  0.36505624893E+02  0.41533459164E+02  0.00000000000E+00 0. -1.
          2    1    1    2  501    0 -0.78578045183E+02 -0.49886259347E+02  0.60405282942E+03  0.61118161686E+03  0.25500000000E-02 0.  1.
<mgrwt>
<rscale>  0 0.42782517E+02</rscale>
<asrwt>0</asrwt>
<pdfrwt beam="1">  1       11 0.10000000E+01 0.92403053E+02</pdfrwt>
<pdfrwt beam="2">  1        2 0.18680103E-02 0.42782517E+02</pdfrwt>
<totfact> 0.58448735E+03</totfact>
</mgrwt>
</event>
<event>
 5    1  0.2847672E-003  0.1129333E+03  0.7818608E-02  0.1494242E+00
         11   -1    0    0    0    0  0.00000000000E+00  0.00000000000E+00  0.10002151773E+04  0.10002151773E+04  0.51100000000E-03 0. -1.
          2   -1    0    0  501    0 -0.00000000000E+00 -0.00000000000E+00 -0.15454456096E+02  0.15454456306E+02  0.25500000000E-02 0. -1.
         11    1    1    2    0    0 -0.96962987254E+02  0.63309848905E+02  0.41624015274E+03  0.43204840310E+03  0.51100000000E-03 0. -1.
         22    1    1    2    0    0 -0.33873421829E+01 -0.15220086192E+02  0.30970474616E+02  0.34674131694E+02  0.00000000000E+00 0.  1.
          2    1    1    2  501    0  0.10035032944E+03 -0.48089762713E+02  0.53755009388E+03  0.54894709884E+03  0.25500000000E-02 0. -1.
<mgrwt>
<rscale>  0 0.41963186E+02</rscale>
<asrwt>0</asrwt>
<pdfrwt beam="1">  1       11 0.10000000E+01 0.11293335E+03</pdfrwt>
<pdfrwt beam="2">  1        2 0.23781202E-02 0.41963186E+02</pdfrwt>
<totfact> 0.42461306E+03</totfact>
</mgrwt>
</event>
<event>
 5    1  0.2847672E-003  0.1591431E+03  0.7818608E-02  0.1320357E+00
         11   -1    0    0    0    0  0.00000000000E+00  0.00000000000E+00  0.10005593122E+04  0.10005593122E+04  0.51100000000E-03 0.  1.
          2   -1    0    0  501    0 -0.00000000000E+00 -0.00000000000E+00 -0.16129381711E+03  0.16129381713E+03  0.25500000000E-02 0.  1.
         11    1    1    2    0    0 -0.15780089030E+03 -0.80082832487E+02  0.25713339429E+03  0.31214093531E+03  0.51100000000E-03 0.  1.
         22    1    1    2    0    0  0.76489276401E+01  0.42760306330E+02 -0.12162426647E+03  0.12914879824E+03  0.00000000000E+00 0.  1.
          2    1    1    2  501    0  0.15015196266E+03  0.37322526156E+02  0.70375636724E+03  0.72056339574E+03  0.25500000000E-02 0.  1.
<mgrwt>
<rscale>  0 0.83144577E+02</rscale>
<asrwt>0</asrwt>
<pdfrwt beam="1">  1       11 0.10000000E+01 0.15914313E+03</pdfrwt>
<pdfrwt beam="2">  1        2 0.24828312E-01 0.83144577E+02</pdfrwt>
<totfact> 0.26028107E+02</totfact>
</mgrwt>
</event>
<event>
 5    1  0.2847672E-003  0.4239590E+02  0.7818608E-02  0.1619567E+00
         11   -1    0    0    0    0  0.00000000000E+00  0.00000000000E+00  0.99998144348E+03  0.99998144348E+03  0.51100000000E-03 0. -1.
          2   -1    0    0  501    0 -0.00000000000E+00 -0.00000000000E+00 -0.14182204074E+02  0.14182204303E+02  0.25500000000E-02 0. -1.
         11    1    1    2    0    0  0.12574436793E+02  0.28758477456E+02  0.42773652828E+02  0.53054235107E+02  0.51100000000E-03 0. -1.
         22    1    1    2    0    0  0.18589239719E+02  0.18619623030E+01  0.16878435864E+01  0.18758346220E+02  0.00000000000E+00 0. -1.
          2    1    1    2  501    0 -0.31163676512E+02 -0.30620439759E+02  0.94133774299E+03  0.94235106645E+03  0.25500000000E-02 0. -1.
<mgrwt>
<rscale>  0 0.28143394E+02</rscale>
<asrwt>0</asrwt>
<pdfrwt beam="1">  1       11 0.10000000E+01 0.42395895E+02</pdfrwt>
<pdfrwt beam="2">  1        2 0.21818370E-02 0.28143394E+02</pdfrwt>
<totfact> 0.44547932E+03</totfact>
</mgrwt>
</event>
<event>
 5    1  0.2847672E-003  0.1170470E+03  0.7818608E-02  0.1465509E+00
         11   -1    0    0    0    0  0.00000000000E+00  0.00000000000E+00  0.10004069743E+04  0.10004069743E+04  0.51100000000E-03 0. -1.
          2   -1    0    0  501    0 -0.00000000000E+00 -0.00000000000E+00 -0.19683317722E+02  0.19683317888E+02  0.25500000000E-02 0. -1.
         11    1    1    2    0    0 -0.12787915293E+03 -0.13039284833E+02  0.43398634850E+03  0.45262263685E+03  0.51100000000E-03 0. -1.
         22    1    1    2    0    0  0.18322078374E+02  0.19985054204E+01  0.13159183907E+02  0.22646339681E+02  0.00000000000E+00 0. -1.
          2    1    1    2  501    0  0.10955707456E+03  0.11040779413E+02  0.53357812421E+03  0.54482131569E+03  0.25500000000E-02 0. -1.
<mgrwt>
<rscale>  0 0.46446354E+02</rscale>
<asrwt>0</asrwt>
<pdfrwt beam="1">  1       11 0.10000000E+01 0.11704704E+03</pdfrwt>
<pdfrwt beam="2">  1        2 0.30294351E-02 0.46446354E+02</pdfrwt>
<totfact> 0.31433681E+03</totfact>
</mgrwt>
</event>
<event>
 5    1  0.2847672E-003  0.1886366E+03  0.7818608E-02  0.1215534E+00
         11   -1    0    0    0    0  0.00000000000E+00  0.00000000000E+00  0.10001691278E+04  0.10001691278E+04  0.51100000000E-03 0.  1.
          2   -1    0    0  501    0 -0.00000000000E+00 -0.00000000000E+00 -0.20709599166E+03  0.20709599168E+03  0.25500000000E-02 0.  1.
         11    1    1    2    0    0  0.11540766685E+03  0.19048534778E+03  0.84141148101E+03  0.87038892321E+03  0.51100000000E-03 0.  1.
         22    1    1    2    0    0 -0.49437045521E+02 -0.88651436003E+02 -0.14827027188E+03  0.17968631584E+03  0.00000000000E+00 0.  1.
          2    1    1    2  501    0 -0.65970621326E+02 -0.10183391178E+03  0.99931927024E+02  0.15718988044E+03  0.25500000000E-02 0.  1.
<mgrwt>
<rscale>  0 0.13837414E+03</rscale>
<asrwt>0</asrwt>
<pdfrwt beam="1">  1       11 0.10000000E+01 0.18863660E+03</pdfrwt>
<pdfrwt beam="2">  1        2 0.31866309E-01 0.13837414E+03</pdfrwt>
<totfact> 0.20110231E+02</totfact>
</mgrwt>
</event>
<event>
 5    1  0.2847672E-003  0.4297502E+02  0.7818608E-02  0.1497011E+00
         11   -1    0    0    0    0  0.00000000000E+00  0.00000000000E+00  0.99997965686E+03  0.99997965686E+03  0.51100000000E-03 0. -1.
          2   -1    0    0  501    0 -0.00000000000E+00 -0.00000000000E+00 -0.71467160312E+01  0.71467164862E+01  0.25500000000E-02 0. -1.
         11    1    1    2    0    0  0.16827585125E+02 -0.39543432198E+02  0.11087364608E+03  0.11891095848E+03  0.51100000000E-03 0. -1.
         22    1    1    2    0    0 -0.45402387637E+02  0.44166577584E+01  0.21840891929E+03  0.22312180462E+03  0.00000000000E+00 0. -1.
          2    1    1    2  501    0  0.28574802512E+02  0.35126774439E+02  0.66355037546E+03  0.66509361025E+03  0.25500000000E-02 0. -1.
<mgrwt>
<rscale>  0 0.41563531E+02</rscale>
<asrwt>0</asrwt>
<pdfrwt beam="1">  1       11 0.10000000E+01 0.42975022E+02</pdfrwt>
<pdfrwt beam="2">  1        2 0.10994724E-02 0.41563531E+02</pdfrwt>
<totfact> 0.11737086E+04</totfact>
</mgrwt>
</event>
<event>
 5    1  0.2847672E-003  0.1209407E+03  0.7818608E-02  0.1241553E+00
         11   -1    0    0    0    0  0.00000000000E+00  0.00000000000E+00  0.99998133261E+03  0.99998133261E+03  0.51100000000E-03 0.  1.
          2   -1    0    0  501    0 -0.00000000000E+00 -0.00000000000E+00 -0.43530021698E+02  0.43530021773E+02  0.25500000000E-02 0.  1.
         11    1    1    2    0    0 -0.89919036534E+02  0.77950859067E+02  0.28669632594E+03  0.31041351915E+03  0.51100000000E-03 0.  1.
         22    1    1    2    0    0 -0.40594145146E+02 -0.12305804360E+03  0.16503023811E+03  0.20982408395E+03  0.00000000000E+00 0. -1.
          2    1    1    2  501    0  0.13051318168E+03  0.45107184529E+02  0.50472474687E+03  0.52327375129E+03  0.25500000000E-02 0.  1.
<mgrwt>
<rscale>  0 0.12094073E+03</rscale>
<asrwt>0</asrwt>
<pdfrwt beam="1">  1       11 0.10000000E+01 0.11900323E+03</pdfrwt>
<pdfrwt beam="2">  1        2 0.66968012E-02 0.12094073E+03</pdfrwt>
<totfact> 0.12462235E+03</totfact>
</mgrwt>
</event>
<event>
 5    1  0.2847672E-003  0.2006642E+03  0.7818608E-02  0.1429766E+00
         11   -1    0    0    0    0  0.00000000000E+00  0.00000000000E+00  0.99985261392E+03  0.99985261392E+03  0.51100000000E-03 0. -1.
         -2   -1    0    0    0  501 -0.00000000000E+00 -0.00000000000E+00 -0.76371642291E+02  0.76371642333E+02  0.25500000000E-02 0.  1.
         11    1    1    2    0    0  0.11357153661E+03 -0.16614249523E+03  0.76394568808E+03  0.79000939044E+03  0.51100000000E-03 0. -1.
         22    1    1    2    0    0 -0.12872385201E+02 -0.55102059362E+01 -0.15709360700E+02  0.21043875209E+02  0.00000000000E+00 0.  1.
         -2    1    1    2    0  501 -0.10069915141E+03  0.17165270117E+03  0.17524464426E+03  0.26517099061E+03  0.25500000000E-02 0.  1.
<mgrwt>
<rscale>  0 0.53006925E+02</rscale>
<asrwt>0</asrwt>
<pdfrwt beam="1">  1       11 0.10000000E+01 0.20066424E+03</pdfrwt>
<pdfrwt beam="2">  1       -2 0.11747751E-01 0.53006925E+02</pdfrwt>
<totfact> 0.37278146E+02</totfact>
</mgrwt>
</event>
<event>
 5    1  0.2847672E-003  0.6807493E+02  0.7818608E-02  0.1366764E+00
         11   -1    0    0    0    0  0.00000000000E+00  0.00000000000E+00  0.10003364754E+04  0.10003364754E+04  0.51100000000E-03 0. -1.
          2   -1    0    0  501    0 -0.00000000000E+00 -0.00000000000E+00 -0.41922341184E+02  0.41922341262E+02  0.25500000000E-02 0. -1.
         11    1    1    2    0    0  0.95570781531E+01  0.10950053619E+02 -0.27451014160E+02  0.31061223346E+02  0.51100000000E-03 0. -1.
         22    1    1    2    0    0  0.66452828754E+02  0.82091514876E+01  0.91387866088E+02  0.11329214750E+03  0.00000000000E+00 0. -1.
          2    1    1    2  501    0 -0.76009906907E+02 -0.19159205106E+02  0.89447728233E+03  0.89790544586E+03  0.25500000000E-02 0. -1.
<mgrwt>
<rscale>  0 0.68074928E+02</rscale>
<asrwt>0</asrwt>
<pdfrwt beam="1">  1       11 0.10000000E+01 0.14534154E+02</pdfrwt>
<pdfrwt beam="2">  1        2 0.64517609E-02 0.68074928E+02</pdfrwt>
<totfact> 0.12475703E+03</totfact>
</mgrwt>
</event>
<event>
 5    1  0.2847672E-003  0.1448850E+03  0.7818608E-02  0.1344237E+00
         11   -1    0    0    0    0  0.00000000000E+00  0.00000000000E+00  0.10001590012E+04  0.10001590012E+04  0.51100000000E-03 0.  1.
         -2   -1    0    0    0  501 -0.00000000000E+00 -0.00000000000E+00 -0.66489459632E+02  0.66489459681E+02  0.25500000000E-02 0.  1.
         11    1    1    2    0    0 -0.14431980938E+03 -0.30627579510E+02  0.87369796957E+03  0.88606681353E+03  0.51100000000E-03 0.  1.
         22    1    1    2    0    0  0.27668318077E+02 -0.27060996076E+02  0.39631231984E+01  0.38904237292E+02  0.00000000000E+00 0.  1.
         -2    1    1    2    0  501  0.11665149131E+03  0.57688575586E+02  0.56008448797E+02  0.14167741006E+03  0.25500000000E-02 0.  1.
<mgrwt>
<rscale>  0 0.74882025E+02</rscale>
<asrwt>0</asrwt>
<pdfrwt beam="1">  1       11 0.10000000E+01 0.14488500E+03</pdfrwt>
<pdfrwt beam="2">  1       -2 0.10230774E-01 0.74882025E+02</pdfrwt>
<totfact> 0.47367488E+02</totfact>
</mgrwt>
</event>
<event>
 5    1  0.2847672E-003  0.1574926E+03  0.7818608E-02  0.1368067E+00
         11   -1    0    0    0    0  0.00000000000E+00  0.00000000000E+00  0.10001881388E+04  0.10001881388E+04  0.51100000000E-03 0. -1.
         -2   -1    0    0    0  501 -0.00000000000E+00 -0.00000000000E+00 -0.16089944215E+03  0.16089944217E+03  0.25500000000E-02 0. -1.
         11    1    1    2    0    0  0.12746880547E+03 -0.91490890416E+02  0.92848828812E+03  0.94165247336E+03  0.51100000000E-03 0. -1.
         22    1    1    2    0    0  0.25158865742E+02  0.14639142996E+02 -0.18588180095E+02  0.34536842246E+02  0.00000000000E+00 0. -1.
         -2    1    1    2    0  501 -0.15262767121E+03  0.76851747420E+02 -0.70611411402E+02  0.18489826534E+03  0.25500000000E-02 0. -1.
<mgrwt>
<rscale>  0 0.67707373E+02</rscale>
<asrwt>0</asrwt>
<pdfrwt beam="1">  1       11 0.10000000E+01 0.15749263E+03</pdfrwt>
<pdfrwt beam="2">  1       -2 0.24758417E-01 0.67707373E+02</pdfrwt>
<totfact> 0.11224983E+02</totfact>
</mgrwt>
</event>
<event>
 5    1  0.2847672E-003  0.9914291E+02  0.7818608E-02  0.1503813E+00
         11   -1    0    0    0    0  0.00000000000E+00  0.00000000000E+00  0.10002122180E+04  0.10002122180E+04  0.51100000000E-03 0. -1.
          2   -1    0    0  501    0 -0.00000000000E+00 -0.00000000000E+00 -0.12806410567E+02  0.12806410821E+02  0.25500000000E-02 0. -1.
         11    1    1    2    0    0  0.65768540541E+02  0.69094134335E+02  0.30709215161E+03  0.32156661814E+03  0.51100000000E-03 0. -1.
         22    1    1    2    0    0 -0.80173202563E+01  0.14569072426E+02  0.43410843108E+02  0.46486950801E+02  0.00000000000E+00 0. -1.
          2    1    1    2  501    0 -0.57751220285E+02 -0.83663206761E+02  0.63690281271E+03  0.64496505987E+03  0.25500000000E-02 0. -1.
<mgrwt>
<rscale>  0 0.40603958E+02</rscale>
<asrwt>0</asrwt>
<pdfrwt beam="1">  1       11 0.10000000E+01 0.99142913E+02</pdfrwt>
<pdfrwt beam="2">  1        2 0.19706351E-02 0.40603958E+02</pdfrwt>
<totfact> 0.54025102E+03</totfact>
</mgrwt>
</event>
<event>
 5    1  0.2847672E-003  0.9765134E+02  0.7818608E-02  0.1513101E+00
         11   -1    0    0    0    0  0.00000000000E+00  0.00000000000E+00  0.10000093577E+04  0.10000093577E+04  0.51100000000E-03 0.  1.
          2   -1    0    0  501    0 -0.00000000000E+00 -0.00000000000E+00 -0.11664829557E+02  0.11664829836E+02  0.25500000000E-02 0.  1.
         11    1    1    2    0    0  0.98471205252E+02 -0.33301690700E+02  0.51500769563E+03  0.52539366900E+03  0.51100000000E-03 0.  1.
         22    1    1    2    0    0 -0.85502138670E+01  0.13347377874E+02  0.35778238582E+02  0.39132352464E+02  0.00000000000E+00 0.  1.
          2    1    1    2  501    0 -0.89920991385E+02  0.19954312826E+02  0.43755859390E+03  0.44714816605E+03  0.25500000000E-02 0.  1.
<mgrwt>
<rscale>  0 0.39343162E+02</rscale>
<asrwt>0</asrwt>
<pdfrwt beam="1">  1       11 0.10000000E+01 0.97651342E+02</pdfrwt>
<pdfrwt beam="2">  1        2 0.17946059E-02 0.39343162E+02</pdfrwt>
<totfact> 0.60773872E+03</totfact>
</mgrwt>
</event>
<event>
 5    1  0.2847672E-003  0.9604531E+02  0.7818608E-02  0.1580170E+00
         11   -1    0    0    0    0  0.00000000000E+00  0.00000000000E+00  0.10003441681E+04  0.10003441681E+04  0.51100000000E-03 0. -1.
          2   -1    0    0  501    0 -0.00000000000E+00 -0.00000000000E+00 -0.10941391773E+02  0.10941392070E+02  0.25500000000E-02 0. -1.
         11    1    1    2    0    0 -0.90915321289E+02 -0.27427842858E+02  0.42283546610E+03  0.43336787329E+03  0.51100000000E-03 0. -1.
         22    1    1    2    0    0  0.13976096717E+01 -0.10359365456E+02  0.18030975447E+02  0.20841925080E+02  0.00000000000E+00 0.  1.
          2    1    1    2  501    0  0.89517711617E+02  0.37787208313E+02  0.54853633480E+03  0.55707576182E+03  0.25500000000E-02 0. -1.
<mgrwt>
<rscale>  0 0.31685675E+02</rscale>
<asrwt>0</asrwt>
<pdfrwt beam="1">  1       11 0.10000000E+01 0.96045307E+02</pdfrwt>
<pdfrwt beam="2">  1        2 0.16838704E-02 0.31685675E+02</pdfrwt>
<totfact> 0.63642549E+03</totfact>
</mgrwt>
</event>
<event>
 5    1  0.2847672E-003  0.1058330E+03  0.7818608E-02  0.1433650E+00
         11   -1    0    0    0    0  0.00000000000E+00  0.00000000000E+00  0.10001282633E+04  0.10001282633E+04  0.51100000000E-03 0.  1.
          2   -1    0    0  501    0 -0.00000000000E+00 -0.00000000000E+00 -0.50660050740E+02  0.50660050804E+02  0.25500000000E-02 0.  1.
         11    1    1    2    0    0 -0.98601629243E+02 -0.83838564024E+02  0.69289718209E+02  0.14680684983E+03  0.51100000000E-03 0.  1.
         22    1    1    2    0    0  0.21762183319E+02  0.13821679344E+02  0.10057828555E+02  0.27672935478E+02  0.00000000000E+00 0. -1.
          2    1    1    2  501    0  0.76839445924E+02  0.70016884680E+02  0.87012066582E+03  0.87630852882E+03  0.25500000000E-02 0.  1.
<mgrwt>
<rscale>  0 0.52234284E+02</rscale>
<asrwt>0</asrwt>
<pdfrwt beam="1">  1       11 0.10000000E+01 0.10583299E+03</pdfrwt>
<pdfrwt beam="2">  1        2 0.77948534E-02 0.52234284E+02</pdfrwt>
<totfact> 0.96527059E+02</totfact>
</mgrwt>
</event>
<event>
 5    1  0.2847672E-003  0.5041713E+02  0.7818608E-02  0.1647721E+00
         11   -1    0    0    0    0  0.00000000000E+00  0.00000000000E+00  0.10001881635E+04  0.10001881635E+04  0.51100000000E-03 0. -1.
          2   -1    0    0  501    0 -0.00000000000E+00 -0.00000000000E+00 -0.28268306237E+02  0.28268306352E+02  0.25500000000E-02 0. -1.
         11    1    1    2    0    0 -0.57376246262E+01 -0.41157045865E+02  0.85933561501E+02  0.95453652383E+02  0.51100000000E-03 0. -1.
         22    1    1    2    0    0  0.80118052125E+01 -0.10686861984E+02 -0.20807423398E+02  0.24725430437E+02  0.00000000000E+00 0. -1.
          2    1    1    2  501    0 -0.22741805863E+01  0.51843907848E+02  0.90679371915E+03  0.90827738702E+03  0.25500000000E-02 0. -1.
<mgrwt>
<rscale>  0 0.25949947E+02</rscale>
<asrwt>0</asrwt>
<pdfrwt beam="1">  1       11 0.10000000E+01 0.50417132E+02</pdfrwt>
<pdfrwt beam="2">  1        2 0.43497884E-02 0.25949947E+02</pdfrwt>
<totfact> 0.18356636E+03</totfact>
</mgrwt>
</event>
<event>
 5    1  0.2847672E-003  0.1602982E+03  0.7818608E-02  0.1280669E+00
         11   -1    0    0    0    0  0.00000000000E+00  0.00000000000E+00  0.10002148927E+04  0.10002148927E+04  0.51100000000E-03 0. -1.
          2   -1    0    0  501    0 -0.00000000000E+00 -0.00000000000E+00 -0.48588958438E+02  0.48588958505E+02  0.25500000000E-02 0. -1.
         11    1    1    2    0    0  0.72059059920E+02 -0.16559707181E+03  0.30784481243E+03  0.35690800894E+03  0.51100000000E-03 0. -1.
         22    1    1    2    0    0  0.33575657725E+02  0.52315310891E+02  0.54736720607E+02  0.82827079679E+02  0.00000000000E+00 0. -1.
          2    1    1    2  501    0 -0.10563471764E+03  0.11328176092E+03  0.58904440123E+03  0.60906876258E+03  0.25500000000E-02 0. -1.
<mgrwt>
<rscale>  0 0.99822765E+02</rscale>
<asrwt>0</asrwt>
<pdfrwt beam="1">  1       11 0.10000000E+01 0.16029821E+03</pdfrwt>
<pdfrwt beam="2">  1        2 0.74768305E-02 0.99822765E+02</pdfrwt>
<totfact> 0.10693861E+03</totfact>
</mgrwt>
</event>
<event>
 5    1  0.2847672E-003  0.7392514E+02  0.7818608E-02  0.1347232E+00
         11   -1    0    0    0    0  0.00000000000E+00  0.00000000000E+00  0.10003612641E+04  0.10003612641E+04  0.51100000000E-03 0. -1.
          2   -1    0    0  501    0 -0.00000000000E+00 -0.00000000000E+00 -0.53028848306E+01  0.53028854437E+01  0.25500000000E-02 0. -1.
         11    1    1    2    0    0 -0.63345722902E+02  0.18785982560E+02  0.33302614299E+03  0.33951731276E+03  0.51100000000E-03 0. -1.
         22    1    1    2    0    0  0.22450093418E+02 -0.16032717013E+02  0.15301345261E+03  0.15548045340E+03  0.00000000000E+00 0. -1.
          2    1    1    2  501    0  0.40895629484E+02 -0.27532655468E+01  0.50901878363E+03  0.51066638334E+03  0.25500000000E-02 0. -1.
<mgrwt>
<rscale>  0 0.73925140E+02</rscale>
<asrwt>0</asrwt>
<pdfrwt beam="1">  1       11 0.10000000E+01 0.66072673E+02</pdfrwt>
<pdfrwt beam="2">  1        2 0.81612319E-03 0.73925140E+02</pdfrwt>
<totfact> 0.19471874E+04</totfact>
</mgrwt>
</event>
<event>
 5    1  0.2847672E-003  0.4534497E+02  0.7818608E-02  0.1658483E+00
         11   -1    0    0    0    0  0.00000000000E+00  0.00000000000E+00  0.10003923655E+04  0.10003923655E+04  0.51100000000E-03 0.  1.
          2   -1    0    0  501    0 -0.00000000000E+00 -0.00000000000E+00 -0.80796447417E+01  0.80796451441E+01  0.25500000000E-02 0. -1.
         11    1    1    2    0    0  0.56511934982E+02  0.50980945663E+01  0.22162611650E+03  0.22877439734E+03  0.51100000000E-03 0.  1.
         22    1    1    2    0    0 -0.13765513973E+02  0.24296888207E+01  0.86761388062E+01  0.16451995237E+02  0.00000000000E+00 0. -1.
          2    1    1    2  501    0 -0.42746421009E+02 -0.75277833870E+01  0.76201046543E+03  0.76324561804E+03  0.25500000000E-02 0. -1.
<mgrwt>
<rscale>  0 0.25176282E+02</rscale>
<asrwt>0</asrwt>
<pdfrwt beam="1">  1       11 0.10000000E+01 0.45344975E+02</pdfrwt>
<pdfrwt beam="2">  1        2 0.12435100E-02 0.25176282E+02</pdfrwt>
<totfact> 0.90396331E+03</totfact>
</mgrwt>
</event>
<event>
 5    1  0.3196498E-003  0.1764203E+03  0.7818608E-02  0.1171313E+00
         11   -1    0    0    0    0  0.00000000000E+00  0.00000000000E+00  0.10001386834E+04  0.10001386834E+04  0.51100000000E-03 0. -1.
          2   -1    0    0  501    0 -0.00000000000E+00 -0.00000000000E+00 -0.65060767281E+02  0.65060767331E+02  0.25500000000E-02 0. -1.
         11    1    1    2    0    0  0.86200160971E+02  0.14848163016E+03  0.85391647451E+03  0.87100551530E+03  0.51100000000E-03 0. -1.
         22    1    1    2    0    0 -0.11912989395E+02 -0.24893017540E+01  0.22695770319E+01  0.12380101755E+02  0.00000000000E+00 0. -1.
          2    1    1    2  501    0 -0.74287171576E+02 -0.14599232840E+03  0.78891864582E+02  0.18181383368E+03  0.25500000000E-02 0. -1.
<mgrwt>
<rscale>  0 0.17642025E+03</rscale>
<asrwt>0</asrwt>
<pdfrwt beam="1">  1       11 0.10000000E+01 0.17168944E+03</pdfrwt>
<pdfrwt beam="2">  1        2 0.10010737E-01 0.17642025E+03</pdfrwt>
<totfact> 0.77062575E+02</totfact>
</mgrwt>
</event>
<event>
 5    1  0.2847672E-003  0.8781966E+02  0.7818608E-02  0.1586361E+00
         11   -1    0    0    0    0  0.00000000000E+00  0.00000000000E+00  0.10003611213E+04  0.10003611213E+04  0.51100000000E-03 0.  1.
          2   -1    0    0  501    0 -0.00000000000E+00 -0.00000000000E+00 -0.20216843263E+02  0.20216843424E+02  0.25500000000E-02 0.  1.
         11    1    1    2    0    0  0.71524798178E+02 -0.47178630914E+02  0.19973944246E+03  0.21734181569E+03  0.51100000000E-03 0.  1.
         22    1    1    2    0    0 -0.40789614010E+01 -0.10221512756E+02 -0.55372207311E+01  0.12319823966E+02  0.00000000000E+00 0.  1.
          2    1    1    2  501    0 -0.67445836777E+02  0.57400143671E+02  0.78594205627E+03  0.79091632504E+03  0.25500000000E-02 0.  1.
<mgrwt>
<rscale>  0 0.31088321E+02</rscale>
<asrwt>0</asrwt>
<pdfrwt beam="1">  1       11 0.10000000E+01 0.87819662E+02</pdfrwt>
<pdfrwt beam="2">  1        2 0.31114067E-02 0.31088321E+02</pdfrwt>
<totfact> 0.28713774E+03</totfact>
</mgrwt>
</event>
<event>
 5    1  0.2847672E-003  0.3939915E+03  0.7818608E-02  0.1151543E+00
         11   -1    0    0    0    0  0.00000000000E+00  0.00000000000E+00  0.10000195150E+04  0.10000195150E+04  0.51100000000E-03 0. -1.
          2   -1    0    0  501    0 -0.00000000000E+00 -0.00000000000E+00 -0.13313017000E+04  0.13313017000E+04  0.25500000000E-02 0.  1.
         11    1    1    2    0    0  0.23349793298E+03 -0.32719275451E+03  0.91675456867E+03  0.10010071541E+04  0.51100000000E-03 0. -1.
         22    1    1    2    0    0 -0.64056209187E+02  0.22499369664E+03 -0.90052894100E+03  0.93041804316E+03  0.00000000000E+00 0.  1.
          2    1    1    2  501    0 -0.16944172379E+03  0.10219905787E+03 -0.34750781269E+03  0.39989601783E+03  0.25500000000E-02 0.  1.
<mgrwt>
<rscale>  0 0.19787659E+03</rscale>
<asrwt>0</asrwt>
<pdfrwt beam="1">  1       11 0.10000000E+01 0.39399147E+03</pdfrwt>
<pdfrwt beam="2">  1        2 0.20481964E+00 0.19787659E+03</pdfrwt>
<totfact> 0.21570822E+01</totfact>
</mgrwt>
</event>
<event>
 5    1  0.2847672E-003  0.8271699E+02  0.7818608E-02  0.1554878E+00
         11   -1    0    0    0    0  0.00000000000E+00  0.00000000000E+00  0.10001697257E+04  0.10001697257E+04  0.51100000000E-03 0. -1.
          2   -1    0    0  501    0 -0.00000000000E+00 -0.00000000000E+00 -0.93857377811E+01  0.93857381275E+01  0.25500000000E-02 0. -1.
         11    1    1    2    0    0 -0.55571251090E+02  0.58994560430E+02  0.41815015658E+03  0.42593200814E+03  0.51100000000E-03 0. -1.
         22    1    1    2    0    0  0.85597757856E+01  0.11362120461E+02  0.19966736246E+02  0.24516078381E+02  0.00000000000E+00 0.  1.
          2    1    1    2  501    0  0.47011475304E+02 -0.70356680891E+02  0.55266709509E+03  0.55910737731E+03  0.25500000000E-02 0. -1.
<mgrwt>
<rscale>  0 0.34303029E+02</rscale>
<asrwt>0</asrwt>
<pdfrwt beam="1">  1       11 0.10000000E+01 0.82716990E+02</pdfrwt>
<pdfrwt beam="2">  1        2 0.14442047E-02 0.34303029E+02</pdfrwt>
<totfact> 0.78949539E+03</totfact>
</mgrwt>
</event>
<event>
 5    1  0.2847672E-003  0.7165439E+02  0.7818608E-02  0.1429724E+00
         11   -1    0    0    0    0  0.00000000000E+00  0.00000000000E+00  0.10001019924E+04  0.10001019924E+04  0.51100000000E-03 0. -1.
          2   -1    0    0  501    0 -0.00000000000E+00 -0.00000000000E+00 -0.10689960355E+02  0.10689960659E+02  0.25500000000E-02 0. -1.
         11    1    1    2    0    0  0.61666127627E+02  0.65924174082E+02  0.40426992167E+03  0.41422563609E+03  0.51100000000E-03 0. -1.
         22    1    1    2    0    0 -0.38943175803E+02 -0.46940981938E+01  0.10659330035E+03  0.11358141212E+03  0.00000000000E+00 0. -1.
          2    1    1    2  501    0 -0.22722951824E+02 -0.61230075888E+02  0.47854881005E+03  0.48298490488E+03  0.25500000000E-02 0. -1.
<mgrwt>
<rscale>  0 0.53015531E+02</rscale>
<asrwt>0</asrwt>
<pdfrwt beam="1">  1       11 0.10000000E+01 0.71654390E+02</pdfrwt>
<pdfrwt beam="2">  1        2 0.16447770E-02 0.53015531E+02</pdfrwt>
<totfact> 0.71572720E+03</totfact>
</mgrwt>
</event>
<event>
 5    1  0.2847672E-003  0.1029396E+03  0.7818608E-02  0.1467049E+00
         11   -1    0    0    0    0  0.00000000000E+00  0.00000000000E+00  0.10000286289E+04  0.10000286289E+04  0.51100000000E-03 0.  1.
          2   -1    0    0  501    0 -0.00000000000E+00 -0.00000000000E+00 -0.13193226168E+02  0.13193226415E+02  0.25500000000E-02 0.  1.
         11    1    1    2    0    0  0.72928855223E+02  0.80745448637E+02  0.43681124642E+03  0.45015831704E+03  0.51100000000E-03 0.  1.
         22    1    1    2    0    0  0.54284276335E+01 -0.20001970970E+02  0.75524958532E+02  0.78317086453E+02  0.00000000000E+00 0. -1.
          2    1    1    2  501    0 -0.78357282857E+02 -0.60743477667E+02  0.47449919782E+03  0.48474645186E+03  0.25500000000E-02 0.  1.
<mgrwt>
<rscale>  0 0.46189546E+02</rscale>
<asrwt>0</asrwt>
<pdfrwt beam="1">  1       11 0.10000000E+01 0.10293959E+03</pdfrwt>
<pdfrwt beam="2">  1        2 0.20297852E-02 0.46189546E+02</pdfrwt>
<totfact> 0.53021629E+03</totfact>
</mgrwt>
</event>
<event>
 5    1  0.2847672E-003  0.3679912E+02  0.7818608E-02  0.1739586E+00
         11   -1    0    0    0    0  0.00000000000E+00  0.00000000000E+00  0.10001549635E+04  0.10001549635E+04  0.51100000000E-03 0. -1.
          2   -1    0    0  501    0 -0.00000000000E+00 -0.00000000000E+00 -0.33220263165E+01  0.33220272952E+01  0.25500000000E-02 0. -1.
         11    1    1    2    0    0  0.10916507839E+02  0.41464377824E+02  0.25273968995E+03  0.25635096187E+03  0.51100000000E-03 0. -1.
         22    1    1    2    0    0  0.52783804456E+01 -0.98661522998E+01  0.27999100634E+02  0.30152145821E+02  0.00000000000E+00 0. -1.
          2    1    1    2  501    0 -0.16194888285E+02 -0.31598225524E+02  0.71609414663E+03  0.71697388314E+03  0.25500000000E-02 0. -1.
<mgrwt>
<rscale>  0 0.20291851E+02</rscale>
<asrwt>0</asrwt>
<pdfrwt beam="1">  1       11 0.10000000E+01 0.36799121E+02</pdfrwt>
<pdfrwt beam="2">  1        2 0.51116023E-03 0.20291851E+02</pdfrwt>
<totfact> 0.27394282E+04</totfact>
</mgrwt>
</event>
<event>
 5    1  0.2847672E-003  0.3289760E+03  0.7818608E-02  0.1071591E+00
         11   -1    0    0    0    0  0.00000000000E+00  0.00000000000E+00  0.10004106940E+04  0.10004106940E+04  0.51100000000E-03 0. -1.
          2   -1    0    0  501    0 -0.00000000000E+00 -0.00000000000E+00 -0.42278225853E+03  0.42278225853E+03  0.25500000000E-02 0. -1.
         11    1    1    2    0    0 -0.22583490513E+02  0.30364488870E+03  0.90755969400E+03  0.95727468924E+03  0.51100000000E-03 0. -1.
         22    1    1    2    0    0 -0.38216604928E+02 -0.70084521327E+02 -0.12983833984E+03  0.15241503703E+03  0.00000000000E+00 0. -1.
          2    1    1    2  501    0  0.60800095440E+02 -0.23356036737E+03 -0.20009291864E+03  0.31350322631E+03  0.25500000000E-02 0. -1.
<mgrwt>
<rscale>  0 0.32897598E+03</rscale>
<asrwt>0</asrwt>
<pdfrwt beam="1">  1       11 0.10000000E+01 0.30448355E+03</pdfrwt>
<pdfrwt beam="2">  1        2 0.65070135E-01 0.32897598E+03</pdfrwt>
<totfact> 0.93203725E+01</totfact>
</mgrwt>
</event>
<event>
 5    1  0.2847672E-003  0.5971949E+02  0.7818608E-02  0.1399013E+00
         11   -1    0    0    0    0  0.00000000000E+00  0.00000000000E+00  0.10002435865E+04  0.10002435865E+04  0.51100000000E-03 0.  1.
          2   -1    0    0  501    0 -0.00000000000E+00 -0.00000000000E+00 -0.10659871192E+02  0.10659871497E+02  0.25500000000E-02 0.  1.
         11    1    1    2    0    0 -0.29787626846E+02  0.23590182496E+02  0.16489334294E+03  0.16921469786E+03  0.51100000000E-03 0.  1.
         22    1    1    2    0    0  0.76153882801E+01  0.55933196182E+02  0.12512593411E+03  0.13726986545E+03  0.00000000000E+00 0.  1.
          2    1    1    2  501    0  0.22172238566E+02 -0.79523378678E+02  0.69956443824E+03  0.70441889467E+03  0.25500000000E-02 0.  1.
<mgrwt>
<rscale>  0 0.59719485E+02</rscale>
<asrwt>0</asrwt>
<pdfrwt beam="1">  1       11 0.10000000E+01 0.37997380E+02</pdfrwt>
<pdfrwt beam="2">  1        2 0.16403796E-02 0.59719485E+02</pdfrwt>
<totfact> 0.73166341E+03</totfact>
</mgrwt>
</event>
<event>
 5    1  0.2847672E-003  0.1491165E+03  0.7818608E-02  0.1407310E+00
         11   -1    0    0    0    0  0.00000000000E+00  0.00000000000E+00  0.10000449466E+04  0.10000449466E+04  0.51100000000E-03 0. -1.
          2   -1    0    0  501    0 -0.00000000000E+00 -0.00000000000E+00 -0.36802680445E+02  0.36802680534E+02  0.25500000000E-02 0. -1.
         11    1    1    2    0    0 -0.20876084740E+01 -0.15150525650E+03  0.75253849652E+03  0.76764079465E+03  0.51100000000E-03 0. -1.
         22    1    1    2    0    0  0.19529580935E+02  0.10976775920E+02  0.51359891590E+02  0.56033316921E+02  0.00000000000E+00 0. -1.
          2    1    1    2  501    0 -0.17441972461E+02  0.14052848058E+03  0.15934387799E+03  0.21317351552E+03  0.25500000000E-02 0. -1.
<mgrwt>
<rscale>  0 0.57798400E+02</rscale>
<asrwt>0</asrwt>
<pdfrwt beam="1">  1       11 0.10000000E+01 0.14911645E+03</pdfrwt>
<pdfrwt beam="2">  1        2 0.56622052E-02 0.57798400E+02</pdfrwt>
<totfact> 0.14477840E+03</totfact>
</mgrwt>
</event>
<event>
 5    1  0.2847672E-003  0.5176588E+03  0.7818608E-02  0.1305188E+00
         11   -1    0    0    0    0  0.00000000000E+00  0.00000000000E+00  0.10001386481E+04  0.10001386481E+04  0.51100000000E-03 0. -1.
         -2   -1    0    0    0  501 -0.00000000000E+00 -0.00000000000E+00 -0.70316404581E+03  0.70316404582E+03  0.25500000000E-02 0.  1.
         11    1    1    2    0    0  0.36875498968E+02  0.51694143210E+03  0.81274876403E+03  0.96392364847E+03  0.51100000000E-03 0. -1.
         22    1    1    2    0    0 -0.14694755729E+02 -0.43181207494E+01 -0.25224628947E+02  0.29510403559E+02  0.00000000000E+00 0.  1.
         -2    1    1    2    0  501 -0.22180743239E+02 -0.51262331135E+03 -0.49054953276E+03  0.70986864193E+03  0.25500000000E-02 0.  1.
<mgrwt>
<rscale>  0 0.89042116E+02</rscale>
<asrwt>0</asrwt>
<pdfrwt beam="1">  1       11 0.10000000E+01 0.51765879E+03</pdfrwt>
<pdfrwt beam="2">  1       -2 0.10819408E+00 0.89042116E+02</pdfrwt>
<totfact> 0.60004827E+00</totfact>
</mgrwt>
</event>
<event>
 5    1  0.2847672E-003  0.2477846E+03  0.7818608E-02  0.1114713E+00
         11   -1    0    0    0    0  0.00000000000E+00  0.00000000000E+00  0.10002706634E+04  0.10002706634E+04  0.51100000000E-03 0. -1.
          2   -1    0    0  501    0 -0.00000000000E+00 -0.00000000000E+00 -0.16005044328E+03  0.16005044330E+03  0.25500000000E-02 0. -1.
         11    1    1    2    0    0 -0.15466114111E+03  0.16697195726E+03  0.88036222507E+03  0.90930597183E+03  0.51100000000E-03 0. -1.
         22    1    1    2    0    0  0.50267458500E+02 -0.13557005627E+01 -0.20341130359E+02  0.54244049373E+02  0.00000000000E+00 0. -1.
          2    1    1    2  501    0  0.10439368261E+03 -0.16561625670E+03 -0.19800874579E+02  0.19677108551E+03  0.25500000000E-02 0. -1.
<mgrwt>
<rscale>  0 0.24778462E+03</rscale>
<asrwt>0</asrwt>
<pdfrwt beam="1">  1       11 0.10000000E+01 0.22759548E+03</pdfrwt>
<pdfrwt beam="2">  1        2 0.24629809E-01 0.24778462E+03</pdfrwt>
<totfact> 0.26998827E+02</totfact>
</mgrwt>
</event>
<event>
 5    1  0.2847672E-003  0.2229861E+02  0.7818608E-02  0.1819995E+00
         11   -1    0    0    0    0  0.00000000000E+00  0.00000000000E+00  0.10001525807E+04  0.10001525807E+04  0.51100000000E-03 0. -1.
          2   -1    0    0  501    0 -0.00000000000E+00 -0.00000000000E+00 -0.29174674164E+01  0.29174685308E+01  0.25500000000E-02 0. -1.
         11    1    1    2    0    0  0.15625781430E+02 -0.19974199169E+02  0.14733864206E+03  0.14950521436E+03  0.51100000000E-03 0. -1.
         22    1    1    2    0    0 -0.12350431526E+02 -0.20569104769E+01  0.21581490983E+02  0.24950446743E+02  0.00000000000E+00 0. -1.
          2    1    1    2  501    0 -0.32753499044E+01  0.22031109646E+02  0.82831498022E+03  0.82861438811E+03  0.25500000000E-02 0. -1.
<mgrwt>
<rscale>  0 0.16708998E+02</rscale>
<asrwt>0</asrwt>
<pdfrwt beam="1">  1       11 0.10000000E+01 0.22298611E+02</pdfrwt>
<pdfrwt beam="2">  1        2 0.44890970E-03 0.16708998E+02</pdfrwt>
<totfact> 0.30696799E+04</totfact>
</mgrwt>
</event>
<event>
 5    1  0.2847672E-003  0.1231653E+03  0.7818608E-02  0.1377553E+00
         11   -1    0    0    0    0  0.00000000000E+00  0.00000000000E+00  0.10001958749E+04  0.10001958749E+04  0.51100000000E-03 0. -1.
          2   -1    0    0  501    0 -0.00000000000E+00 -0.00000000000E+00 -0.24431573852E+02  0.24431573985E+02  0.25500000000E-02 0. -1.
         11    1    1    2    0    0 -0.67173306507E+02 -0.11861380274E+03  0.60737088141E+03  0.62247961805E+03  0.51100000000E-03 0. -1.
         22    1    1    2    0    0 -0.23993464530E+01  0.34337394178E+02  0.27172461633E+02  0.43853804550E+02  0.00000000000E+00 0. -1.
          2    1    1    2  501    0  0.69572652960E+02  0.84276408558E+02  0.34122095796E+03  0.35829402624E+03  0.25500000000E-02 0. -1.
<mgrwt>
<rscale>  0 0.65111339E+02</rscale>
<asrwt>0</asrwt>
<pdfrwt beam="1">  1       11 0.10000000E+01 0.12316527E+03</pdfrwt>
<pdfrwt beam="2">  1        2 0.37594398E-02 0.65111339E+02</pdfrwt>
<totfact> 0.24754235E+03</totfact>
</mgrwt>
</event>
<event>
 5    1  0.2847672E-003  0.1563476E+03  0.7818608E-02  0.1197039E+00
         11   -1    0    0    0    0  0.00000000000E+00  0.00000000000E+00  0.10001829885E+04  0.10001829885E+04  0.51100000000E-03 0. -1.
         -2   -1    0    0    0  501 -0.00000000000E+00 -0.00000000000E+00 -0.29746863029E+02  0.29746863139E+02  0.25500000000E-02 0.  1.
         11    1    1    2    0    0  0.67027103291E+02  0.11687797880E+03  0.60154327972E+03  0.61644741210E+03  0.51100000000E-03 0. -1.
         22    1    1    2    0    0  0.19039121571E+02  0.94125724251E+01  0.11653828326E+03  0.11845782429E+03  0.00000000000E+00 0.  1.
         -2    1    1    2    0  501 -0.86066224862E+02 -0.12629055122E+03  0.25235456250E+03  0.29502461526E+03  0.25500000000E-02 0.  1.
<mgrwt>
<rscale>  0 0.15282898E+03</rscale>
<asrwt>0</asrwt>
<pdfrwt beam="1">  1       11 0.10000000E+01 0.15634761E+03</pdfrwt>
<pdfrwt beam="2">  1       -2 0.45772778E-02 0.15282898E+03</pdfrwt>
<totfact> 0.17042349E+03</totfact>
</mgrwt>
</event>
<event>
 5    1  0.2847672E-003  0.2197195E+03  0.7818608E-02  0.1435741E+00
         11   -1    0    0    0    0  0.00000000000E+00  0.00000000000E+00  0.99990817865E+03  0.99990817865E+03  0.51100000000E-03 0.  1.
          2   -1    0    0  501    0 -0.00000000000E+00 -0.00000000000E+00 -0.14561439280E+03  0.14561439282E+03  0.25500000000E-02 0.  1.
         11    1    1    2    0    0 -0.22596253202E+03  0.58825967038E+02  0.26438019695E+03  0.35272715917E+03  0.51100000000E-03 0.  1.
         22    1    1    2    0    0  0.17568520599E+03 -0.71395680441E+02 -0.10709776229E+02  0.18994034352E+03  0.00000000000E+00 0.  1.
          2    1    1    2  501    0  0.50277326025E+02  0.12569713403E+02  0.60062336513E+03  0.60285506878E+03  0.25500000000E-02 0.  1.
<mgrwt>
<rscale>  0 0.51824774E+02</rscale>
<asrwt>0</asrwt>
<pdfrwt beam="1">  1       11 0.10000000E+01 0.21971951E+03</pdfrwt>
<pdfrwt beam="2">  1        2 0.22400157E-01 0.51824774E+02</pdfrwt>
<totfact> 0.28617371E+02</totfact>
</mgrwt>
</event>
<event>
 5    1  0.2847672E-003  0.2063442E+03  0.7818608E-02  0.1345921E+00
         11   -1    0    0    0    0  0.00000000000E+00  0.00000000000E+00  0.10003495808E+04  0.10003495808E+04  0.51100000000E-03 0.  1.
          2   -1    0    0  501    0 -0.00000000000E+00 -0.00000000000E+00 -0.72344782566E+02  0.72344782611E+02  0.25500000000E-02 0.  1.
         11    1    1    2    0    0  0.20055163742E+03  0.37621221235E+02  0.48910370386E+03  0.52996108224E+03  0.51100000000E-03 0.  1.
         22    1    1    2    0    0  0.88506121884E+01 -0.25279407746E+02 -0.23082044559E+02  0.35357638116E+02  0.00000000000E+00 0.  1.
          2    1    1    2  501    0 -0.20940224961E+03 -0.12341813489E+02  0.46198313891E+03  0.50737564303E+03  0.25500000000E-02 0.  1.
<mgrwt>
<rscale>  0 0.74341913E+02</rscale>
<asrwt>0</asrwt>
<pdfrwt beam="1">  1       11 0.10000000E+01 0.20634421E+03</pdfrwt>
<pdfrwt beam="2">  1        2 0.11133857E-01 0.74341913E+02</pdfrwt>
<totfact> 0.64458756E+02</totfact>
</mgrwt>
</event>
<event>
 5    1  0.4444361E-003  0.1793254E+03  0.7818608E-02  0.1421334E+00
         11   -1    0    0    0    0  0.00000000000E+00  0.00000000000E+00  0.10001078770E+04  0.10001078770E+04  0.51100000000E-03 0. -1.
          2   -1    0    0  501    0 -0.00000000000E+00 -0.00000000000E+00 -0.38859110950E+03  0.38859110951E+03  0.25500000000E-02 0. -1.
         11    1    1    2    0    0 -0.12259258247E+02  0.17923174216E+03  0.96596689318E+03  0.98253058249E+03  0.51100000000E-03 0. -1.
         22    1    1    2    0    0 -0.11371770106E+02 -0.12242857912E+02 -0.96775794244E+02  0.98207734302E+02  0.00000000000E+00 0. -1.
          2    1    1    2  501    0  0.23631028353E+02 -0.16698888425E+03 -0.25767433147E+03  0.30796066968E+03  0.25500000000E-02 0. -1.
<mgrwt>
<rscale>  0 0.54739601E+02</rscale>
<asrwt>0</asrwt>
<pdfrwt beam="1">  1       11 0.10000000E+01 0.17932543E+03</pdfrwt>
<pdfrwt beam="2">  1        2 0.59789695E-01 0.54739601E+02</pdfrwt>
<totfact> 0.10313661E+02</totfact>
</mgrwt>
</event>
<event>
 5    1  0.2847672E-003  0.4000365E+02  0.7818608E-02  0.1651426E+00
         11   -1    0    0    0    0  0.00000000000E+00  0.00000000000E+00  0.10001724117E+04  0.10001724117E+04  0.51100000000E-03 0.  1.
          2   -1    0    0  501    0 -0.00000000000E+00 -0.00000000000E+00 -0.51868996285E+01  0.51869002553E+01  0.25500000000E-02 0.  1.
         11    1    1    2    0    0 -0.24792102497E+02  0.42463752775E+02  0.22204849173E+03  0.22742768373E+03  0.51100000000E-03 0.  1.
         22    1    1    2    0    0  0.15727677417E+02 -0.49383748383E+01  0.32063019568E+02  0.36052525664E+02  0.00000000000E+00 0. -1.
          2    1    1    2  501    0  0.90644250796E+01 -0.37525377936E+02  0.74087400079E+03  0.74187910258E+03  0.25500000000E-02 0.  1.
<mgrwt>
<rscale>  0 0.25679766E+02</rscale>
<asrwt>0</asrwt>
<pdfrwt beam="1">  1       11 0.10000000E+01 0.40003654E+02</pdfrwt>
<pdfrwt beam="2">  1        2 0.79812217E-03 0.25679766E+02</pdfrwt>
<totfact> 0.16215351E+04</totfact>
</mgrwt>
</event>
<event>
 5    1  0.2847672E-003  0.5547678E+02  0.7818608E-02  0.1626147E+00
         11   -1    0    0    0    0  0.00000000000E+00  0.00000000000E+00  0.99997427998E+03  0.99997427998E+03  0.51100000000E-03 0. -1.
          2   -1    0    0  501    0 -0.00000000000E+00 -0.00000000000E+00 -0.47748743450E+01  0.47748750259E+01  0.25500000000E-02 0. -1.
         11    1    1    2    0    0 -0.19263376614E+02  0.55348870496E+02  0.31237881293E+03  0.31782872418E+03  0.51100000000E-03 0. -1.
         22    1    1    2    0    0  0.13698955935E+02 -0.10437994240E+01  0.53472074379E+02  0.55208818583E+02  0.00000000000E+00 0.  1.
          2    1    1    2  501    0  0.55644206791E+01 -0.54305071072E+02  0.62934851832E+03  0.63171161224E+03  0.25500000000E-02 0. -1.
<mgrwt>
<rscale>  0 0.27607543E+02</rscale>
<asrwt>0</asrwt>
<pdfrwt beam="1">  1       11 0.10000000E+01 0.55476776E+02</pdfrwt>
<pdfrwt beam="2">  1        2 0.73457719E-03 0.27607543E+02</pdfrwt>
<totfact> 0.18390533E+04</totfact>
</mgrwt>
</event>
<event>
 5    1  0.2847672E-003  0.1474740E+03  0.7818608E-02  0.1487184E+00
         11   -1    0    0    0    0  0.00000000000E+00  0.00000000000E+00  0.10000074179E+04  0.10000074179E+04  0.51100000000E-03 0.  1.
         -2   -1    0    0    0  501 -0.00000000000E+00 -0.00000000000E+00 -0.10797032917E+03  0.10797032920E+03  0.25500000000E-02 0.  1.
         11    1    1    2    0    0  0.75948942875E+02 -0.12737345870E+03  0.86018309676E+03  0.87287295746E+03  0.51100000000E-03 0.  1.
         22    1    1    2    0    0  0.65142681279E+01  0.10717157115E+02 -0.62599687764E+02  0.63843668864E+02  0.00000000000E+00 0.  1.
         -2    1    1    2    0  501 -0.82463211003E+02  0.11665630159E+03  0.94453679736E+02  0.17126112078E+03  0.25500000000E-02 0.  1.
<mgrwt>
<rscale>  0 0.43006613E+02</rscale>
<asrwt>0</asrwt>
<pdfrwt beam="1">  1       11 0.10000000E+01 0.14747404E+03</pdfrwt>
<pdfrwt beam="2">  1       -2 0.16610943E-01 0.43006613E+02</pdfrwt>
<totfact> 0.21283676E+02</totfact>
</mgrwt>
</event>
<event>
 5    1  0.2847672E-003  0.1473740E+03  0.7818608E-02  0.1358105E+00
         11   -1    0    0    0    0  0.00000000000E+00  0.00000000000E+00  0.10001825491E+04  0.10001825491E+04  0.51100000000E-03 0.  1.
          2   -1    0    0  501    0 -0.00000000000E+00 -0.00000000000E+00 -0.42955743497E+02  0.42955743573E+02  0.25500000000E-02 0.  1.
         11    1    1    2    0    0 -0.10640629955E+03  0.11097915298E+03  0.61590916442E+03  0.63480924048E+03  0.51100000000E-03 0.  1.
         22    1    1    2    0    0  0.32793740681E+02  0.82252699960E+01 -0.55260264817E+01  0.34258159073E+02  0.00000000000E+00 0.  1.
          2    1    1    2  501    0  0.73612558865E+02 -0.11920442297E+03  0.34684366770E+03  0.37407089316E+03  0.25500000000E-02 0.  1.
<mgrwt>
<rscale>  0 0.70587863E+02</rscale>
<asrwt>0</asrwt>
<pdfrwt beam="1">  1       11 0.10000000E+01 0.14737401E+03</pdfrwt>
<pdfrwt beam="2">  1        2 0.66097821E-02 0.70587863E+02</pdfrwt>
<totfact> 0.12141399E+03</totfact>
</mgrwt>
</event>
<event>
 5    1  0.2847672E-003  0.1375209E+03  0.7818608E-02  0.1423007E+00
         11   -1    0    0    0    0  0.00000000000E+00  0.00000000000E+00  0.10003826156E+04  0.10003826156E+04  0.51100000000E-03 0. -1.
          2   -1    0    0  501    0 -0.00000000000E+00 -0.00000000000E+00 -0.28809504978E+02  0.28809505091E+02  0.25500000000E-02 0. -1.
         11    1    1    2    0    0  0.15280133322E+03 -0.66002383130E+01  0.32293341558E+03  0.35732030655E+03  0.51100000000E-03 0. -1.
         22    1    1    2    0    0 -0.21494166497E+02  0.85861181403E+00  0.19127426972E+02  0.28785323869E+02  0.00000000000E+00 0.  1.
          2    1    1    2  501    0 -0.13130716672E+03  0.57416264990E+01  0.62951226810E+03  0.64308649029E+03  0.25500000000E-02 0. -1.
<mgrwt>
<rscale>  0 0.54389828E+02</rscale>
<asrwt>0</asrwt>
<pdfrwt beam="1">  1       11 0.10000000E+01 0.13752092E+03</pdfrwt>
<pdfrwt beam="2">  1        2 0.44339273E-02 0.54389828E+02</pdfrwt>
<totfact> 0.19618599E+03</totfact>
</mgrwt>
</event>
<event>
 5    1  0.2847672E-003  0.2306348E+03  0.7818608E-02  0.1127682E+00
         11   -1    0    0    0    0  0.00000000000E+00  0.00000000000E+00  0.10002259933E+04  0.10002259933E+04  0.51100000000E-03 0.  1.
          2   -1    0    0  501    0 -0.00000000000E+00 -0.00000000000E+00 -0.33238041874E+03  0.33238041875E+03  0.25500000000E-02 0.  1.
         11    1    1    2    0    0 -0.95391745832E+02 -0.18948890076E+03  0.90474339119E+03  0.92928264408E+03  0.51100000000E-03 0.  1.
         22    1    1    2    0    0 -0.65226834573E+01 -0.15053225071E+02  0.40629421635E+02  0.43816605150E+02  0.00000000000E+00 0.  1.
          2    1    1    2  501    0  0.10191442929E+03  0.20454212584E+03 -0.27752723826E+03  0.35950716283E+03  0.25500000000E-02 0.  1.
<mgrwt>
<rscale>  0 0.22852578E+03</rscale>
<asrwt>0</asrwt>
<pdfrwt beam="1">  1       11 0.10000000E+01 0.23063476E+03</pdfrwt>
<pdfrwt beam="2">  1        2 0.51147004E-01 0.22852578E+03</pdfrwt>
<totfact> 0.12145471E+02</totfact>
</mgrwt>
</event>
<event>
 5    1  0.2847672E-003  0.9986282E+02  0.7818608E-02  0.1485775E+00
         11   -1    0    0    0    0  0.00000000000E+00  0.00000000000E+00  0.10003409512E+04  0.10003409512E+04  0.51100000000E-03 0. -1.
          2   -1    0    0  501    0 -0.00000000000E+00 -0.00000000000E+00 -0.12748128748E+02  0.12748129003E+02  0.25500000000E-02 0. -1.
         11    1    1    2    0    0 -0.70821778232E+01  0.10036482861E+03  0.57876922077E+03  0.58744962931E+03  0.51100000000E-03 0. -1.
         22    1    1    2    0    0 -0.18289247342E+02 -0.39204143318E+01  0.61312027828E+02  0.64101723637E+02  0.00000000000E+00 0. -1.
          2    1    1    2  501    0  0.25371425166E+02 -0.96444414278E+02  0.34751157385E+03  0.36153772725E+03  0.25500000000E-02 0. -1.
<mgrwt>
<rscale>  0 0.43219268E+02</rscale>
<asrwt>0</asrwt>
<pdfrwt beam="1">  1       11 0.10000000E+01 0.99862817E+02</pdfrwt>
<pdfrwt beam="2">  1        2 0.19619192E-02 0.43219268E+02</pdfrwt>
<totfact> 0.54883462E+03</totfact>
</mgrwt>
</event>
<event>
 5    1  0.2847672E-003  0.1110357E+03  0.7818608E-02  0.1258664E+00
         11   -1    0    0    0    0  0.00000000000E+00  0.00000000000E+00  0.10000579533E+04  0.10000579533E+04  0.51100000000E-03 0. -1.
          2   -1    0    0  501    0 -0.00000000000E+00 -0.00000000000E+00 -0.12375327988E+02  0.12375328250E+02  0.25500000000E-02 0. -1.
         11    1    1    2    0    0  0.44079164836E+02 -0.97234710437E+02  0.58803275565E+03  0.59764544958E+03  0.51100000000E-03 0. -1.
         22    1    1    2    0    0 -0.12213913687E+02  0.69910618890E+01  0.33478137577E+02  0.36315841303E+02  0.00000000000E+00 0. -1.
          2    1    1    2  501    0 -0.31865251148E+02  0.90243648548E+02  0.36617173204E+03  0.37847199062E+03  0.25500000000E-02 0. -1.
<mgrwt>
<rscale>  0 0.11103570E+03</rscale>
<asrwt>0</asrwt>
<pdfrwt beam="1">  1       11 0.10000000E+01 0.10675936E+03</pdfrwt>
<pdfrwt beam="2">  1        2 0.19040069E-02 0.11103570E+03</pdfrwt>
<totfact> 0.65217690E+03</totfact>
</mgrwt>
</event>
<event>
 5    1  0.2847672E-003  0.2723491E+03  0.7818608E-02  0.1273526E+00
         11   -1    0    0    0    0  0.00000000000E+00  0.00000000000E+00  0.99965389223E+03  0.99965389223E+03  0.51100000000E-03 0.  1.
          2   -1    0    0  501    0 -0.00000000000E+00 -0.00000000000E+00 -0.80596594834E+03  0.80596594835E+03  0.25500000000E-02 0.  1.
         11    1    1    2    0    0  0.50266965995E+01 -0.27279989143E+03  0.95265918785E+03  0.99096144054E+03  0.51100000000E-03 0.  1.
         22    1    1    2    0    0  0.34262429249E+02  0.18989896197E+02 -0.97327850581E+02  0.10491539789E+03  0.00000000000E+00 0.  1.
          2    1    1    2  501    0 -0.39289125849E+02  0.25380999524E+03 -0.66164339338E+03  0.70974300215E+03  0.25500000000E-02 0.  1.
<mgrwt>
<rscale>  0 0.10328965E+03</rscale>
<asrwt>0</asrwt>
<pdfrwt beam="1">  1       11 0.10000000E+01 0.27234909E+03</pdfrwt>
<pdfrwt beam="2">  1        2 0.12395184E+00 0.10328965E+03</pdfrwt>
<totfact> 0.45520268E+01</totfact>
</mgrwt>
</event>
<event>
 5    1  0.2847672E-003  0.2402260E+03  0.7818608E-02  0.1278006E+00
         11   -1    0    0    0    0  0.00000000000E+00  0.00000000000E+00  0.10002972900E+04  0.10002972900E+04  0.51100000000E-03 0. -1.
          2   -1    0    0  501    0 -0.00000000000E+00 -0.00000000000E+00 -0.79342804558E+02  0.79342804599E+02  0.25500000000E-02 0. -1.
         11    1    1    2    0    0 -0.14347182057E+02  0.24569328475E+03  0.36812225321E+03  0.44281488808E+03  0.51100000000E-03 0. -1.
         22    1    1    2    0    0  0.41473037130E+02 -0.94932051608E+01  0.92740971880E+01  0.43544719906E+02  0.00000000000E+00 0. -1.
          2    1    1    2  501    0 -0.27125855073E+02 -0.23620007959E+03  0.54355813505E+03  0.59328048662E+03  0.25500000000E-02 0. -1.
<mgrwt>
<rscale>  0 0.10109683E+03</rscale>
<asrwt>0</asrwt>
<pdfrwt beam="1">  1       11 0.10000000E+01 0.24022598E+03</pdfrwt>
<pdfrwt beam="2">  1        2 0.12210214E-01 0.10109683E+03</pdfrwt>
<totfact> 0.58796810E+02</totfact>
</mgrwt>
</event>
<event>
 5    1  0.2847672E-003  0.1498735E+03  0.7818608E-02  0.1471838E+00
         11   -1    0    0    0    0  0.00000000000E+00  0.00000000000E+00  0.10001807212E+04  0.10001807212E+04  0.51100000000E-03 0. -1.
          2   -1    0    0  501    0 -0.00000000000E+00 -0.00000000000E+00 -0.35626795406E+02  0.35626795497E+02  0.25500000000E-02 0. -1.
         11    1    1    2    0    0 -0.12981421379E+03  0.79323186251E+02  0.62759996175E+03  0.64577520080E+03  0.51100000000E-03 0. -1.
         22    1    1    2    0    0  0.11667089368E+02  0.72852230873E+01 -0.75394260546E+01  0.15685611081E+02  0.00000000000E+00 0.  1.
          2    1    1    2  501    0  0.11814712442E+03 -0.86608409338E+02  0.34449339006E+03  0.37434670478E+03  0.25500000000E-02 0. -1.
<mgrwt>
<rscale>  0 0.45403584E+02</rscale>
<asrwt>0</asrwt>
<pdfrwt beam="1">  1       11 0.10000000E+01 0.14987353E+03</pdfrwt>
<pdfrwt beam="2">  1        2 0.54820358E-02 0.45403584E+02</pdfrwt>
<totfact> 0.14714091E+03</totfact>
</mgrwt>
</event>
<event>
 5    1  0.2847672E-003  0.4307501E+02  0.7818608E-02  0.1493838E+00
         11   -1    0    0    0    0  0.00000000000E+00  0.00000000000E+00  0.10002941330E+04  0.10002941330E+04  0.51100000000E-03 0. -1.
          2   -1    0    0  501    0 -0.00000000000E+00 -0.00000000000E+00 -0.28647267166E+01  0.28647278515E+01  0.25500000000E-02 0. -1.
         11    1    1    2    0    0  0.22247666475E+02  0.96613670390E+01  0.93562190352E+02  0.96654974732E+02  0.51100000000E-03 0. -1.
         22    1    1    2    0    0  0.17597476133E+02  0.36880508473E+01  0.10469673297E+03  0.10622936873E+03  0.00000000000E+00 0. -1.
          2    1    1    2  501    0 -0.39845142608E+02 -0.13349417886E+02  0.79917048291E+03  0.80027451735E+03  0.25500000000E-02 0. -1.
<mgrwt>
<rscale>  0 0.42021927E+02</rscale>
<asrwt>0</asrwt>
<pdfrwt beam="1">  1       11 0.10000000E+01 0.43075006E+02</pdfrwt>
<pdfrwt beam="2">  1        2 0.44085689E-03 0.42021927E+02</pdfrwt>
<totfact> 0.40010105E+04</totfact>
</mgrwt>
</event>
<event>
 5    1  0.2847672E-003  0.5536873E+02  0.7818608E-02  0.1656403E+00
         11   -1    0    0    0    0  0.00000000000E+00  0.00000000000E+00  0.10001256835E+04  0.10001256835E+04  0.51100000000E-03 0.  1.
          2   -1    0    0  501    0 -0.00000000000E+00 -0.00000000000E+00 -0.56036109078E+01  0.56036114880E+01  0.25500000000E-02 0.  1.
         11    1    1    2    0    0 -0.64159341384E+02  0.42039265123E+01  0.29285972135E+03  0.29983480531E+03  0.51100000000E-03 0.  1.
         22    1    1    2    0    0  0.11521172388E+02 -0.11823318626E+01  0.29876816100E+02  0.32043087587E+02  0.00000000000E+00 0. -1.
          2    1    1    2  501    0  0.52638168996E+02 -0.30215946498E+01  0.67178553513E+03  0.67385140208E+03  0.25500000000E-02 0.  1.
<mgrwt>
<rscale>  0 0.25323164E+02</rscale>
<asrwt>0</asrwt>
<pdfrwt beam="1">  1       11 0.10000000E+01 0.55368734E+02</pdfrwt>
<pdfrwt beam="2">  1        2 0.86220236E-03 0.25323164E+02</pdfrwt>
<totfact> 0.14606083E+04</totfact>
</mgrwt>
</event>
<event>
 5    1  0.2847672E-003  0.1079800E+03  0.7818608E-02  0.1264357E+00
         11   -1    0    0    0    0  0.00000000000E+00  0.00000000000E+00  0.10002322769E+04  0.10002322769E+04  0.51100000000E-03 0. -1.
          2   -1    0    0  501    0 -0.00000000000E+00 -0.00000000000E+00 -0.13010014107E+02  0.13010014357E+02  0.25500000000E-02 0. -1.
         11    1    1    2    0    0 -0.10257644739E+03  0.19625986120E+02  0.30162689801E+03  0.31919569624E+03  0.51100000000E-03 0. -1.
         22    1    1    2    0    0  0.12450842292E+02 -0.71996926208E+01  0.51985500364E+02  0.53938402792E+02  0.00000000000E+00 0. -1.
          2    1    1    2  501    0  0.90125605103E+02 -0.12426293499E+02  0.63360986437E+03  0.64010819218E+03  0.25500000000E-02 0. -1.
<mgrwt>
<rscale>  0 0.10797996E+03</rscale>
<asrwt>0</asrwt>
<pdfrwt beam="1">  1       11 0.10000000E+01 0.10443715E+03</pdfrwt>
<pdfrwt beam="2">  1        2 0.20020055E-02 0.10797996E+03</pdfrwt>
<totfact> 0.60711714E+03</totfact>
</mgrwt>
</event>
<event>
 5    1  0.2847672E-003  0.2995727E+03  0.7818608E-02  0.1334692E+00
         11   -1    0    0    0    0  0.00000000000E+00  0.00000000000E+00  0.10000384516E+04  0.10000384516E+04  0.51100000000E-03 0. -1.
          2   -1    0    0  501    0 -0.00000000000E+00 -0.00000000000E+00 -0.17508368375E+03  0.17508368377E+03  0.25500000000E-02 0. -1.
         11    1    1    2    0    0  0.88672907747E+02 -0.28874072510E+03  0.77399501834E+03  0.83084437732E+03  0.51100000000E-03 0. -1.
         22    1    1    2    0    0  0.12164279158E+02  0.16292419806E+02 -0.35728944057E+02  0.41109245602E+02  0.00000000000E+00 0.  1.
          2    1    1    2  501    0 -0.10083718691E+03  0.27244830529E+03  0.86688693515E+02  0.30316851240E+03  0.25500000000E-02 0. -1.
<mgrwt>
<rscale>  0 0.78045351E+02</rscale>
<asrwt>0</asrwt>
<pdfrwt beam="1">  1       11 0.10000000E+01 0.29957268E+03</pdfrwt>
<pdfrwt beam="2">  1        2 0.26936986E-01 0.78045351E+02</pdfrwt>
<totfact> 0.23788244E+02</totfact>
</mgrwt>
</event>
<event>
 5    1  0.2847672E-003  0.1647850E+03  0.7818608E-02  0.1366012E+00
         11   -1    0    0    0    0  0.00000000000E+00  0.00000000000E+00  0.99979654944E+03  0.99979654944E+03  0.51100000000E-03 0. -1.
          2   -1    0    0  501    0 -0.00000000000E+00 -0.00000000000E+00 -0.35890132544E+03  0.35890132545E+03  0.25500000000E-02 0. -1.
         11    1    1    2    0    0 -0.42936882606E+02  0.15957966443E+03  0.96833981682E+03  0.98233967956E+03  0.51100000000E-03 0. -1.
         22    1    1    2    0    0  0.26156205945E+02 -0.10802867294E+02 -0.10102666103E+03  0.10491537204E+03  0.00000000000E+00 0.  1.
          2    1    1    2  501    0  0.16780676661E+02 -0.14877679714E+03 -0.22641793179E+03  0.27144282329E+03  0.25500000000E-02 0. -1.
<mgrwt>
<rscale>  0 0.68288340E+02</rscale>
<asrwt>0</asrwt>
<pdfrwt beam="1">  1       11 0.10000000E+01 0.16478504E+03</pdfrwt>
<pdfrwt beam="2">  1        2 0.55204353E-01 0.68288340E+02</pdfrwt>
<totfact> 0.11201226E+02</totfact>
</mgrwt>
</event>
<event>
 5    1  0.2847672E-003  0.2715938E+03  0.7818608E-02  0.1100371E+00
         11   -1    0    0    0    0  0.00000000000E+00  0.00000000000E+00  0.10007034097E+04  0.10007034097E+04  0.51100000000E-03 0. -1.
          2   -1    0    0  501    0 -0.00000000000E+00 -0.00000000000E+00 -0.32609479745E+03  0.32609479746E+03  0.25500000000E-02 0. -1.
         11    1    1    2    0    0  0.24907209924E+03  0.92376343683E+02  0.92194744491E+03  0.95945682064E+03  0.51100000000E-03 0. -1.
         22    1    1    2    0    0 -0.14439206487E+02 -0.22571988244E+02 -0.24848047937E+02  0.36543273301E+02  0.00000000000E+00 0. -1.
          2    1    1    2  501    0 -0.23463289275E+03 -0.69804355439E+02 -0.22249078474E+03  0.33079811320E+03  0.25500000000E-02 0. -1.
<mgrwt>
<rscale>  0 0.27159381E+03</rscale>
<asrwt>0</asrwt>
<pdfrwt beam="1">  1       11 0.10000000E+01 0.26565071E+03</pdfrwt>
<pdfrwt beam="2">  1        2 0.50203718E-01 0.27159381E+03</pdfrwt>
<totfact> 0.12389661E+02</totfact>
</mgrwt>
</event>
<event>
 5    1  0.2847672E-003  0.4645702E+02  0.7818608E-02  0.1660885E+00
         11   -1    0    0    0    0  0.00000000000E+00  0.00000000000E+00  0.10001683298E+04  0.10001683298E+04  0.51100000000E-03 0. -1.
          2   -1    0    0  501    0 -0.00000000000E+00 -0.00000000000E+00 -0.44669495015E+01  0.44669502293E+01  0.25500000000E-02 0. -1.
         11    1    1    2    0    0  0.47961918257E+02 -0.28531831133E+02  0.27850490797E+03  0.28404118497E+03  0.51100000000E-03 0. -1.
         22    1    1    2    0    0 -0.13417163794E+02  0.10987772060E+01  0.45475929607E+02  0.47426656737E+02  0.00000000000E+00 0.  1.
          2    1    1    2  501    0 -0.34544754463E+02  0.27433053927E+02  0.67172054269E+03  0.67316743830E+03  0.25500000000E-02 0. -1.
<mgrwt>
<rscale>  0 0.25008155E+02</rscale>
<asrwt>0</asrwt>
<pdfrwt beam="1">  1       11 0.10000000E+01 0.46457022E+02</pdfrwt>
<pdfrwt beam="2">  1        2 0.68733872E-03 0.25008155E+02</pdfrwt>
<totfact> 0.19609117E+04</totfact>
</mgrwt>
</event>
<event>
 5    1  0.2847672E-003  0.1718123E+03  0.7818608E-02  0.1321573E+00
         11   -1    0    0    0    0  0.00000000000E+00  0.00000000000E+00  0.10000610733E+04  0.10000610733E+04  0.51100000000E-03 0. -1.
         -2   -1    0    0    0  501 -0.00000000000E+00 -0.00000000000E+00 -0.64146774558E+03  0.64146774558E+03  0.25500000000E-02 0.  1.
         11    1    1    2    0    0  0.86127679568E+01 -0.17279325097E+03  0.97563990279E+03  0.99086069014E+03  0.51100000000E-03 0. -1.
         22    1    1    2    0    0  0.22409664373E+02  0.96137865846E+02 -0.48439680785E+03  0.49435306186E+03  0.00000000000E+00 0.  1.
         -2    1    1    2    0  501 -0.31022432330E+02  0.76655385127E+02 -0.13264976723E+03  0.15631506687E+03  0.25500000000E-02 0.  1.
<mgrwt>
<rscale>  0 0.82694857E+02</rscale>
<asrwt>0</asrwt>
<pdfrwt beam="1">  1       11 0.10000000E+01 0.17181233E+03</pdfrwt>
<pdfrwt beam="2">  1       -2 0.98693370E-01 0.82694857E+02</pdfrwt>
<totfact> 0.74299369E+00</totfact>
</mgrwt>
</event>
<event>
 5    1  0.2847672E-003  0.8806997E+02  0.7818608E-02  0.1366615E+00
         11   -1    0    0    0    0  0.00000000000E+00  0.00000000000E+00  0.10001781237E+04  0.10001781237E+04  0.51100000000E-03 0. -1.
          2   -1    0    0  501    0 -0.00000000000E+00 -0.00000000000E+00 -0.29248765420E+02  0.29248765531E+02  0.25500000000E-02 0. -1.
         11    1    1    2    0    0 -0.68171353233E+02 -0.25837370947E+02  0.42024286466E+03  0.42651959913E+03  0.51100000000E-03 0. -1.
         22    1    1    2    0    0 -0.52599895271E+02  0.29908806076E+01  0.17165254523E+02  0.55410651613E+02  0.00000000000E+00 0. -1.
          2    1    1    2  501    0  0.12077124850E+03  0.22846490340E+02  0.53352123905E+03  0.54749663845E+03  0.25500000000E-02 0. -1.
<mgrwt>
<rscale>  0 0.68117208E+02</rscale>
<asrwt>0</asrwt>
<pdfrwt beam="1">  1       11 0.10000000E+01 0.88069972E+02</pdfrwt>
<pdfrwt beam="2">  1        2 0.45006115E-02 0.68117208E+02</pdfrwt>
<totfact> 0.19712169E+03</totfact>
</mgrwt>
</event>
<event>
 5    1  0.2847672E-003  0.1644843E+03  0.7818608E-02  0.1236780E+00
         11   -1    0    0    0    0  0.00000000000E+00  0.00000000000E+00  0.10005757954E+04  0.10005757954E+04  0.51100000000E-03 0. -1.
          2   -1    0    0  501    0 -0.00000000000E+00 -0.00000000000E+00 -0.93140152955E+02  0.93140152990E+02  0.25500000000E-02 0. -1.
         11    1    1    2    0    0 -0.19137751224E+03 -0.36620450620E+02  0.83556417622E+03  0.85798246030E+03  0.51100000000E-03 0. -1.
         22    1    1    2    0    0  0.88223647842E+02  0.30499346171E+02 -0.22246289625E+02  0.95961031453E+02  0.00000000000E+00 0. -1.
          2    1    1    2  501    0  0.10315386440E+03  0.61211044486E+01  0.94117755813E+02  0.13977245660E+03  0.25500000000E-02 0. -1.
<mgrwt>
<rscale>  0 0.12391157E+03</rscale>
<asrwt>0</asrwt>
<pdfrwt beam="1">  1       11 0.10000000E+01 0.16448426E+03</pdfrwt>
<pdfrwt beam="2">  1        2 0.14337505E-01 0.12391157E+03</pdfrwt>
<totfact> 0.49127027E+02</totfact>
</mgrwt>
</event>
<event>
 5    1  0.2847672E-003  0.1826448E+03  0.7818608E-02  0.1488627E+00
         11   -1    0    0    0    0  0.00000000000E+00  0.00000000000E+00  0.10000547161E+04  0.10000547161E+04  0.51100000000E-03 0. -1.
          2   -1    0    0  501    0 -0.00000000000E+00 -0.00000000000E+00 -0.81298543294E+02  0.81298543334E+02  0.25500000000E-02 0. -1.
         11    1    1    2    0    0  0.70692108794E+02 -0.16790106243E+03  0.85522743772E+03  0.87441529678E+03  0.51100000000E-03 0. -1.
         22    1    1    2    0    0  0.10022320560E+02  0.23061236151E+00 -0.77359631099E+00  0.10054777109E+02  0.00000000000E+00 0.  1.
          2    1    1    2  501    0 -0.80714429354E+02  0.16767045006E+03  0.64302331430E+02  0.19688318558E+03  0.25500000000E-02 0. -1.
<mgrwt>
<rscale>  0 0.42790288E+02</rscale>
<asrwt>0</asrwt>
<pdfrwt beam="1">  1       11 0.10000000E+01 0.18264475E+03</pdfrwt>
<pdfrwt beam="2">  1        2 0.12508152E-01 0.42790288E+02</pdfrwt>
<totfact> 0.54247610E+02</totfact>
</mgrwt>
</event>
<event>
 5    1  0.2847672E-003  0.2989029E+03  0.7818608E-02  0.1364002E+00
         11   -1    0    0    0    0  0.00000000000E+00  0.00000000000E+00  0.10000358650E+04  0.10000358650E+04  0.51100000000E-03 0. -1.
         -2   -1    0    0    0  501 -0.00000000000E+00 -0.00000000000E+00 -0.18175556786E+03  0.18175556788E+03  0.25500000000E-02 0.  1.
         11    1    1    2    0    0  0.15579095139E+03  0.25782244209E+03  0.76575874251E+03  0.82287889990E+03  0.51100000000E-03 0. -1.
         22    1    1    2    0    0  0.43341496531E+01 -0.15261647468E+02 -0.48641181942E+02  0.51163144131E+02  0.00000000000E+00 0.  1.
         -2    1    1    2    0  501 -0.16012510105E+03 -0.24256079462E+03  0.10116273662E+03  0.30774938888E+03  0.25500000000E-02 0.  1.
<mgrwt>
<rscale>  0 0.68863180E+02</rscale>
<asrwt>0</asrwt>
<pdfrwt beam="1">  1       11 0.10000000E+01 0.29890293E+03</pdfrwt>
<pdfrwt beam="2">  1       -2 0.27963397E-01 0.68863180E+02</pdfrwt>
<totfact> 0.90961329E+01</totfact>
</mgrwt>
</event>
<event>
 5    1  0.2847672E-003  0.4321925E+02  0.7818608E-02  0.1562140E+00
         11   -1    0    0    0    0  0.00000000000E+00  0.00000000000E+00  0.10001887821E+04  0.10001887821E+04  0.51100000000E-03 0.  1.
          2   -1    0    0  501    0 -0.00000000000E+00 -0.00000000000E+00 -0.52515644306E+01  0.52515650497E+01  0.25500000000E-02 0.  1.
         11    1    1    2    0    0 -0.61276667822E+02 -0.14463078921E+02  0.35880127404E+03  0.36428335801E+03  0.51100000000E-03 0.  1.
         22    1    1    2    0    0  0.22817430099E+02  0.12462615467E+02  0.90413460016E+02  0.94077338677E+02  0.00000000000E+00 0. -1.
          2    1    1    2  501    0  0.38459237723E+02  0.20004634533E+01  0.54572248363E+03  0.54707965048E+03  0.25500000000E-02 0.  1.
<mgrwt>
<rscale>  0 0.33521037E+02</rscale>
<asrwt>0</asrwt>
<pdfrwt beam="1">  1       11 0.10000000E+01 0.43219248E+02</pdfrwt>
<pdfrwt beam="2">  1        2 0.80808554E-03 0.33521037E+02</pdfrwt>
<totfact> 0.16927014E+04</totfact>
</mgrwt>
</event>
<event>
 5    1  0.2847672E-003  0.9650399E+02  0.7818608E-02  0.1553457E+00
         11   -1    0    0    0    0  0.00000000000E+00  0.00000000000E+00  0.10005019717E+04  0.10005019717E+04  0.51100000000E-03 0. -1.
          2   -1    0    0  501    0 -0.00000000000E+00 -0.00000000000E+00 -0.17323946708E+02  0.17323946896E+02  0.25500000000E-02 0. -1.
         11    1    1    2    0    0 -0.22356442960E+02 -0.92608912232E+02  0.44830949304E+03  0.45832043673E+03  0.51100000000E-03 0. -1.
         22    1    1    2    0    0  0.11364305331E+02 -0.47171749123E+01 -0.31037191042E+01  0.12689848190E+02  0.00000000000E+00 0. -1.
          2    1    1    2  501    0  0.10992137628E+02  0.97326087144E+02  0.53797225102E+03  0.54681563365E+03  0.25500000000E-02 0. -1.
<mgrwt>
<rscale>  0 0.34459057E+02</rscale>
<asrwt>0</asrwt>
<pdfrwt beam="1">  1       11 0.10000000E+01 0.96503986E+02</pdfrwt>
<pdfrwt beam="2">  1        2 0.26665604E-02 0.34459057E+02</pdfrwt>
<totfact> 0.35536053E+03</totfact>
</mgrwt>
</event>
<event>
 5    1  0.2847672E-003  0.3421276E+02  0.7818608E-02  0.1746710E+00
         11   -1    0    0    0    0  0.00000000000E+00  0.00000000000E+00  0.10004246786E+04  0.10004246786E+04  0.51100000000E-03 0. -1.
          2   -1    0    0  501    0 -0.00000000000E+00 -0.00000000000E+00 -0.11897218164E+02  0.11897218437E+02  0.25500000000E-02 0. -1.
         11    1    1    2    0    0  0.12145439450E+02 -0.42098257039E+02  0.25809338829E+03  0.26178611886E+03  0.51100000000E-03 0. -1.
         22    1    1    2    0    0 -0.15571060164E+01  0.11505737721E+02 -0.62192966834E+01  0.13171417194E+02  0.00000000000E+00 0. -1.
          2    1    1    2  501    0 -0.10588333434E+02  0.30592519318E+02  0.73665336883E+03  0.73736436099E+03  0.25500000000E-02 0. -1.
<mgrwt>
<rscale>  0 0.19930663E+02</rscale>
<asrwt>0</asrwt>
<pdfrwt beam="1">  1       11 0.10000000E+01 0.34212763E+02</pdfrwt>
<pdfrwt beam="2">  1        2 0.18311185E-02 0.19930663E+02</pdfrwt>
<totfact> 0.52337360E+03</totfact>
</mgrwt>
</event>
<event>
 5    1  0.2847672E-003  0.1627118E+03  0.7818608E-02  0.1185669E+00
         11   -1    0    0    0    0  0.00000000000E+00  0.00000000000E+00  0.10001439266E+04  0.10001439266E+04  0.51100000000E-03 0.  1.
          2   -1    0    0  501    0 -0.00000000000E+00 -0.00000000000E+00 -0.35665287334E+02  0.35665287425E+02  0.25500000000E-02 0.  1.
         11    1    1    2    0    0  0.96748578051E+01  0.16546114403E+03  0.49508057407E+03  0.52208789287E+03  0.51100000000E-03 0.  1.
         22    1    1    2    0    0 -0.44625077513E+02 -0.61372739426E+01  0.11822887054E+03  0.12651928510E+03  0.00000000000E+00 0. -1.
          2    1    1    2  501    0  0.34950219708E+02 -0.15932387009E+03  0.35116919461E+03  0.38720203600E+03  0.25500000000E-02 0.  1.
<mgrwt>
<rscale>  0 0.16271176E+03</rscale>
<asrwt>0</asrwt>
<pdfrwt beam="1">  1       11 0.10000000E+01 0.45045129E+02</pdfrwt>
<pdfrwt beam="2">  1        2 0.54877569E-02 0.16271176E+03</pdfrwt>
<totfact> 0.16463970E+03</totfact>
</mgrwt>
</event>
<event>
 5    1  0.2847672E-003  0.2706355E+02  0.7818608E-02  0.1768372E+00
         11   -1    0    0    0    0  0.00000000000E+00  0.00000000000E+00  0.10004599501E+04  0.10004599501E+04  0.51100000000E-03 0. -1.
          2   -1    0    0  501    0 -0.00000000000E+00 -0.00000000000E+00 -0.25022999507E+01  0.25023012501E+01  0.25500000000E-02 0. -1.
         11    1    1    2    0    0  0.37854497812E+02 -0.60078734275E+01  0.23145887020E+03  0.23461088241E+03  0.51100000000E-03 0. -1.
         22    1    1    2    0    0 -0.12472628330E+02  0.42702666575E+01  0.61660989585E+02  0.63054573755E+02  0.00000000000E+00 0.  1.
          2    1    1    2  501    0 -0.25381869482E+02  0.17376067700E+01  0.70483779039E+03  0.70529679522E+03  0.25500000000E-02 0. -1.
<mgrwt>
<rscale>  0 0.18888861E+02</rscale>
<asrwt>0</asrwt>
<pdfrwt beam="1">  1       11 0.10000000E+01 0.27063554E+02</pdfrwt>
<pdfrwt beam="2">  1        2 0.38514638E-03 0.18888861E+02</pdfrwt>
<totfact> 0.38834778E+04</totfact>
</mgrwt>
</event>
<event>
 5    1  0.2847672E-003  0.7800068E+02  0.7818608E-02  0.1450732E+00
         11   -1    0    0    0    0  0.00000000000E+00  0.00000000000E+00  0.10003450628E+04  0.10003450628E+04  0.51100000000E-03 0. -1.
          2   -1    0    0  501    0 -0.00000000000E+00 -0.00000000000E+00 -0.23478427664E+02  0.23478427803E+02  0.25500000000E-02 0. -1.
         11    1    1    2    0    0 -0.53048121817E+02  0.56184112529E+02  0.77876067638E+02  0.10970615133E+03  0.51100000000E-03 0. -1.
         22    1    1    2    0    0  0.25360431866E+02  0.17477815824E+02  0.35294328486E+02  0.46843517948E+02  0.00000000000E+00 0.  1.
          2    1    1    2  501    0  0.27687689951E+02 -0.73661928354E+02  0.86369623901E+03  0.86727382132E+03  0.25500000000E-02 0. -1.
<mgrwt>
<rscale>  0 0.49014298E+02</rscale>
<asrwt>0</asrwt>
<pdfrwt beam="1">  1       11 0.10000000E+01 0.78000678E+02</pdfrwt>
<pdfrwt beam="2">  1        2 0.36133121E-02 0.49014298E+02</pdfrwt>
<totfact> 0.25202603E+03</totfact>
</mgrwt>
</event>
<event>
 5    1  0.2847672E-003  0.1471360E+03  0.7818608E-02  0.1396097E+00
         11   -1    0    0    0    0  0.00000000000E+00  0.00000000000E+00  0.99993430767E+03  0.99993430767E+03  0.51100000000E-03 0.  1.
          2   -1    0    0  501    0 -0.00000000000E+00 -0.00000000000E+00 -0.26694534942E+02  0.26694535063E+02  0.25500000000E-02 0.  1.
         11    1    1    2    0    0 -0.12056170305E+03 -0.75031090575E+02  0.48706646532E+03  0.50734458747E+03  0.51100000000E-03 0.  1.
         22    1    1    2    0    0  0.24309915066E+01 -0.24687597689E+02  0.39789950388E+02  0.46889522830E+02  0.00000000000E+00 0.  1.
          2    1    1    2  501    0  0.11813071155E+03  0.99718688263E+02  0.44638335702E+03  0.47239473243E+03  0.25500000000E-02 0.  1.
<mgrwt>
<rscale>  0 0.60415260E+02</rscale>
<asrwt>0</asrwt>
<pdfrwt beam="1">  1       11 0.10000000E+01 0.14713604E+03</pdfrwt>
<pdfrwt beam="2">  1        2 0.41065816E-02 0.60415260E+02</pdfrwt>
<totfact> 0.21899194E+03</totfact>
</mgrwt>
</event>
<event>
 5    1  0.2847672E-003  0.8866627E+02  0.7818608E-02  0.1316714E+00
         11   -1    0    0    0    0  0.00000000000E+00  0.00000000000E+00  0.10001384325E+04  0.10001384325E+04  0.51100000000E-03 0. -1.
          2   -1    0    0  501    0 -0.00000000000E+00 -0.00000000000E+00 -0.81339040567E+01  0.81339044564E+01  0.25500000000E-02 0. -1.
         11    1    1    2    0    0 -0.68014778465E+02 -0.19043038541E+02  0.27188319456E+03  0.28090766970E+03  0.51100000000E-03 0. -1.
         22    1    1    2    0    0 -0.96554261828E+01 -0.14267319285E+02  0.94010953469E+02  0.95576372742E+02  0.00000000000E+00 0.  1.
          2    1    1    2  501    0  0.77670204647E+02  0.33310357826E+02  0.62611038037E+03  0.63178829448E+03  0.25500000000E-02 0. -1.
<mgrwt>
<rscale>  0 0.84511778E+02</rscale>
<asrwt>0</asrwt>
<pdfrwt beam="1">  1       11 0.10000000E+01 0.88666266E+02</pdfrwt>
<pdfrwt beam="2">  1        2 0.12515431E-02 0.84511778E+02</pdfrwt>
<totfact> 0.11113147E+04</totfact>
</mgrwt>
</event>
<event>
 5    1  0.2847672E-003  0.1821982E+03  0.7818608E-02  0.1380612E+00
         11   -1    0    0    0    0  0.00000000000E+00  0.00000000000E+00  0.10001071275E+04  0.10001071275E+04  0.51100000000E-03 0. -1.
          2   -1    0    0  501    0 -0.00000000000E+00 -0.00000000000E+00 -0.46867954637E+02  0.46867954707E+02  0.25500000000E-02 0. -1.
         11    1    1    2    0    0 -0.18735541261E+03 -0.58775857076E+02  0.27526101971E+03  0.33812021676E+03  0.51100000000E-03 0. -1.
         22    1    1    2    0    0  0.22201502078E+02 -0.47049466894E+01  0.33016921415E+02  0.40064452044E+02  0.00000000000E+00 0. -1.
          2    1    1    2  501    0  0.16515391053E+03  0.63480803765E+02  0.64496123170E+03  0.66879041337E+03  0.25500000000E-02 0. -1.
<mgrwt>
<rscale>  0 0.64303240E+02</rscale>
<asrwt>0</asrwt>
<pdfrwt beam="1">  1       11 0.10000000E+01 0.18219820E+03</pdfrwt>
<pdfrwt beam="2">  1        2 0.72112268E-02 0.64303240E+02</pdfrwt>
<totfact> 0.10809136E+03</totfact>
</mgrwt>
</event>
<event>
 5    1  0.2847672E-003  0.8758176E+02  0.7818608E-02  0.1517401E+00
         11   -1    0    0    0    0  0.00000000000E+00  0.00000000000E+00  0.10003286399E+04  0.10003286399E+04  0.51100000000E-03 0. -1.
         -2   -1    0    0    0  501 -0.00000000000E+00 -0.00000000000E+00 -0.11057695585E+02  0.11057695879E+02  0.25500000000E-02 0.  1.
         11    1    1    2    0    0 -0.89555350613E+02  0.35503255206E+02  0.55531720591E+03  0.56361142743E+03  0.51100000000E-03 0. -1.
         22    1    1    2    0    0  0.16917098393E+02 -0.29332917208E+01  0.20560527241E+02  0.26786707502E+02  0.00000000000E+00 0. -1.
         -2    1    1    2    0  501  0.72638252220E+02 -0.32569963485E+02  0.41339321113E+03  0.42098820081E+03  0.25500000000E-02 0.  1.
<mgrwt>
<rscale>  0 0.38778036E+02</rscale>
<asrwt>0</asrwt>
<pdfrwt beam="1">  1       11 0.10000000E+01 0.87581762E+02</pdfrwt>
<pdfrwt beam="2">  1       -2 0.17017430E-02 0.38778036E+02</pdfrwt>
<totfact> 0.59718377E+03</totfact>
</mgrwt>
</event>
<event>
 5    1  0.2847672E-003  0.6914000E+03  0.7818608E-02  0.1074915E+00
         11   -1    0    0    0    0  0.00000000000E+00  0.00000000000E+00  0.10003599460E+04  0.10003599460E+04  0.51100000000E-03 0. -1.
          2   -1    0    0  501    0 -0.00000000000E+00 -0.00000000000E+00 -0.86277937344E+03  0.86277937345E+03  0.25500000000E-02 0. -1.
         11    1    1    2    0    0 -0.53059214819E+03  0.37798099468E+03  0.10650352892E+03  0.66010655332E+03  0.51100000000E-03 0. -1.
         22    1    1    2    0    0 -0.13078784140E+03 -0.72608663395E+02 -0.35019983221E+03  0.38081150185E+03  0.00000000000E+00 0. -1.
          2    1    1    2  501    0  0.66137998959E+03 -0.30537233128E+03  0.38127687581E+03  0.82222126424E+03  0.25500000000E-02 0. -1.
<mgrwt>
<rscale>  0 0.32160098E+03</rscale>
<asrwt>0</asrwt>
<pdfrwt beam="1">  1       11 0.10000000E+01 0.69140002E+03</pdfrwt>
<pdfrwt beam="2">  1        2 0.13278306E+00 0.32160098E+03</pdfrwt>
<totfact> 0.39887880E+01</totfact>
</mgrwt>
</event>
<event>
 5    1  0.2847672E-003  0.3049993E+02  0.7818608E-02  0.1697224E+00
         11   -1    0    0    0    0  0.00000000000E+00  0.00000000000E+00  0.10003888663E+04  0.10003888663E+04  0.51100000000E-03 0. -1.
          2   -1    0    0  501    0 -0.00000000000E+00 -0.00000000000E+00 -0.29315662423E+01  0.29315673514E+01  0.25500000000E-02 0. -1.
         11    1    1    2    0    0 -0.36394460440E+01  0.41879418783E+02  0.23270952028E+03  0.23647590176E+03  0.51100000000E-03 0. -1.
         22    1    1    2    0    0 -0.72679023162E+01 -0.15171517144E+02  0.95157503316E+02  0.96633057356E+02  0.00000000000E+00 0. -1.
          2    1    1    2  501    0  0.10907348360E+02 -0.26707901638E+02  0.66959027647E+03  0.67021147454E+03  0.25500000000E-02 0. -1.
<mgrwt>
<rscale>  0 0.22651392E+02</rscale>
<asrwt>0</asrwt>
<pdfrwt beam="1">  1       11 0.10000000E+01 0.30499931E+02</pdfrwt>
<pdfrwt beam="2">  1        2 0.45118565E-03 0.22651392E+02</pdfrwt>
<totfact> 0.33234438E+04</totfact>
</mgrwt>
</event>
<event>
 5    1  0.2847672E-003  0.7306427E+02  0.7818608E-02  0.1349972E+00
         11   -1    0    0    0    0  0.00000000000E+00  0.00000000000E+00  0.10002547084E+04  0.10002547084E+04  0.51100000000E-03 0.  1.
          2   -1    0    0  501    0 -0.00000000000E+00 -0.00000000000E+00 -0.21531965711E+02  0.21531965862E+02  0.25500000000E-02 0.  1.
         11    1    1    2    0    0 -0.36356891107E+02 -0.14016162903E+02  0.96994845244E+02  0.10452883027E+03  0.51100000000E-03 0.  1.
         22    1    1    2    0    0  0.31344041533E+02  0.68848045627E+02  0.68147531349E+02  0.10181644442E+03  0.00000000000E+00 0. -1.
          2    1    1    2  501    0  0.50128495740E+01 -0.54831882724E+02  0.81358036611E+03  0.81544139958E+03  0.25500000000E-02 0.  1.
<mgrwt>
<rscale>  0 0.73064267E+02</rscale>
<asrwt>0</asrwt>
<pdfrwt beam="1">  1       11 0.10000000E+01 0.38965085E+02</pdfrwt>
<pdfrwt beam="2">  1        2 0.33134538E-02 0.73064267E+02</pdfrwt>
<totfact> 0.29573791E+03</totfact>
</mgrwt>
</event>
<event>
 5    1  0.2847672E-003  0.1441735E+03  0.7818608E-02  0.1348933E+00
         11   -1    0    0    0    0  0.00000000000E+00  0.00000000000E+00  0.99996706783E+03  0.99996706783E+03  0.51100000000E-03 0. -1.
          2   -1    0    0  501    0 -0.00000000000E+00 -0.00000000000E+00 -0.11587992050E+03  0.11587992053E+03  0.25500000000E-02 0. -1.
         11    1    1    2    0    0 -0.90060976122E+02  0.12492368689E+03  0.80886569651E+03  0.82339578694E+03  0.51100000000E-03 0. -1.
         22    1    1    2    0    0  0.13590100350E+02 -0.34798034574E+02 -0.85292152878E+02  0.93114689390E+02  0.00000000000E+00 0. -1.
          2    1    1    2  501    0  0.76470875772E+02 -0.90125652317E+02  0.16051360370E+03  0.19933651203E+03  0.25500000000E-02 0. -1.
<mgrwt>
<rscale>  0 0.73389257E+02</rscale>
<asrwt>0</asrwt>
<pdfrwt beam="1">  1       11 0.10000000E+01 0.14417350E+03</pdfrwt>
<pdfrwt beam="2">  1        2 0.17827092E-01 0.73389257E+02</pdfrwt>
<totfact> 0.37358564E+02</totfact>
</mgrwt>
</event>
<event>
 5    1  0.2847672E-003  0.1426020E+03  0.7818608E-02  0.1511719E+00
         11   -1    0    0    0    0  0.00000000000E+00  0.00000000000E+00  0.10002106347E+04  0.10002106347E+04  0.51100000000E-03 0.  1.
         -2   -1    0    0    0  501 -0.00000000000E+00 -0.00000000000E+00 -0.25635440636E+02  0.25635440763E+02  0.25500000000E-02 0. -1.
         11    1    1    2    0    0 -0.20338894408E+01 -0.13866856934E+03  0.33027525993E+03  0.35821063099E+03  0.51100000000E-03 0.  1.
         22    1    1    2    0    0 -0.92488388464E+01 -0.58738282942E+01  0.48961449582E+01  0.12000629745E+02  0.00000000000E+00 0.  1.
         -2    1    1    2    0  501  0.11282728287E+02  0.14454239763E+03  0.63940378918E+03  0.65563481473E+03  0.25500000000E-02 0. -1.
<mgrwt>
<rscale>  0 0.39527261E+02</rscale>
<asrwt>0</asrwt>
<pdfrwt beam="1">  1       11 0.10000000E+01 0.14260195E+03</pdfrwt>
<pdfrwt beam="2">  1       -2 0.39447446E-02 0.39527261E+02</pdfrwt>
<totfact> 0.18293154E+03</totfact>
</mgrwt>
</event>
<event>
 5    1  0.2847672E-003  0.6269383E+03  0.7818608E-02  0.1049555E+00
         11   -1    0    0    0    0  0.00000000000E+00  0.00000000000E+00  0.10000153137E+04  0.10000153137E+04  0.51100000000E-03 0. -1.
          2   -1    0    0  501    0 -0.00000000000E+00 -0.00000000000E+00 -0.75718770067E+03  0.75718770067E+03  0.25500000000E-02 0.  1.
         11    1    1    2    0    0  0.61921726877E+03  0.18958069273E+03  0.47619354989E+03  0.80382284240E+03  0.51100000000E-03 0. -1.
         22    1    1    2    0    0 -0.44094332883E+01 -0.23485876404E+03 -0.24143911148E+03  0.33685445923E+03  0.00000000000E+00 0.  1.
          2    1    1    2  501    0 -0.61480783548E+03  0.45278071317E+02  0.80731746130E+01  0.61652571274E+03  0.25500000000E-02 0.  1.
<mgrwt>
<rscale>  0 0.38375499E+03</rscale>
<asrwt>0</asrwt>
<pdfrwt beam="1">  1       11 0.10000000E+01 0.62693826E+03</pdfrwt>
<pdfrwt beam="2">  1        2 0.11649220E+00 0.38375499E+03</pdfrwt>
<totfact> 0.46966581E+01</totfact>
</mgrwt>
</event>
<event>
 5    1  0.2847672E-003  0.2612798E+03  0.7818608E-02  0.1263860E+00
         11   -1    0    0    0    0  0.00000000000E+00  0.00000000000E+00  0.10000200248E+04  0.10000200248E+04  0.51100000000E-03 0. -1.
          2   -1    0    0  501    0 -0.00000000000E+00 -0.00000000000E+00 -0.15800050546E+03  0.15800050548E+03  0.25500000000E-02 0. -1.
         11    1    1    2    0    0 -0.38212402290E+02  0.25987572549E+03  0.81382950757E+03  0.85516901708E+03  0.51100000000E-03 0. -1.
         22    1    1    2    0    0 -0.41880972433E+02 -0.16025260682E+02  0.27428699084E+01  0.44926029951E+02  0.00000000000E+00 0.  1.
          2    1    1    2  501    0  0.80093374723E+02 -0.24385046481E+03  0.25447141843E+02  0.25792548322E+03  0.25500000000E-02 0. -1.
<mgrwt>
<rscale>  0 0.10824218E+03</rscale>
<asrwt>0</asrwt>
<pdfrwt beam="1">  1       11 0.10000000E+01 0.26127984E+03</pdfrwt>
<pdfrwt beam="2">  1        2 0.24308256E-01 0.10824218E+03</pdfrwt>
<totfact> 0.26846527E+02</totfact>
</mgrwt>
</event>
<event>
 5    1  0.2847672E-003  0.2188672E+02  0.7818608E-02  0.1710218E+00
         11   -1    0    0    0    0  0.00000000000E+00  0.00000000000E+00  0.10000479122E+04  0.10000479122E+04  0.51100000000E-03 0. -1.
          2   -1    0    0  501    0 -0.00000000000E+00 -0.00000000000E+00 -0.40084339408E+01  0.40084347519E+01  0.25500000000E-02 0. -1.
         11    1    1    2    0    0  0.12869255204E+02 -0.29386797434E+01  0.22636325054E+02  0.26204136703E+02  0.51100000000E-03 0. -1.
         22    1    1    2    0    0  0.94809896004E+01  0.19513254001E+02  0.56424380820E+02  0.60451360584E+02  0.00000000000E+00 0. -1.
          2    1    1    2  501    0 -0.22350244805E+02 -0.16574574257E+02  0.91697877239E+03  0.91740084967E+03  0.25500000000E-02 0. -1.
<mgrwt>
<rscale>  0 0.21886722E+02</rscale>
<asrwt>0</asrwt>
<pdfrwt beam="1">  1       11 0.10000000E+01 0.13200521E+02</pdfrwt>
<pdfrwt beam="2">  1        2 0.61671174E-03 0.21886722E+02</pdfrwt>
<totfact> 0.21867517E+04</totfact>
</mgrwt>
</event>
<event>
 5    1  0.2847672E-003  0.4584276E+03  0.7818608E-02  0.1208770E+00
         11   -1    0    0    0    0  0.00000000000E+00  0.00000000000E+00  0.10001840334E+04  0.10001840334E+04  0.51100000000E-03 0.  1.
          2   -1    0    0  501    0 -0.00000000000E+00 -0.00000000000E+00 -0.51545976111E+03  0.51545976112E+03  0.25500000000E-02 0.  1.
         11    1    1    2    0    0  0.42710368402E+03  0.17399038911E+03  0.80620980802E+03  0.92879732286E+03  0.51100000000E-03 0.  1.
         22    1    1    2    0    0 -0.41031062336E+01 -0.44695551752E+02 -0.52866403950E+02  0.69349725982E+02  0.00000000000E+00 0.  1.
          2    1    1    2  501    0 -0.42300057779E+03 -0.12929483736E+03 -0.26861913181E+03  0.51749674565E+03  0.25500000000E-02 0.  1.
<mgrwt>
<rscale>  0 0.14344278E+03</rscale>
<asrwt>0</asrwt>
<pdfrwt beam="1">  1       11 0.10000000E+01 0.45842760E+03</pdfrwt>
<pdfrwt beam="2">  1        2 0.79316094E-01 0.14344278E+03</pdfrwt>
<totfact> 0.75702029E+01</totfact>
</mgrwt>
</event>
<event>
 5    1  0.2847672E-003  0.7436738E+02  0.7818608E-02  0.1614291E+00
         11   -1    0    0    0    0  0.00000000000E+00  0.00000000000E+00  0.10000564102E+04  0.10000564102E+04  0.51100000000E-03 0.  1.
          2   -1    0    0  501    0 -0.00000000000E+00 -0.00000000000E+00 -0.82022724195E+01  0.82022728158E+01  0.25500000000E-02 0.  1.
         11    1    1    2    0    0 -0.54542625918E+02  0.54441254525E+02  0.44347929913E+03  0.45012513481E+03  0.51100000000E-03 0.  1.
         22    1    1    2    0    0 -0.33227149618E+01 -0.10471988059E+02  0.99386895152E+01  0.14814874887E+02  0.00000000000E+00 0. -1.
          2    1    1    2  501    0  0.57865340879E+02 -0.43969266466E+02  0.53843614916E+03  0.54331867333E+03  0.25500000000E-02 0.  1.
<mgrwt>
<rscale>  0 0.28583843E+02</rscale>
<asrwt>0</asrwt>
<pdfrwt beam="1">  1       11 0.10000000E+01 0.74367381E+02</pdfrwt>
<pdfrwt beam="2">  1        2 0.12619592E-02 0.28583843E+02</pdfrwt>
<totfact> 0.90998057E+03</totfact>
</mgrwt>
</event>
<event>
 5    1  0.2847672E-003  0.1610787E+03  0.7818608E-02  0.1350352E+00
         11   -1    0    0    0    0  0.00000000000E+00  0.00000000000E+00  0.10001209958E+04  0.10001209958E+04  0.51100000000E-03 0.  1.
          2   -1    0    0  501    0 -0.00000000000E+00 -0.00000000000E+00 -0.37367158044E+02  0.37367158131E+02  0.25500000000E-02 0.  1.
         11    1    1    2    0    0  0.32820721776E+02  0.14869477126E+03  0.56788859965E+03  0.58794965464E+03  0.51100000000E-03 0.  1.
         22    1    1    2    0    0  0.23008678420E+02  0.23703933994E+02  0.49351195686E+02  0.59387004345E+02  0.00000000000E+00 0.  1.
          2    1    1    2  501    0 -0.55829400197E+02 -0.17239870525E+03  0.34551404246E+03  0.39015149499E+03  0.25500000000E-02 0.  1.
<mgrwt>
<rscale>  0 0.72946193E+02</rscale>
<asrwt>0</asrwt>
<pdfrwt beam="1">  1       11 0.10000000E+01 0.16107866E+03</pdfrwt>
<pdfrwt beam="2">  1        2 0.57494890E-02 0.72946193E+02</pdfrwt>
<totfact> 0.14514118E+03</totfact>
</mgrwt>
</event>
<event>
 5    1  0.2847672E-003  0.1790964E+03  0.7818608E-02  0.1366327E+00
         11   -1    0    0    0    0  0.00000000000E+00  0.00000000000E+00  0.10003644154E+04  0.10003644154E+04  0.51100000000E-03 0. -1.
          2   -1    0    0  501    0 -0.00000000000E+00 -0.00000000000E+00 -0.43165695526E+02  0.43165695601E+02  0.25500000000E-02 0. -1.
         11    1    1    2    0    0 -0.32916752644E+02 -0.17695548919E+03  0.64313348799E+03  0.66784537217E+03  0.51100000000E-03 0. -1.
         22    1    1    2    0    0 -0.24708998652E+02  0.79930840119E+01  0.25719934867E+02  0.36550500078E+02  0.00000000000E+00 0.  1.
          2    1    1    2  501    0  0.57625751296E+02  0.16896240518E+03  0.28834529702E+03  0.33913423875E+03  0.25500000000E-02 0. -1.
<mgrwt>
<rscale>  0 0.68198799E+02</rscale>
<asrwt>0</asrwt>
<pdfrwt beam="1">  1       11 0.10000000E+01 0.17909644E+03</pdfrwt>
<pdfrwt beam="2">  1        2 0.66432961E-02 0.68198799E+02</pdfrwt>
<totfact> 0.12029332E+03</totfact>
</mgrwt>
</event>
<event>
 5    1  0.2847672E-003  0.1596832E+03  0.7818608E-02  0.1189055E+00
         11   -1    0    0    0    0  0.00000000000E+00  0.00000000000E+00  0.10001146323E+04  0.10001146323E+04  0.51100000000E-03 0.  1.
          2   -1    0    0  501    0 -0.00000000000E+00 -0.00000000000E+00 -0.32613746568E+02  0.32613746668E+02  0.25500000000E-02 0.  1.
         11    1    1    2    0    0  0.10959930950E+02  0.15610244947E+03  0.23032528497E+03  0.27845615762E+03  0.51100000000E-03 0.  1.
         22    1    1    2    0    0  0.10353187027E+00 -0.12026495088E+02  0.27191285498E+02  0.29732361325E+02  0.00000000000E+00 0.  1.
          2    1    1    2  501    0 -0.11063462821E+02 -0.14407595438E+03  0.70998431531E+03  0.72453986007E+03  0.25500000000E-02 0.  1.
<mgrwt>
<rscale>  0 0.15968318E+03</rscale>
<asrwt>0</asrwt>
<pdfrwt beam="1">  1       11 0.10000000E+01 0.15648680E+03</pdfrwt>
<pdfrwt beam="2">  1        2 0.50180745E-02 0.15968318E+03</pdfrwt>
<totfact> 0.18480406E+03</totfact>
</mgrwt>
</event>
<event>
 5    1  0.2847672E-003  0.1752743E+03  0.7818608E-02  0.1377719E+00
         11   -1    0    0    0    0  0.00000000000E+00  0.00000000000E+00  0.99999667141E+03  0.99999667141E+03  0.51100000000E-03 0. -1.
         -2   -1    0    0    0  501 -0.00000000000E+00 -0.00000000000E+00 -0.12767779085E+03  0.12767779088E+03  0.25500000000E-02 0.  1.
         11    1    1    2    0    0 -0.27358539491E+02  0.17033554232E+03  0.81239451494E+03  0.83051040605E+03  0.51100000000E-03 0. -1.
         22    1    1    2    0    0 -0.18275912983E+02  0.15794128137E+02 -0.64363807955E+02  0.68747096327E+02  0.00000000000E+00 0.  1.
         -2    1    1    2    0  501  0.45634452474E+02 -0.18612967045E+03  0.12428817357E+03  0.22841695991E+03  0.25500000000E-02 0.  1.
<mgrwt>
<rscale>  0 0.65067256E+02</rscale>
<asrwt>0</asrwt>
<pdfrwt beam="1">  1       11 0.10000000E+01 0.17527426E+03</pdfrwt>
<pdfrwt beam="2">  1       -2 0.19642671E-01 0.65067256E+02</pdfrwt>
<totfact> 0.16555733E+02</totfact>
</mgrwt>
</event>
<event>
 5    1  0.2847672E-003  0.3014218E+03  0.7818608E-02  0.1374485E+00
         11   -1    0    0    0    0  0.00000000000E+00  0.00000000000E+00  0.10008213003E+04  0.10008213003E+04  0.51100000000E-03 0. -1.
          2   -1    0    0  501    0 -0.00000000000E+00 -0.00000000000E+00 -0.28676828089E+03  0.28676828090E+03  0.25500000000E-02 0. -1.
         11    1    1    2    0    0 -0.25304579692E+03 -0.16381555905E+03  0.87309721798E+03  0.92367010602E+03  0.51100000000E-03 0. -1.
         22    1    1    2    0    0  0.80406531801E+01 -0.11974324233E+02 -0.35003295200E+02  0.37858515810E+02  0.00000000000E+00 0.  1.
          2    1    1    2  501    0  0.24500514374E+03  0.17578988328E+03 -0.12404090335E+03  0.32606095938E+03  0.25500000000E-02 0. -1.
<mgrwt>
<rscale>  0 0.65935940E+02</rscale>
<asrwt>0</asrwt>
<pdfrwt beam="1">  1       11 0.10000000E+01 0.30142175E+03</pdfrwt>
<pdfrwt beam="2">  1        2 0.44154430E-01 0.65935940E+02</pdfrwt>
<totfact> 0.14106619E+02</totfact>
</mgrwt>
</event>
<event>
 5    1  0.2847672E-003  0.1786793E+03  0.7818608E-02  0.1472137E+00
         11   -1    0    0    0    0  0.00000000000E+00  0.00000000000E+00  0.10003859135E+04  0.10003859135E+04  0.51100000000E-03 0.  1.
         -2   -1    0    0    0  501 -0.00000000000E+00 -0.00000000000E+00 -0.48119704853E+02  0.48119704920E+02  0.25500000000E-02 0.  1.
         11    1    1    2    0    0 -0.81323494724E+01  0.17463578454E+03  0.61848950388E+03  0.64272315872E+03  0.51100000000E-03 0.  1.
         22    1    1    2    0    0 -0.23891699243E+01  0.11262054031E+02 -0.97197669142E+01  0.15067045590E+02  0.00000000000E+00 0.  1.
         -2    1    1    2    0  501  0.10521519397E+02 -0.18589783857E+03  0.34349647168E+03  0.39071541411E+03  0.25500000000E-02 0.  1.
<mgrwt>
<rscale>  0 0.45355036E+02</rscale>
<asrwt>0</asrwt>
<pdfrwt beam="1">  1       11 0.10000000E+01 0.17867931E+03</pdfrwt>
<pdfrwt beam="2">  1       -2 0.74058882E-02 0.45355036E+02</pdfrwt>
<totfact> 0.74162033E+02</totfact>
</mgrwt>
</event>
<event>
 5    1  0.2847672E-003  0.3407048E+02  0.7818608E-02  0.1718813E+00
         11   -1    0    0    0    0  0.00000000000E+00  0.00000000000E+00  0.99995784377E+03  0.99995784377E+03  0.51100000000E-03 0.  1.
          2   -1    0    0  501    0 -0.00000000000E+00 -0.00000000000E+00 -0.44492788337E+01  0.44492795644E+01  0.25500000000E-02 0.  1.
         11    1    1    2    0    0 -0.29306193341E+02 -0.62893364739E+01  0.75414938162E+02  0.81153075232E+02  0.51100000000E-03 0.  1.
         22    1    1    2    0    0  0.62636557194E+00 -0.13428839203E+02  0.35254688533E+02  0.37730877537E+02  0.00000000000E+00 0. -1.
          2    1    1    2  501    0  0.28679827769E+02  0.19718175677E+02  0.88483893824E+03  0.88552317056E+03  0.25500000000E-02 0.  1.
<mgrwt>
<rscale>  0 0.21401501E+02</rscale>
<asrwt>0</asrwt>
<pdfrwt beam="1">  1       11 0.10000000E+01 0.34070484E+02</pdfrwt>
<pdfrwt beam="2">  1        2 0.68447562E-03 0.21401501E+02</pdfrwt>
<totfact> 0.18974672E+04</totfact>
</mgrwt>
</event>
<event>
 5    1  0.2847672E-003  0.2685856E+03  0.7818608E-02  0.1435228E+00
         11   -1    0    0    0    0  0.00000000000E+00  0.00000000000E+00  0.10002883976E+04  0.10002883976E+04  0.51100000000E-03 0.  1.
          2   -1    0    0  501    0 -0.00000000000E+00 -0.00000000000E+00 -0.40786246735E+03  0.40786246735E+03  0.25500000000E-02 0.  1.
         11    1    1    2    0    0  0.26795103982E+03  0.23705249897E+02  0.93067126952E+03  0.96876659238E+03  0.51100000000E-03 0.  1.
         22    1    1    2    0    0 -0.72046562832E+01 -0.69901766393E+01 -0.47233454345E+02  0.48288392507E+02  0.00000000000E+00 0.  1.
          2    1    1    2  501    0 -0.26074638353E+03 -0.16715073258E+02 -0.29101188494E+03  0.39109588004E+03  0.25500000000E-02 0.  1.
<mgrwt>
<rscale>  0 0.51924675E+02</rscale>
<asrwt>0</asrwt>
<pdfrwt beam="1">  1       11 0.10000000E+01 0.26858560E+03</pdfrwt>
<pdfrwt beam="2">  1        2 0.62766166E-01 0.51924675E+02</pdfrwt>
<totfact> 0.98113513E+01</totfact>
</mgrwt>
</event>
<event>
 5    1  0.2847672E-003  0.1295786E+03  0.7818608E-02  0.1467048E+00
         11   -1    0    0    0    0  0.00000000000E+00  0.00000000000E+00  0.10000141588E+04  0.10000141588E+04  0.51100000000E-03 0. -1.
          2   -1    0    0  501    0 -0.00000000000E+00 -0.00000000000E+00 -0.27064081837E+02  0.27064081958E+02  0.25500000000E-02 0. -1.
         11    1    1    2    0    0  0.11909525737E+03  0.51204306346E+02  0.74371420436E+03  0.75492806219E+03  0.51100000000E-03 0. -1.
         22    1    1    2    0    0 -0.69518254170E+01  0.14925300778E+02  0.27547567980E+02  0.32093005181E+02  0.00000000000E+00 0. -1.
          2    1    1    2  501    0 -0.11214343195E+03 -0.66129607123E+02  0.20168830466E+03  0.24005717342E+03  0.25500000000E-02 0. -1.
<mgrwt>
<rscale>  0 0.46189796E+02</rscale>
<asrwt>0</asrwt>
<pdfrwt beam="1">  1       11 0.10000000E+01 0.12957862E+03</pdfrwt>
<pdfrwt beam="2">  1        2 0.41637637E-02 0.46189796E+02</pdfrwt>
<totfact> 0.20865423E+03</totfact>
</mgrwt>
</event>
<event>
 5    1  0.2847672E-003  0.5831553E+03  0.7818608E-02  0.1049367E+00
         11   -1    0    0    0    0  0.00000000000E+00  0.00000000000E+00  0.10002463093E+04  0.10002463093E+04  0.51100000000E-03 0. -1.
          2   -1    0    0  501    0 -0.00000000000E+00 -0.00000000000E+00 -0.93886559369E+03  0.93886559369E+03  0.25500000000E-02 0. -1.
         11    1    1    2    0    0  0.54379210557E+03  0.47649486606E+03 -0.22812573569E+03  0.75815470898E+03  0.51100000000E-03 0. -1.
         22    1    1    2    0    0 -0.34598697195E+02 -0.25083926030E+03 -0.28469916819E+03  0.38101315033E+03  0.00000000000E+00 0.  1.
          2    1    1    2  501    0 -0.50919340838E+03 -0.22565560576E+03  0.57420561950E+03  0.79994404367E+03  0.25500000000E-02 0. -1.
<mgrwt>
<rscale>  0 0.38426956E+03</rscale>
<asrwt>0</asrwt>
<pdfrwt beam="1">  1       11 0.10000000E+01 0.58315529E+03</pdfrwt>
<pdfrwt beam="2">  1        2 0.14447643E+00 0.38426956E+03</pdfrwt>
<totfact> 0.35304603E+01</totfact>
</mgrwt>
</event>
<event>
 5    1  0.2847672E-003  0.1295299E+03  0.7818608E-02  0.1469809E+00
         11   -1    0    0    0    0  0.00000000000E+00  0.00000000000E+00  0.10000838673E+04  0.10000838673E+04  0.51100000000E-03 0.  1.
          2   -1    0    0  501    0 -0.00000000000E+00 -0.00000000000E+00 -0.22212271812E+02  0.22212271959E+02  0.25500000000E-02 0.  1.
         11    1    1    2    0    0  0.21479932296E+02  0.13386673120E+03  0.53899942659E+03  0.55578959246E+03  0.51100000000E-03 0.  1.
         22    1    1    2    0    0 -0.12081090149E+02 -0.10714376875E+02  0.75067517986E+01  0.17807356164E+02  0.00000000000E+00 0. -1.
          2    1    1    2  501    0 -0.93988421469E+01 -0.12315235432E+03  0.43136541710E+03  0.44869919065E+03  0.25500000000E-02 0.  1.
<mgrwt>
<rscale>  0 0.45734231E+02</rscale>
<asrwt>0</asrwt>
<pdfrwt beam="1">  1       11 0.10000000E+01 0.12952992E+03</pdfrwt>
<pdfrwt beam="2">  1        2 0.34175591E-02 0.45734231E+02</pdfrwt>
<totfact> 0.26843494E+03</totfact>
</mgrwt>
</event>
<event>
 5    1  0.2847672E-003  0.9860335E+02  0.7818608E-02  0.1569303E+00
         11   -1    0    0    0    0  0.00000000000E+00  0.00000000000E+00  0.10002092415E+04  0.10002092415E+04  0.51100000000E-03 0.  1.
         -2   -1    0    0    0  501 -0.00000000000E+00 -0.00000000000E+00 -0.16112433967E+02  0.16112434169E+02  0.25500000000E-02 0.  1.
         11    1    1    2    0    0  0.10278976271E+03 -0.25587531892E+02  0.34753079201E+03  0.36331543940E+03  0.51100000000E-03 0.  1.
         22    1    1    2    0    0 -0.97667502301E+01  0.48252960849E+01  0.17000144950E+01  0.11025558564E+02  0.00000000000E+00 0.  1.
         -2    1    1    2    0  501 -0.93023012480E+02  0.20762235807E+02  0.63486600100E+03  0.64198067768E+03  0.25500000000E-02 0.  1.
<mgrwt>
<rscale>  0 0.32774314E+02</rscale>
<asrwt>0</asrwt>
<pdfrwt beam="1">  1       11 0.10000000E+01 0.98603349E+02</pdfrwt>
<pdfrwt beam="2">  1       -2 0.24793546E-02 0.32774314E+02</pdfrwt>
<totfact> 0.34319814E+03</totfact>
</mgrwt>
</event>
<event>
 5    1  0.2847672E-003  0.2244704E+03  0.7818608E-02  0.1301365E+00
         11   -1    0    0    0    0  0.00000000000E+00  0.00000000000E+00  0.10004373070E+04  0.10004373070E+04  0.51100000000E-03 0. -1.
          2   -1    0    0  501    0 -0.00000000000E+00 -0.00000000000E+00 -0.13776296580E+03  0.13776296582E+03  0.25500000000E-02 0. -1.
         11    1    1    2    0    0 -0.37688824054E+02 -0.22407200247E+03  0.86540697922E+03  0.89473903985E+03  0.51100000000E-03 0. -1.
         22    1    1    2    0    0  0.31733118584E+02  0.18198600332E+02  0.71140096856E+01  0.37266459490E+02  0.00000000000E+00 0. -1.
          2    1    1    2  501    0  0.59557054700E+01  0.20587340214E+03 -0.98466477056E+01  0.20619477348E+03  0.25500000000E-02 0. -1.
<mgrwt>
<rscale>  0 0.90616689E+02</rscale>
<asrwt>0</asrwt>
<pdfrwt beam="1">  1       11 0.10000000E+01 0.22447043E+03</pdfrwt>
<pdfrwt beam="2">  1        2 0.21203570E-01 0.90616689E+02</pdfrwt>
<totfact> 0.31040933E+02</totfact>
</mgrwt>
</event>
<event>
 5    1  0.2847672E-003  0.2739202E+03  0.7818608E-02  0.1193162E+00
         11   -1    0    0    0    0  0.00000000000E+00  0.00000000000E+00  0.10001675959E+04  0.10001675959E+04  0.51100000000E-03 0. -1.
          2   -1    0    0  501    0 -0.00000000000E+00 -0.00000000000E+00 -0.75128508750E+03  0.75128508750E+03  0.25500000000E-02 0.  1.
         11    1    1    2    0    0  0.69342364600E+02 -0.27269726716E+03  0.92208381062E+03  0.96405949861E+03  0.51100000000E-03 0. -1.
         22    1    1    2    0    0 -0.59379195362E+02  0.66251146595E+02 -0.52643171984E+03  0.53389648709E+03  0.00000000000E+00 0.  1.
          2    1    1    2  501    0 -0.99631692383E+01  0.20644612056E+03 -0.14676958237E+03  0.25349669772E+03  0.25500000000E-02 0.  1.
<mgrwt>
<rscale>  0 0.15610835E+03</rscale>
<asrwt>0</asrwt>
<pdfrwt beam="1">  1       11 0.10000000E+01 0.27392016E+03</pdfrwt>
<pdfrwt beam="2">  1        2 0.11560169E+00 0.15610835E+03</pdfrwt>
<totfact> 0.48864458E+01</totfact>
</mgrwt>
</event>
<event>
 5    1  0.2847672E-003  0.2777289E+03  0.7818608E-02  0.1287336E+00
         11   -1    0    0    0    0  0.00000000000E+00  0.00000000000E+00  0.10003934514E+04  0.10003934514E+04  0.51100000000E-03 0.  1.
          2   -1    0    0  501    0 -0.00000000000E+00 -0.00000000000E+00 -0.13364128019E+03  0.13364128022E+03  0.25500000000E-02 0.  1.
         11    1    1    2    0    0  0.79164822362E+02  0.25832071332E+03  0.69616854135E+03  0.74675785768E+03  0.51100000000E-03 0.  1.
         22    1    1    2    0    0  0.13823831722E+02  0.30720100613E+02 -0.85333997814E+01  0.34751141233E+02  0.00000000000E+00 0. -1.
          2    1    1    2  501    0 -0.92988654084E+02 -0.28904081394E+03  0.17911702963E+03  0.35252573271E+03  0.25500000000E-02 0.  1.
<mgrwt>
<rscale>  0 0.96725852E+02</rscale>
<asrwt>0</asrwt>
<pdfrwt beam="1">  1       11 0.10000000E+01 0.27772890E+03</pdfrwt>
<pdfrwt beam="2">  1        2 0.20568286E-01 0.96725852E+02</pdfrwt>
<totfact> 0.32182181E+02</totfact>
</mgrwt>
</event>
<event>
 5    1  0.2847672E-003  0.1419907E+03  0.7818608E-02  0.1293176E+00
         11   -1    0    0    0    0  0.00000000000E+00  0.00000000000E+00  0.10001515292E+04  0.10001515292E+04  0.51100000000E-03 0.  1.
          2   -1    0    0  501    0 -0.00000000000E+00 -0.00000000000E+00 -0.87012591101E+02  0.87012591138E+02  0.25500000000E-02 0.  1.
         11    1    1    2    0    0  0.14153146420E+03 -0.72876980875E+02  0.70900496130E+03  0.72665689624E+03  0.51100000000E-03 0.  1.
         22    1    1    2    0    0 -0.60249715415E+02 -0.16183513299E+02 -0.49522098241E+02  0.79651569504E+02  0.00000000000E+00 0.  1.
          2    1    1    2  501    0 -0.81281748786E+02  0.89060494174E+02  0.25365607504E+03  0.28085565460E+03  0.25500000000E-02 0.  1.
<mgrwt>
<rscale>  0 0.94117711E+02</rscale>
<asrwt>0</asrwt>
<pdfrwt beam="1">  1       11 0.10000000E+01 0.14199072E+03</pdfrwt>
<pdfrwt beam="2">  1        2 0.13388581E-01 0.94117711E+02</pdfrwt>
<totfact> 0.52536240E+02</totfact>
</mgrwt>
</event>
<event>
 5    1  0.2847672E-003  0.1267414E+03  0.7818608E-02  0.1232373E+00
         11   -1    0    0    0    0  0.00000000000E+00  0.00000000000E+00  0.10001882727E+04  0.10001882727E+04  0.51100000000E-03 0.  1.
         -2   -1    0    0    0  501 -0.00000000000E+00 -0.00000000000E+00 -0.16168081216E+02  0.16168081417E+02  0.25500000000E-02 0. -1.
         11    1    1    2    0    0  0.54697925060E+02  0.10517989830E+03  0.61092739059E+03  0.62232383096E+03  0.51100000000E-03 0.  1.
         22    1    1    2    0    0 -0.32331814755E+01 -0.24008521696E+02  0.35157816651E+02  0.42695838768E+02  0.00000000000E+00 0.  1.
         -2    1    1    2    0  501 -0.51464743585E+02 -0.81171376605E+02  0.33793498426E+03  0.35133668440E+03  0.25500000000E-02 0. -1.
<mgrwt>
<rscale>  0 0.12674143E+03</rscale>
<asrwt>0</asrwt>
<pdfrwt beam="1">  1       11 0.10000000E+01 0.11855241E+03</pdfrwt>
<pdfrwt beam="2">  1       -2 0.24878654E-02 0.12674143E+03</pdfrwt>
<totfact> 0.41161592E+03</totfact>
</mgrwt>
</event>
<event>
 5    1  0.2847672E-003  0.2469896E+03  0.7818608E-02  0.1313722E+00
         11   -1    0    0    0    0  0.00000000000E+00  0.00000000000E+00  0.10001150735E+04  0.10001150735E+04  0.51100000000E-03 0. -1.
          2   -1    0    0  501    0 -0.00000000000E+00 -0.00000000000E+00 -0.23644997021E+03  0.23644997023E+03  0.25500000000E-02 0. -1.
         11    1    1    2    0    0 -0.24765761044E+03 -0.41024039639E+02  0.83592314827E+03  0.87280282634E+03  0.51100000000E-03 0. -1.
         22    1    1    2    0    0  0.26462635850E+02 -0.13498476291E+02 -0.12619865168E+03  0.12964790644E+03  0.00000000000E+00 0.  1.
          2    1    1    2  501    0  0.22119497459E+03  0.54522515929E+02  0.53940606670E+02  0.23411431093E+03  0.25500000000E-02 0. -1.
<mgrwt>
<rscale>  0 0.85657523E+02</rscale>
<asrwt>0</asrwt>
<pdfrwt beam="1">  1       11 0.10000000E+01 0.24698956E+03</pdfrwt>
<pdfrwt beam="2">  1        2 0.36381103E-01 0.85657523E+02</pdfrwt>
<totfact> 0.17322370E+02</totfact>
</mgrwt>
</event>
<event>
 5    1  0.2847672E-003  0.2195873E+03  0.7818608E-02  0.1314344E+00
         11   -1    0    0    0    0  0.00000000000E+00  0.00000000000E+00  0.10001910177E+04  0.10001910177E+04  0.51100000000E-03 0. -1.
         -2   -1    0    0    0  501 -0.00000000000E+00 -0.00000000000E+00 -0.23916900031E+03  0.23916900032E+03  0.25500000000E-02 0. -1.
         11    1    1    2    0    0  0.18591828511E+02 -0.21683379398E+03  0.89635512170E+03  0.92239636518E+03  0.51100000000E-03 0. -1.
         22    1    1    2    0    0  0.29805692382E+01 -0.33092928176E+02 -0.30511787101E+01  0.33366680682E+02  0.00000000000E+00 0.  1.
         -2    1    1    2    0  501 -0.21572397749E+02  0.24992672216E+03 -0.13228192557E+03  0.28359697218E+03  0.25500000000E-02 0. -1.
<mgrwt>
<rscale>  0 0.85417813E+02</rscale>
<asrwt>0</asrwt>
<pdfrwt beam="1">  1       11 0.10000000E+01 0.21958735E+03</pdfrwt>
<pdfrwt beam="2">  1       -2 0.36802258E-01 0.85417813E+02</pdfrwt>
<totfact> 0.55804703E+01</totfact>
</mgrwt>
</event>
<event>
 5    1  0.2847672E-003  0.4009679E+02  0.7818608E-02  0.1572454E+00
         11   -1    0    0    0    0  0.00000000000E+00  0.00000000000E+00  0.10002528293E+04  0.10002528293E+04  0.51100000000E-03 0.  1.
          2   -1    0    0  501    0 -0.00000000000E+00 -0.00000000000E+00 -0.11915595979E+02  0.11915596252E+02  0.25500000000E-02 0.  1.
         11    1    1    2    0    0 -0.56052317797E+02  0.24825633182E+02  0.35209725499E+03  0.35739425201E+03  0.51100000000E-03 0.  1.
         22    1    1    2    0    0  0.25714151718E+02 -0.53591320936E+01  0.10968971811E+02  0.28465000227E+02  0.00000000000E+00 0.  1.
          2    1    1    2  501    0  0.30338166079E+02 -0.19466501089E+02  0.62527100649E+03  0.62630917329E+03  0.25500000000E-02 0.  1.
<mgrwt>
<rscale>  0 0.32453176E+02</rscale>
<asrwt>0</asrwt>
<pdfrwt beam="1">  1       11 0.10000000E+01 0.40096792E+02</pdfrwt>
<pdfrwt beam="2">  1        2 0.18336321E-02 0.32453176E+02</pdfrwt>
<totfact> 0.57189566E+03</totfact>
</mgrwt>
</event>
<event>
 5    1  0.2847672E-003  0.1145687E+03  0.7818608E-02  0.1524949E+00
         11   -1    0    0    0    0  0.00000000000E+00  0.00000000000E+00  0.10001069815E+04  0.10001069815E+04  0.51100000000E-03 0.  1.
          2   -1    0    0  501    0 -0.00000000000E+00 -0.00000000000E+00 -0.16320488052E+02  0.16320488251E+02  0.25500000000E-02 0.  1.
         11    1    1    2    0    0 -0.63448426347E+02  0.91080164521E+02  0.32951071810E+03  0.34770477782E+03  0.51100000000E-03 0.  1.
         22    1    1    2    0    0  0.62378622788E+01  0.10809532197E+02  0.18620150339E+02  0.22415773705E+02  0.00000000000E+00 0.  1.
          2    1    1    2  501    0  0.57210564068E+02 -0.10188969672E+03  0.63565562505E+03  0.64630691827E+03  0.25500000000E-02 0.  1.
<mgrwt>
<rscale>  0 0.37813309E+02</rscale>
<asrwt>0</asrwt>
<pdfrwt beam="1">  1       11 0.10000000E+01 0.11456868E+03</pdfrwt>
<pdfrwt beam="2">  1        2 0.25111129E-02 0.37813309E+02</pdfrwt>
<totfact> 0.38946249E+03</totfact>
</mgrwt>
</event>
<event>
 5    1  0.2847672E-003  0.4871202E+02  0.7818608E-02  0.1568805E+00
         11   -1    0    0    0    0  0.00000000000E+00  0.00000000000E+00  0.10004217595E+04  0.10004217595E+04  0.51100000000E-03 0. -1.
         -2   -1    0    0    0  501 -0.00000000000E+00 -0.00000000000E+00 -0.59477490623E+01  0.59477496089E+01  0.25500000000E-02 0. -1.
         11    1    1    2    0    0 -0.34052238911E+02 -0.11655173320E+02  0.20863465386E+03  0.21171635939E+03  0.51100000000E-03 0. -1.
         22    1    1    2    0    0 -0.21786607663E+02 -0.38262909766E+01  0.33862660086E+02  0.40447206631E+02  0.00000000000E+00 0. -1.
         -2    1    1    2    0  501  0.55838846574E+02  0.15481464297E+02  0.75197669645E+03  0.75420594305E+03  0.25500000000E-02 0. -1.
<mgrwt>
<rscale>  0 0.32825477E+02</rscale>
<asrwt>0</asrwt>
<pdfrwt beam="1">  1       11 0.10000000E+01 0.48712019E+02</pdfrwt>
<pdfrwt beam="2">  1       -2 0.91542426E-03 0.32825477E+02</pdfrwt>
<totfact> 0.13606297E+04</totfact>
</mgrwt>
</event>
<event>
 5    1  0.2847672E-003  0.1058735E+03  0.7818608E-02  0.1268408E+00
         11   -1    0    0    0    0  0.00000000000E+00  0.00000000000E+00  0.10001483051E+04  0.10001483051E+04  0.51100000000E-03 0. -1.
          2   -1    0    0  501    0 -0.00000000000E+00 -0.00000000000E+00 -0.14016884957E+02  0.14016885189E+02  0.25500000000E-02 0. -1.
         11    1    1    2    0    0  0.90451818920E+02  0.56987482596E+02  0.32802297427E+03  0.34500460340E+03  0.51100000000E-03 0. -1.
         22    1    1    2    0    0  0.55815936374E+01 -0.14989370910E+02  0.72190490023E+02  0.73941208251E+02  0.00000000000E+00 0.  1.
          2    1    1    2  501    0 -0.96033412558E+02 -0.41998111686E+02  0.58591795589E+03  0.59521937868E+03  0.25500000000E-02 0. -1.
<mgrwt>
<rscale>  0 0.10587353E+03</rscale>
<asrwt>0</asrwt>
<pdfrwt beam="1">  1       11 0.10000000E+01 0.15994856E+02</pdfrwt>
<pdfrwt beam="2">  1        2 0.21567636E-02 0.10587353E+03</pdfrwt>
<totfact> 0.54757267E+03</totfact>
</mgrwt>
</event>
<event>
 5    1  0.2847672E-003  0.8183202E+02  0.7818608E-02  0.1352709E+00
         11   -1    0    0    0    0  0.00000000000E+00  0.00000000000E+00  0.10004275299E+04  0.10004275299E+04  0.51100000000E-03 0.  1.
         -2   -1    0    0    0  501 -0.00000000000E+00 -0.00000000000E+00 -0.23176517274E+02  0.23176517414E+02  0.25500000000E-02 0.  1.
         11    1    1    2    0    0  0.10490720914E+03  0.61163472027E+02  0.56580288117E+03  0.57868764733E+03  0.51100000000E-03 0.  1.
         22    1    1    2    0    0 -0.40939636191E+02 -0.48845517097E+02  0.60169974961E+02  0.87649097193E+02  0.00000000000E+00 0.  1.
         -2    1    1    2    0  501 -0.63967572949E+02 -0.12317954931E+02  0.35127815652E+03  0.35726730281E+03  0.25500000000E-02 0.  1.
<mgrwt>
<rscale>  0 0.72217901E+02</rscale>
<asrwt>0</asrwt>
<pdfrwt beam="1">  1       11 0.10000000E+01 0.81832020E+02</pdfrwt>
<pdfrwt beam="2">  1       -2 0.35671424E-02 0.72217901E+02</pdfrwt>
<totfact> 0.22813268E+03</totfact>
</mgrwt>
</event>
<event>
 5    1  0.2847672E-003  0.2657415E+03  0.7818608E-02  0.1428371E+00
         11   -1    0    0    0    0  0.00000000000E+00  0.00000000000E+00  0.10000482733E+04  0.10000482733E+04  0.51100000000E-03 0.  1.
         -2   -1    0    0    0  501 -0.00000000000E+00 -0.00000000000E+00 -0.10652435040E+03  0.10652435043E+03  0.25500000000E-02 0. -1.
         11    1    1    2    0    0  0.16217289781E+03  0.21202516609E+03  0.75491856633E+03  0.80072264963E+03  0.51100000000E-03 0.  1.
         22    1    1    2    0    0  0.40638913806E+01 -0.98828061072E+01  0.30617183993E+01  0.11115718117E+02  0.00000000000E+00 0.  1.
         -2    1    1    2    0  501 -0.16623678919E+03 -0.20214235998E+03  0.13554363813E+03  0.29473425593E+03  0.25500000000E-02 0. -1.
<mgrwt>
<rscale>  0 0.53288319E+02</rscale>
<asrwt>0</asrwt>
<pdfrwt beam="1">  1       11 0.10000000E+01 0.26574150E+03</pdfrwt>
<pdfrwt beam="2">  1       -2 0.16389152E-01 0.53288319E+02</pdfrwt>
<totfact> 0.22027174E+02</totfact>
</mgrwt>
</event>
<event>
 5    1  0.2847672E-003  0.3061008E+03  0.7818608E-02  0.1203406E+00
         11   -1    0    0    0    0  0.00000000000E+00  0.00000000000E+00  0.10003838193E+04  0.10003838193E+04  0.51100000000E-03 0. -1.
         -2   -1    0    0    0  501 -0.00000000000E+00 -0.00000000000E+00 -0.40790137506E+03  0.40790137507E+03  0.25500000000E-02 0.  1.
         11    1    1    2    0    0 -0.20065151099E+02  0.29963394267E+03  0.84094222149E+03  0.89295404684E+03  0.51100000000E-03 0. -1.
         22    1    1    2    0    0  0.13436764547E+02  0.69929267881E+02 -0.85801177256E+02  0.11150108146E+03  0.00000000000E+00 0. -1.
         -2    1    1    2    0  501  0.66283865519E+01 -0.36956321055E+03 -0.16265860000E+03  0.40383006607E+03  0.25500000000E-02 0.  1.
<mgrwt>
<rscale>  0 0.14763798E+03</rscale>
<asrwt>0</asrwt>
<pdfrwt beam="1">  1       11 0.10000000E+01 0.30610076E+03</pdfrwt>
<pdfrwt beam="2">  1       -2 0.62778142E-01 0.14763798E+03</pdfrwt>
<totfact> 0.19647793E+01</totfact>
</mgrwt>
</event>
<event>
 5    1  0.3301570E-003  0.2227873E+03  0.7818608E-02  0.1131822E+00
         11   -1    0    0    0    0  0.00000000000E+00  0.00000000000E+00  0.10002248738E+04  0.10002248738E+04  0.51100000000E-03 0. -1.
          2   -1    0    0  501    0 -0.00000000000E+00 -0.00000000000E+00 -0.83114988497E+03  0.83114988497E+03  0.25500000000E-02 0. -1.
         11    1    1    2    0    0  0.15029610969E+03  0.15365996212E+03  0.97335689484E+03  0.99680687663E+03  0.51100000000E-03 0. -1.
         22    1    1    2    0    0 -0.46835364500E+02 -0.47374417646E+02 -0.15774491926E+03  0.17123476974E+03  0.00000000000E+00 0.  1.
          2    1    1    2  501    0 -0.10346074519E+03 -0.10628554447E+03 -0.64653698676E+03  0.66333311240E+03  0.25500000000E-02 0. -1.
<mgrwt>
<rscale>  0 0.22278727E+03</rscale>
<asrwt>0</asrwt>
<pdfrwt beam="1">  1       11 0.10000000E+01 0.21494256E+03</pdfrwt>
<pdfrwt beam="2">  1        2 0.12789796E+00 0.22278727E+03</pdfrwt>
<totfact> 0.42496992E+01</totfact>
</mgrwt>
</event>
<event>
 5    1  0.2847672E-003  0.1517471E+03  0.7818608E-02  0.1198342E+00
         11   -1    0    0    0    0  0.00000000000E+00  0.00000000000E+00  0.10001406427E+04  0.10001406427E+04  0.51100000000E-03 0. -1.
          2   -1    0    0  501    0 -0.00000000000E+00 -0.00000000000E+00 -0.33467868275E+02  0.33467868372E+02  0.25500000000E-02 0. -1.
         11    1    1    2    0    0 -0.56378792207E+02 -0.13470884286E+03  0.77749260539E+03  0.79108772711E+03  0.51100000000E-03 0. -1.
         22    1    1    2    0    0  0.14543667397E+02  0.23684817706E+02  0.14474117831E+02  0.31336702732E+02  0.00000000000E+00 0. -1.
          2    1    1    2  501    0  0.41835124810E+02  0.11102402515E+03  0.17470605119E+03  0.21118408122E+03  0.25500000000E-02 0. -1.
<mgrwt>
<rscale>  0 0.15174714E+03</rscale>
<asrwt>0</asrwt>
<pdfrwt beam="1">  1       11 0.10000000E+01 0.14603096E+03</pdfrwt>
<pdfrwt beam="2">  1        2 0.51496268E-02 0.15174714E+03</pdfrwt>
<totfact> 0.17792386E+03</totfact>
</mgrwt>
</event>
<event>
 5    1  0.2847672E-003  0.1719838E+03  0.7818608E-02  0.1333656E+00
         11   -1    0    0    0    0  0.00000000000E+00  0.00000000000E+00  0.10001091518E+04  0.10001091518E+04  0.51100000000E-03 0. -1.
          2   -1    0    0  501    0 -0.00000000000E+00 -0.00000000000E+00 -0.46339790541E+02  0.46339790611E+02  0.25500000000E-02 0. -1.
         11    1    1    2    0    0  0.13807793489E+03 -0.11665168795E+03  0.61275744441E+03  0.63886212761E+03  0.51100000000E-03 0. -1.
         22    1    1    2    0    0  0.12545393323E+01  0.35716747230E+02  0.65502866941E+01  0.36334090843E+02  0.00000000000E+00 0. -1.
          2    1    1    2  501    0 -0.13933247422E+03  0.80934940718E+02  0.33446163018E+03  0.37125272399E+03  0.25500000000E-02 0. -1.
<mgrwt>
<rscale>  0 0.78399558E+02</rscale>
<asrwt>0</asrwt>
<pdfrwt beam="1">  1       11 0.10000000E+01 0.17198382E+03</pdfrwt>
<pdfrwt beam="2">  1        2 0.71299765E-02 0.78399558E+02</pdfrwt>
<totfact> 0.11141126E+03</totfact>
</mgrwt>
</event>
<event>
 5    1  0.2847672E-003  0.8442710E+02  0.7818608E-02  0.1413621E+00
         11   -1    0    0    0    0  0.00000000000E+00  0.00000000000E+00  0.99965536927E+03  0.99965536927E+03  0.51100000000E-03 0. -1.
          2   -1    0    0  501    0 -0.00000000000E+00 -0.00000000000E+00 -0.18169545619E+02  0.18169545798E+02  0.25500000000E-02 0. -1.
         11    1    1    2    0    0  0.55903835495E+02 -0.91388191925E+02  0.33578237063E+03  0.35245828246E+03  0.51100000000E-03 0. -1.
         22    1    1    2    0    0 -0.34030462976E+02  0.16150487162E+02  0.41270268247E+02  0.55876163855E+02  0.00000000000E+00 0. -1.
          2    1    1    2  501    0 -0.21873372519E+02  0.75237704763E+02  0.60443318477E+03  0.60949046875E+03  0.25500000000E-02 0. -1.
<mgrwt>
<rscale>  0 0.56393570E+02</rscale>
<asrwt>0</asrwt>
<pdfrwt beam="1">  1       11 0.10000000E+01 0.84427101E+02</pdfrwt>
<pdfrwt beam="2">  1        2 0.27943513E-02 0.56393570E+02</pdfrwt>
<totfact> 0.35828635E+03</totfact>
</mgrwt>
</event>
<event>
 5    1  0.2847672E-003  0.2889935E+03  0.7818608E-02  0.1327737E+00
         11   -1    0    0    0    0  0.00000000000E+00  0.00000000000E+00  0.99990862855E+03  0.99990862855E+03  0.51100000000E-03 0. -1.
          2   -1    0    0  501    0 -0.00000000000E+00 -0.00000000000E+00 -0.57611526262E+03  0.57611526263E+03  0.25500000000E-02 0. -1.
         11    1    1    2    0    0 -0.25637432398E+03 -0.13418957789E+03  0.93171227004E+03  0.97561385340E+03  0.51100000000E-03 0. -1.
         22    1    1    2    0    0 -0.26551467508E+01  0.22246158049E+02 -0.11201555737E+03  0.11423408618E+03  0.00000000000E+00 0. -1.
          2    1    1    2  501    0  0.25902947073E+03  0.11194341984E+03 -0.39590334674E+03  0.48617595161E+03  0.25500000000E-02 0. -1.
<mgrwt>
<rscale>  0 0.80465051E+02</rscale>
<asrwt>0</asrwt>
<pdfrwt beam="1">  1       11 0.10000000E+01 0.28899351E+03</pdfrwt>
<pdfrwt beam="2">  1        2 0.88625016E-01 0.80465051E+02</pdfrwt>
<totfact> 0.67675392E+01</totfact>
</mgrwt>
</event>
<event>
 5    1  0.2847672E-003  0.3633152E+02  0.7818608E-02  0.1759902E+00
         11   -1    0    0    0    0  0.00000000000E+00  0.00000000000E+00  0.10000369589E+04  0.10000369589E+04  0.51100000000E-03 0. -1.
          2   -1    0    0  501    0 -0.00000000000E+00 -0.00000000000E+00 -0.39310723602E+01  0.39310731873E+01  0.25500000000E-02 0. -1.
         11    1    1    2    0    0  0.25029102744E+02  0.30964826964E+02  0.16201220237E+03  0.16683294102E+03  0.51100000000E-03 0. -1.
         22    1    1    2    0    0  0.37934999287E+01 -0.95094130657E+01  0.22204219420E+02  0.24450908749E+02  0.00000000000E+00 0. -1.
          2    1    1    2  501    0 -0.28822602672E+02 -0.21455413898E+02  0.81188946479E+03  0.81268418236E+03  0.25500000000E-02 0. -1.
<mgrwt>
<rscale>  0 0.19286450E+02</rscale>
<asrwt>0</asrwt>
<pdfrwt beam="1">  1       11 0.10000000E+01 0.36331523E+02</pdfrwt>
<pdfrwt beam="2">  1        2 0.60480276E-03 0.19286450E+02</pdfrwt>
<totfact> 0.21702672E+04</totfact>
</mgrwt>
</event>
<event>
 5    1  0.2847672E-003  0.2782742E+03  0.7818608E-02  0.1096635E+00
         11   -1    0    0    0    0  0.00000000000E+00  0.00000000000E+00  0.10005009786E+04  0.10005009786E+04  0.51100000000E-03 0.  1.
          2   -1    0    0  501    0 -0.00000000000E+00 -0.00000000000E+00 -0.34149460185E+03  0.34149460186E+03  0.25500000000E-02 0.  1.
         11    1    1    2    0    0 -0.22905294638E+03 -0.10380690148E+03  0.92407395159E+03  0.95768146742E+03  0.51100000000E-03 0.  1.
         22    1    1    2    0    0  0.35615216377E+02  0.72850295977E+02 -0.61304419535E+02  0.10165550214E+03  0.00000000000E+00 0.  1.
          2    1    1    2  501    0  0.19343773000E+03  0.30956605499E+02 -0.20376315534E+03  0.28265861086E+03  0.25500000000E-02 0.  1.
<mgrwt>
<rscale>  0 0.27827418E+03</rscale>
<asrwt>0</asrwt>
<pdfrwt beam="1">  1       11 0.10000000E+01 0.25147788E+03</pdfrwt>
<pdfrwt beam="2">  1        2 0.52563950E-01 0.27827418E+03</pdfrwt>
<totfact> 0.11786743E+02</totfact>
</mgrwt>
</event>
<event>
 5    1  0.2847672E-003  0.4861495E+02  0.7818608E-02  0.1452959E+00
         11   -1    0    0    0    0  0.00000000000E+00  0.00000000000E+00  0.99983821923E+03  0.99983821923E+03  0.51100000000E-03 0. -1.
          2   -1    0    0  501    0 -0.00000000000E+00 -0.00000000000E+00 -0.81265607692E+01  0.81265611693E+01  0.25500000000E-02 0. -1.
         11    1    1    2    0    0 -0.16892913551E+02  0.87705805284E+01  0.56444185767E+02  0.59567102651E+02  0.51100000000E-03 0. -1.
         22    1    1    2    0    0  0.14036997365E+02 -0.48014000180E+02  0.96385997248E+02  0.10859393157E+03  0.00000000000E+00 0.  1.
          2    1    1    2  501    0  0.28559161857E+01  0.39243419652E+02  0.83888147544E+03  0.83980374618E+03  0.25500000000E-02 0. -1.
<mgrwt>
<rscale>  0 0.48614951E+02</rscale>
<asrwt>0</asrwt>
<pdfrwt beam="1">  1       11 0.10000000E+01 0.19034021E+02</pdfrwt>
<pdfrwt beam="2">  1        2 0.12500378E-02 0.48614951E+02</pdfrwt>
<totfact> 0.10174387E+04</totfact>
</mgrwt>
</event>
<event>
 5    1  0.2847672E-003  0.1018636E+03  0.7818608E-02  0.1386711E+00
         11   -1    0    0    0    0  0.00000000000E+00  0.00000000000E+00  0.10001403805E+04  0.10001403805E+04  0.51100000000E-03 0. -1.
          2   -1    0    0  501    0 -0.00000000000E+00 -0.00000000000E+00 -0.15925040491E+02  0.15925040695E+02  0.25500000000E-02 0. -1.
         11    1    1    2    0    0  0.11311858659E+03 -0.18307389333E+02  0.46888728397E+03  0.48268650303E+03  0.51100000000E-03 0. -1.
         22    1    1    2    0    0 -0.29260246311E+02 -0.25226475556E+02  0.94856374504E+02  0.10242201359E+03  0.00000000000E+00 0. -1.
          2    1    1    2  501    0 -0.83858340278E+02  0.43533864889E+02  0.42047168156E+03  0.43095690460E+03  0.25500000000E-02 0. -1.
<mgrwt>
<rscale>  0 0.62732236E+02</rscale>
<asrwt>0</asrwt>
<pdfrwt beam="1">  1       11 0.10000000E+01 0.10186364E+03</pdfrwt>
<pdfrwt beam="2">  1        2 0.24503501E-02 0.62732236E+02</pdfrwt>
<totfact> 0.43198551E+03</totfact>
</mgrwt>
</event>
<event>
 5    1  0.2847672E-003  0.5250820E+03  0.7818608E-02  0.1007432E+00
         11   -1    0    0    0    0  0.00000000000E+00  0.00000000000E+00  0.10007641426E+04  0.10007641426E+04  0.51100000000E-03 0.  1.
          2   -1    0    0  501    0 -0.00000000000E+00 -0.00000000000E+00 -0.13371034318E+04  0.13371034318E+04  0.25500000000E-02 0.  1.
         11    1    1    2    0    0 -0.39393379146E+03  0.33601544020E+03  0.87550724922E+03  0.10171544384E+04  0.51100000000E-03 0.  1.
         22    1    1    2    0    0  0.11413773082E+02 -0.24984613966E+02 -0.11375401927E+03  0.11702342523E+03  0.00000000000E+00 0.  1.
          2    1    1    2  501    0  0.38252001838E+03 -0.31103082623E+03 -0.10980925191E+04  0.12036897108E+04  0.25500000000E-02 0.  1.
<mgrwt>
<rscale>  0 0.52508205E+03</rscale>
<asrwt>0</asrwt>
<pdfrwt beam="1">  1       11 0.10000000E+01 0.51777428E+03</pdfrwt>
<pdfrwt beam="2">  1        2 0.20586540E+00 0.52508205E+03</pdfrwt>
<totfact> 0.20073815E+01</totfact>
</mgrwt>
</event>
<event>
 5    1  0.2847672E-003  0.1011204E+03  0.7818608E-02  0.1529449E+00
         11   -1    0    0    0    0  0.00000000000E+00  0.00000000000E+00  0.10001645752E+04  0.10001645752E+04  0.51100000000E-03 0. -1.
          2   -1    0    0  501    0 -0.00000000000E+00 -0.00000000000E+00 -0.12779320429E+02  0.12779320684E+02  0.25500000000E-02 0. -1.
         11    1    1    2    0    0  0.33797313014E+02  0.97789620275E+02  0.49530706960E+03  0.50599818320E+03  0.51100000000E-03 0. -1.
         22    1    1    2    0    0  0.10437872861E+02 -0.89120297837E+01  0.18284095917E+02  0.22862231480E+02  0.00000000000E+00 0.  1.
          2    1    1    2  501    0 -0.44235185875E+02 -0.88877590491E+02  0.47379408923E+03  0.48408348119E+03  0.25500000000E-02 0. -1.
<mgrwt>
<rscale>  0 0.37254105E+02</rscale>
<asrwt>0</asrwt>
<pdfrwt beam="1">  1       11 0.10000000E+01 0.10112036E+03</pdfrwt>
<pdfrwt beam="2">  1        2 0.19663728E-02 0.37254105E+02</pdfrwt>
<totfact> 0.53430499E+03</totfact>
</mgrwt>
</event>
<event>
 5    1  0.2847672E-003  0.2093660E+03  0.7818608E-02  0.1142069E+00
         11   -1    0    0    0    0  0.00000000000E+00  0.00000000000E+00  0.10000412836E+04  0.10000412836E+04  0.51100000000E-03 0. -1.
          2   -1    0    0  501    0 -0.00000000000E+00 -0.00000000000E+00 -0.27411825052E+03  0.27411825053E+03  0.25500000000E-02 0. -1.
         11    1    1    2    0    0 -0.16723059255E+03 -0.98953765921E+02  0.94872681281E+03  0.96842164589E+03  0.51100000000E-03 0. -1.
         22    1    1    2    0    0  0.36793640979E+02 -0.66034765810E+01 -0.67191885510E+02  0.76890359590E+02  0.00000000000E+00 0. -1.
          2    1    1    2  501    0  0.13043695157E+03  0.10555724250E+03 -0.15561189418E+03  0.22884752870E+03  0.25500000000E-02 0. -1.
<mgrwt>
<rscale>  0 0.20936602E+03</rscale>
<asrwt>0</asrwt>
<pdfrwt beam="1">  1       11 0.10000000E+01 0.19431397E+03</pdfrwt>
<pdfrwt beam="2">  1        2 0.42173778E-01 0.20936602E+03</pdfrwt>
<totfact> 0.14944123E+02</totfact>
</mgrwt>
</event>
<event>
 5    1  0.2847672E-003  0.9819382E+02  0.7818608E-02  0.1326107E+00
         11   -1    0    0    0    0  0.00000000000E+00  0.00000000000E+00  0.99989316648E+03  0.99989316648E+03  0.51100000000E-03 0.  1.
          2   -1    0    0  501    0 -0.00000000000E+00 -0.00000000000E+00 -0.19528190031E+02  0.19528190198E+02  0.25500000000E-02 0.  1.
         11    1    1    2    0    0  0.76404885321E+02 -0.85240002965E+02  0.57389596266E+03  0.58520094033E+03  0.51100000000E-03 0.  1.
         22    1    1    2    0    0  0.44938618685E+01  0.66742891075E+02  0.22382382731E+03  0.23360632263E+03  0.00000000000E+00 0.  1.
          2    1    1    2  501    0 -0.80898747189E+02  0.18497111890E+02  0.18264518647E+03  0.20061409371E+03  0.25500000000E-02 0.  1.
<mgrwt>
<rscale>  0 0.81046767E+02</rscale>
<asrwt>0</asrwt>
<pdfrwt beam="1">  1       11 0.10000000E+01 0.98193824E+02</pdfrwt>
<pdfrwt beam="2">  1        2 0.30040159E-02 0.81046767E+02</pdfrwt>
<totfact> 0.34054480E+03</totfact>
</mgrwt>
</event>
<event>
 5    1  0.2847672E-003  0.6669790E+02  0.7818608E-02  0.1377313E+00
         11   -1    0    0    0    0  0.00000000000E+00  0.00000000000E+00  0.10002635102E+04  0.10002635102E+04  0.51100000000E-03 0.  1.
          2   -1    0    0  501    0 -0.00000000000E+00 -0.00000000000E+00 -0.54814836963E+01  0.54814842895E+01  0.25500000000E-02 0.  1.
         11    1    1    2    0    0 -0.92641042569E+01 -0.28868655601E+02  0.15548254063E+03  0.15841099503E+03  0.51100000000E-03 0.  1.
         22    1    1    2    0    0 -0.61014144839E+01 -0.34469514776E+02  0.11764823149E+03  0.12274559496E+03  0.00000000000E+00 0.  1.
          2    1    1    2  501    0  0.15365518741E+02  0.63338170377E+02  0.72165125439E+03  0.72458840452E+03  0.25500000000E-02 0.  1.
<mgrwt>
<rscale>  0 0.65175325E+02</rscale>
<asrwt>0</asrwt>
<pdfrwt beam="1">  1       11 0.10000000E+01 0.66697897E+02</pdfrwt>
<pdfrwt beam="2">  1        2 0.84352743E-03 0.65175325E+02</pdfrwt>
<totfact> 0.18204963E+04</totfact>
</mgrwt>
</event>
<event>
 5    1  0.2847672E-003  0.1981061E+03  0.7818608E-02  0.1466750E+00
         11   -1    0    0    0    0  0.00000000000E+00  0.00000000000E+00  0.99986503257E+03  0.99986503257E+03  0.51100000000E-03 0. -1.
          2   -1    0    0  501    0 -0.00000000000E+00 -0.00000000000E+00 -0.99046543130E+02  0.99046543163E+02  0.25500000000E-02 0. -1.
         11    1    1    2    0    0  0.14507540521E+03 -0.13307157326E+03  0.83094829352E+03  0.85394963745E+03  0.51100000000E-03 0. -1.
         22    1    1    2    0    0  0.18457445004E+01 -0.10633582350E+02 -0.18367765511E+02  0.21303864819E+02  0.00000000000E+00 0.  1.
          2    1    1    2  501    0 -0.14692114971E+03  0.14370515561E+03  0.88237961435E+02  0.22365807346E+03  0.25500000000E-02 0. -1.
<mgrwt>
<rscale>  0 0.46239339E+02</rscale>
<asrwt>0</asrwt>
<pdfrwt beam="1">  1       11 0.10000000E+01 0.19810610E+03</pdfrwt>
<pdfrwt beam="2">  1        2 0.15235873E-01 0.46239339E+02</pdfrwt>
<totfact> 0.43541489E+02</totfact>
</mgrwt>
</event>
<event>
 5    1  0.2847672E-003  0.1462927E+03  0.7818608E-02  0.1447168E+00
         11   -1    0    0    0    0  0.00000000000E+00  0.00000000000E+00  0.10003362190E+04  0.10003362190E+04  0.51100000000E-03 0.  1.
         -2   -1    0    0    0  501 -0.00000000000E+00 -0.00000000000E+00 -0.47380770118E+02  0.47380770187E+02  0.25500000000E-02 0.  1.
         11    1    1    2    0    0 -0.12878005155E+03  0.76708239980E+02  0.77884580520E+03  0.79313885546E+03  0.51100000000E-03 0.  1.
         22    1    1    2    0    0  0.83201211085E+01 -0.14663352775E+02 -0.14571395714E+02  0.22283713850E+02  0.00000000000E+00 0. -1.
         -2    1    1    2    0  501  0.12045993045E+03 -0.62044887205E+02  0.18868103938E+03  0.23229441986E+03  0.25500000000E-02 0.  1.
<mgrwt>
<rscale>  0 0.49662896E+02</rscale>
<asrwt>0</asrwt>
<pdfrwt beam="1">  1       11 0.10000000E+01 0.14629273E+03</pdfrwt>
<pdfrwt beam="2">  1       -2 0.72917999E-02 0.49662896E+02</pdfrwt>
<totfact> 0.76576442E+02</totfact>
</mgrwt>
</event>
<event>
 5    1  0.2847672E-003  0.6607553E+02  0.7818608E-02  0.1619174E+00
         11   -1    0    0    0    0  0.00000000000E+00  0.00000000000E+00  0.10000770610E+04  0.10000770610E+04  0.51100000000E-03 0. -1.
          2   -1    0    0  501    0 -0.00000000000E+00 -0.00000000000E+00 -0.60451048753E+01  0.60451054132E+01  0.25500000000E-02 0. -1.
         11    1    1    2    0    0  0.68723396260E+02  0.25372111667E+02  0.42506562227E+03  0.43133216026E+03  0.51100000000E-03 0. -1.
         22    1    1    2    0    0 -0.92686731118E+01 -0.76449302390E+01  0.30818029928E+02  0.33077246382E+02  0.00000000000E+00 0. -1.
          2    1    1    2  501    0 -0.59454723149E+02 -0.17727181428E+02  0.53814830397E+03  0.54171275981E+03  0.25500000000E-02 0. -1.
<mgrwt>
<rscale>  0 0.28175840E+02</rscale>
<asrwt>0</asrwt>
<pdfrwt beam="1">  1       11 0.10000000E+01 0.66075533E+02</pdfrwt>
<pdfrwt beam="2">  1        2 0.93008782E-03 0.28175840E+02</pdfrwt>
<totfact> 0.13540097E+04</totfact>
</mgrwt>
</event>
<event>
 5    1  0.2847672E-003  0.1923953E+03  0.7818608E-02  0.1156318E+00
         11   -1    0    0    0    0  0.00000000000E+00  0.00000000000E+00  0.10003585618E+04  0.10003585618E+04  0.51100000000E-03 0.  1.
          2   -1    0    0  501    0 -0.00000000000E+00 -0.00000000000E+00 -0.67276759788E+02  0.67276759837E+02  0.25500000000E-02 0.  1.
         11    1    1    2    0    0 -0.17349085171E+03  0.65432908890E+02  0.82781131812E+03  0.84832312217E+03  0.51100000000E-03 0.  1.
         22    1    1    2    0    0  0.24101463814E+02  0.12426797735E+01 -0.11322765531E+01  0.24160026101E+02  0.00000000000E+00 0.  1.
          2    1    1    2  501    0  0.14938938790E+03 -0.66675588664E+02  0.10640276048E+03  0.19515217340E+03  0.25500000000E-02 0.  1.
<mgrwt>
<rscale>  0 0.19239534E+03</rscale>
<asrwt>0</asrwt>
<pdfrwt beam="1">  1       11 0.10000000E+01 0.18541991E+03</pdfrwt>
<pdfrwt beam="2">  1        2 0.10353982E-01 0.19239534E+03</pdfrwt>
<totfact> 0.74254702E+02</totfact>
</mgrwt>
</event>
<event>
 5    1  0.2847672E-003  0.2174552E+02  0.7818608E-02  0.1712691E+00
         11   -1    0    0    0    0  0.00000000000E+00  0.00000000000E+00  0.10002611402E+04  0.10002611402E+04  0.51100000000E-03 0.  1.
          2   -1    0    0  501    0 -0.00000000000E+00 -0.00000000000E+00 -0.30339506052E+01  0.30339516768E+01  0.25500000000E-02 0.  1.
         11    1    1    2    0    0  0.14041025137E+02 -0.15532103392E+02  0.83887017707E+02  0.86460559579E+02  0.51100000000E-03 0.  1.
         22    1    1    2    0    0  0.18731087287E+02  0.99986436987E+01  0.78141214203E+02  0.80974538368E+02  0.00000000000E+00 0.  1.
          2    1    1    2  501    0 -0.32772112423E+02  0.55334596931E+01  0.83519895768E+03  0.83585999392E+03  0.25500000000E-02 0.  1.
<mgrwt>
<rscale>  0 0.21745522E+02</rscale>
<asrwt>0</asrwt>
<pdfrwt beam="1">  1       11 0.10000000E+01 0.20937934E+02</pdfrwt>
<pdfrwt beam="2">  1        2 0.46688359E-03 0.21745522E+02</pdfrwt>
<totfact> 0.31426512E+04</totfact>
</mgrwt>
</event>
<event>
 5    1  0.2847672E-003  0.1207645E+03  0.7818608E-02  0.1518694E+00
         11   -1    0    0    0    0  0.00000000000E+00  0.00000000000E+00  0.10003542865E+04  0.10003542865E+04  0.51100000000E-03 0.  1.
          2   -1    0    0  501    0 -0.00000000000E+00 -0.00000000000E+00 -0.31598064563E+02  0.31598064666E+02  0.25500000000E-02 0.  1.
         11    1    1    2    0    0  0.36404513634E+02 -0.11759850414E+03  0.70639339229E+03  0.71703997201E+03  0.51100000000E-03 0.  1.
         22    1    1    2    0    0 -0.11529930988E+02  0.44095847886E+01 -0.11914651094E+02  0.17156417379E+02  0.00000000000E+00 0.  1.
          2    1    1    2  501    0 -0.24874582646E+02  0.11318891935E+03  0.27427748071E+03  0.29775596175E+03  0.25500000000E-02 0.  1.
<mgrwt>
<rscale>  0 0.38610393E+02</rscale>
<asrwt>0</asrwt>
<pdfrwt beam="1">  1       11 0.10000000E+01 0.12076445E+03</pdfrwt>
<pdfrwt beam="2">  1        2 0.48629628E-02 0.38610393E+02</pdfrwt>
<totfact> 0.16791629E+03</totfact>
</mgrwt>
</event>
<event>
 5    1  0.2847672E-003  0.2036285E+03  0.7818608E-02  0.1355797E+00
         11   -1    0    0    0    0  0.00000000000E+00  0.00000000000E+00  0.99995780941E+03  0.99995780941E+03  0.51100000000E-03 0.  1.
          2   -1    0    0  501    0 -0.00000000000E+00 -0.00000000000E+00 -0.11738601947E+03  0.11738601950E+03  0.25500000000E-02 0.  1.
         11    1    1    2    0    0 -0.20055465362E+03  0.57530308361E+02  0.46792489820E+03  0.51233350059E+03  0.51100000000E-03 0.  1.
         22    1    1    2    0    0  0.16026073234E+02  0.19123411852E+02 -0.73463083162E+02  0.77584563489E+02  0.00000000000E+00 0.  1.
          2    1    1    2  501    0  0.18452858038E+03 -0.76653720213E+02  0.48810997490E+03  0.52742576483E+03  0.25500000000E-02 0.  1.
<mgrwt>
<rscale>  0 0.71278902E+02</rscale>
<asrwt>0</asrwt>
<pdfrwt beam="1">  1       11 0.10000000E+01 0.20362853E+03</pdfrwt>
<pdfrwt beam="2">  1        2 0.18058625E-01 0.71278902E+02</pdfrwt>
<totfact> 0.36772440E+02</totfact>
</mgrwt>
</event>
<event>
 5    1  0.2847672E-003  0.1615540E+03  0.7818608E-02  0.1496530E+00
         11   -1    0    0    0    0  0.00000000000E+00  0.00000000000E+00  0.10003848749E+04  0.10003848749E+04  0.51100000000E-03 0. -1.
          2   -1    0    0  501    0 -0.00000000000E+00 -0.00000000000E+00 -0.26823252649E+03  0.26823252650E+03  0.25500000000E-02 0. -1.
         11    1    1    2    0    0 -0.12000364938E+03 -0.10778429611E+03  0.95842269646E+03  0.97190143299E+03  0.51100000000E-03 0. -1.
         22    1    1    2    0    0 -0.11469255882E+01 -0.10667245246E+02 -0.54111865290E+02  0.55165202117E+02  0.00000000000E+00 0. -1.
          2    1    1    2  501    0  0.12115057496E+03  0.11845154136E+03 -0.17215848281E+03  0.24155076624E+03  0.25500000000E-02 0. -1.
<mgrwt>
<rscale>  0 0.41632539E+02</rscale>
<asrwt>0</asrwt>
<pdfrwt beam="1">  1       11 0.10000000E+01 0.16155397E+03</pdfrwt>
<pdfrwt beam="2">  1        2 0.41282424E-01 0.41632539E+02</pdfrwt>
<totfact> 0.15011876E+02</totfact>
</mgrwt>
</event>
<event>
 5    1  0.2847672E-003  0.1213698E+03  0.7818608E-02  0.1454001E+00
         11   -1    0    0    0    0  0.00000000000E+00  0.00000000000E+00  0.10000932281E+04  0.10000932281E+04  0.51100000000E-03 0. -1.
         -2   -1    0    0    0  501 -0.00000000000E+00 -0.00000000000E+00 -0.25268124375E+02  0.25268124504E+02  0.25500000000E-02 0.  1.
         11    1    1    2    0    0  0.36248369571E+01  0.12649798467E+03  0.75913265754E+03  0.76960851822E+03  0.51100000000E-03 0. -1.
         22    1    1    2    0    0 -0.66875585548E+01 -0.18130548546E+02  0.69480949308E+01  0.20535731134E+02  0.00000000000E+00 0. -1.
         -2    1    1    2    0  501  0.30627215977E+01 -0.10836743612E+03  0.20874435125E+03  0.23521710324E+03  0.25500000000E-02 0.  1.
<mgrwt>
<rscale>  0 0.48429574E+02</rscale>
<asrwt>0</asrwt>
<pdfrwt beam="1">  1       11 0.10000000E+01 0.12136983E+03</pdfrwt>
<pdfrwt beam="2">  1       -2 0.38877661E-02 0.48429574E+02</pdfrwt>
<totfact> 0.19180836E+03</totfact>
</mgrwt>
</event>
<event>
 5    1  0.2847672E-003  0.1402593E+03  0.7818608E-02  0.1441803E+00
         11   -1    0    0    0    0  0.00000000000E+00  0.00000000000E+00  0.10004199714E+04  0.10004199714E+04  0.51100000000E-03 0. -1.
          2   -1    0    0  501    0 -0.00000000000E+00 -0.00000000000E+00 -0.31881055987E+02  0.31881056089E+02  0.25500000000E-02 0.  1.
         11    1    1    2    0    0  0.94122491468E+02 -0.10254088516E+03  0.72934790445E+03  0.74251063443E+03  0.51100000000E-03 0. -1.
         22    1    1    2    0    0  0.16023561236E+02  0.88379370957E+01  0.19184023539E+02  0.26512080377E+02  0.00000000000E+00 0.  1.
          2    1    1    2  501    0 -0.11014605270E+03  0.93702948062E+02  0.22000698742E+03  0.26327831267E+03  0.25500000000E-02 0.  1.
<mgrwt>
<rscale>  0 0.50662066E+02</rscale>
<asrwt>0</asrwt>
<pdfrwt beam="1">  1       11 0.10000000E+01 0.14025934E+03</pdfrwt>
<pdfrwt beam="2">  1        2 0.49068376E-02 0.50662066E+02</pdfrwt>
<totfact> 0.17114562E+03</totfact>
</mgrwt>
</event>
<event>
 5    1  0.2847672E-003  0.3702974E+03  0.7818608E-02  0.1192536E+00
         11   -1    0    0    0    0  0.00000000000E+00  0.00000000000E+00  0.10005456992E+04  0.10005456992E+04  0.51100000000E-03 0.  1.
          2   -1    0    0  501    0 -0.00000000000E+00 -0.00000000000E+00 -0.27826941564E+03  0.27826941565E+03  0.25500000000E-02 0.  1.
         11    1    1    2    0    0 -0.38076765672E+03  0.59595129184E+02  0.45394838625E+03  0.59548696477E+03  0.51100000000E-03 0.  1.
         22    1    1    2    0    0  0.29652716222E+03 -0.19166171982E+03 -0.21656073598E+02  0.35373939320E+03  0.00000000000E+00 0.  1.
          2    1    1    2  501    0  0.84240494499E+02  0.13206659063E+03  0.28998397094E+03  0.32958875691E+03  0.25500000000E-02 0.  1.
<mgrwt>
<rscale>  0 0.15664624E+03</rscale>
<asrwt>0</asrwt>
<pdfrwt beam="1">  1       11 0.10000000E+01 0.37029741E+03</pdfrwt>
<pdfrwt beam="2">  1        2 0.42834040E-01 0.15664624E+03</pdfrwt>
<totfact> 0.14672540E+02</totfact>
</mgrwt>
</event>
<event>
 5    1  0.2847672E-003  0.2618041E+03  0.7818608E-02  0.1224839E+00
         11   -1    0    0    0    0  0.00000000000E+00  0.00000000000E+00  0.10001210674E+04  0.10001210674E+04  0.51100000000E-03 0.  1.
          2   -1    0    0  501    0 -0.00000000000E+00 -0.00000000000E+00 -0.43986395363E+03  0.43986395364E+03  0.25500000000E-02 0.  1.
         11    1    1    2    0    0  0.15364556359E+03  0.21440527250E+03  0.92840325229E+03  0.96514723175E+03  0.51100000000E-03 0.  1.
         22    1    1    2    0    0  0.19815728677E+02 -0.63302306507E+02 -0.54371100063E+02  0.85767485880E+02  0.00000000000E+00 0. -1.
          2    1    1    2  501    0 -0.17346129227E+03 -0.15110296600E+03 -0.31377503845E+03  0.38907030342E+03  0.25500000000E-02 0.  1.
<mgrwt>
<rscale>  0 0.13177940E+03</rscale>
<asrwt>0</asrwt>
<pdfrwt beam="1">  1       11 0.10000000E+01 0.26180407E+03</pdfrwt>
<pdfrwt beam="2">  1        2 0.67679568E-01 0.13177940E+03</pdfrwt>
<totfact> 0.90105754E+01</totfact>
</mgrwt>
</event>
<event>
 5    1  0.2847672E-003  0.2160266E+03  0.7818608E-02  0.1389969E+00
         11   -1    0    0    0    0  0.00000000000E+00  0.00000000000E+00  0.10000829281E+04  0.10000829281E+04  0.51100000000E-03 0. -1.
          2   -1    0    0  501    0 -0.00000000000E+00 -0.00000000000E+00 -0.78031254037E+02  0.78031254079E+02  0.25500000000E-02 0. -1.
         11    1    1    2    0    0 -0.34761831594E+02 -0.21772410387E+03  0.75038721021E+03  0.78210813548E+03  0.51100000000E-03 0. -1.
         22    1    1    2    0    0 -0.18298233898E+01  0.17650415216E+02 -0.12435240110E+02  0.21668424205E+02  0.00000000000E+00 0. -1.
          2    1    1    2  501    0  0.36591654984E+02  0.20007368865E+03  0.18409970395E+03  0.27433762248E+03  0.25500000000E-02 0. -1.
<mgrwt>
<rscale>  0 0.61914417E+02</rscale>
<asrwt>0</asrwt>
<pdfrwt beam="1">  1       11 0.10000000E+01 0.21602664E+03</pdfrwt>
<pdfrwt beam="2">  1        2 0.12005804E-01 0.61914417E+02</pdfrwt>
<totfact> 0.58293322E+02</totfact>
</mgrwt>
</event>
<event>
 5    1  0.2847672E-003  0.1795514E+03  0.7818608E-02  0.1341326E+00
         11   -1    0    0    0    0  0.00000000000E+00  0.00000000000E+00  0.10002526243E+04  0.10002526243E+04  0.51100000000E-03 0. -1.
          2   -1    0    0  501    0 -0.00000000000E+00 -0.00000000000E+00 -0.71972241561E+02  0.71972241606E+02  0.25500000000E-02 0. -1.
         11    1    1    2    0    0  0.13470531320E+03 -0.12845419431E+03  0.79204609923E+03  0.81362339245E+03  0.51100000000E-03 0. -1.
         22    1    1    2    0    0 -0.31258774288E+02  0.69576530121E+01 -0.17949700303E+02  0.36711192386E+02  0.00000000000E+00 0. -1.
          2    1    1    2  501    0 -0.10344653891E+03  0.12149654130E+03  0.15418398380E+03  0.22189028105E+03  0.25500000000E-02 0. -1.
<mgrwt>
<rscale>  0 0.75828135E+02</rscale>
<asrwt>0</asrwt>
<pdfrwt beam="1">  1       11 0.10000000E+01 0.17955136E+03</pdfrwt>
<pdfrwt beam="2">  1        2 0.11075449E-01 0.75828135E+02</pdfrwt>
<totfact> 0.64944786E+02</totfact>
</mgrwt>
</event>
<event>
 5    1  0.2847672E-003  0.3917092E+02  0.7818608E-02  0.1615244E+00
         11   -1    0    0    0    0  0.00000000000E+00  0.00000000000E+00  0.99981645509E+03  0.99981645509E+03  0.51100000000E-03 0.  1.
          2   -1    0    0  501    0 -0.00000000000E+00 -0.00000000000E+00 -0.10485949316E+02  0.10485949626E+02  0.25500000000E-02 0.  1.
         11    1    1    2    0    0  0.21771840113E+02  0.42698361081E+02  0.22817224209E+03  0.23315174269E+03  0.51100000000E-03 0.  1.
         22    1    1    2    0    0 -0.20232265493E+02 -0.45666773001E+01  0.67996956915E+01  0.21827390363E+02  0.00000000000E+00 0.  1.
          2    1    1    2  501    0 -0.15395746201E+01 -0.38131683781E+02  0.75435856799E+03  0.75532327166E+03  0.25500000000E-02 0.  1.
<mgrwt>
<rscale>  0 0.28503562E+02</rscale>
<asrwt>0</asrwt>
<pdfrwt beam="1">  1       11 0.10000000E+01 0.39170915E+02</pdfrwt>
<pdfrwt beam="2">  1        2 0.16129269E-02 0.28503562E+02</pdfrwt>
<totfact> 0.66026309E+03</totfact>
</mgrwt>
</event>
<event>
 5    1  0.2847672E-003  0.3039051E+03  0.7818608E-02  0.1389678E+00
         11   -1    0    0    0    0  0.00000000000E+00  0.00000000000E+00  0.10001973965E+04  0.10001973965E+04  0.51100000000E-03 0.  1.
          2   -1    0    0  501    0 -0.00000000000E+00 -0.00000000000E+00 -0.98842047159E+02  0.98842047192E+02  0.25500000000E-02 0.  1.
         11    1    1    2    0    0 -0.30351880772E+03 -0.17346122644E+02  0.43250377454E+03  0.52866252903E+03  0.51100000000E-03 0.  1.
         22    1    1    2    0    0 -0.37466753115E+00  0.12637748498E+02  0.12823012534E+01  0.12708161132E+02  0.00000000000E+00 0. -1.
          2    1    1    2  501    0  0.30389347526E+03  0.47083741462E+01  0.46756927356E+03  0.55766875354E+03  0.25500000000E-02 0.  1.
<mgrwt>
<rscale>  0 0.61986789E+02</rscale>
<asrwt>0</asrwt>
<pdfrwt beam="1">  1       11 0.10000000E+01 0.30390512E+03</pdfrwt>
<pdfrwt beam="2">  1        2 0.15209470E-01 0.61986789E+02</pdfrwt>
<totfact> 0.44350846E+02</totfact>
</mgrwt>
</event>
<event>
 5    1  0.2847672E-003  0.5443757E+02  0.7818608E-02  0.1531361E+00
         11   -1    0    0    0    0  0.00000000000E+00  0.00000000000E+00  0.10001383761E+04  0.10001383761E+04  0.51100000000E-03 0.  1.
          2   -1    0    0  501    0 -0.00000000000E+00 -0.00000000000E+00 -0.55872252823E+01  0.55872258642E+01  0.25500000000E-02 0.  1.
         11    1    1    2    0    0  0.12433966215E+02  0.58692711143E+02  0.30393353948E+03  0.30979837682E+03  0.51100000000E-03 0.  1.
         22    1    1    2    0    0 -0.24363251155E+02 -0.63422155322E+01  0.11056679438E+03  0.11339668304E+03  0.00000000000E+00 0. -1.
          2    1    1    2  501    0  0.11929284940E+02 -0.52350495611E+02  0.58005081696E+03  0.58253054211E+03  0.25500000000E-02 0.  1.
<mgrwt>
<rscale>  0 0.37019955E+02</rscale>
<asrwt>0</asrwt>
<pdfrwt beam="1">  1       11 0.10000000E+01 0.54437567E+02</pdfrwt>
<pdfrwt beam="2">  1        2 0.85969209E-03 0.37019955E+02</pdfrwt>
<totfact> 0.15919070E+04</totfact>
</mgrwt>
</event>
<event>
 5    1  0.2847672E-003  0.5086924E+02  0.7818608E-02  0.1540090E+00
         11   -1    0    0    0    0  0.00000000000E+00  0.00000000000E+00  0.10004027951E+04  0.10004027951E+04  0.51100000000E-03 0.  1.
         -2   -1    0    0    0  501 -0.00000000000E+00 -0.00000000000E+00 -0.96099015527E+01  0.96099018910E+01  0.25500000000E-02 0. -1.
         11    1    1    2    0    0 -0.24046998745E+02 -0.27121863636E+02  0.13847373051E+03  0.14313918987E+03  0.51100000000E-03 0.  1.
         22    1    1    2    0    0 -0.25297824712E+02 -0.27315704238E+01  0.19494374676E+02  0.32054204968E+02  0.00000000000E+00 0.  1.
         -2    1    1    2    0  501  0.49344823457E+02  0.29853434060E+02  0.83282478839E+03  0.83481930218E+03  0.25500000000E-02 0. -1.
<mgrwt>
<rscale>  0 0.35977223E+02</rscale>
<asrwt>0</asrwt>
<pdfrwt beam="1">  1       11 0.10000000E+01 0.50869241E+02</pdfrwt>
<pdfrwt beam="2">  1       -2 0.14790419E-02 0.35977223E+02</pdfrwt>
<totfact> 0.71594611E+03</totfact>
</mgrwt>
</event>
<event>
 5    1  0.2847672E-003  0.8271360E+02  0.7818608E-02  0.1321522E+00
         11   -1    0    0    0    0  0.00000000000E+00  0.00000000000E+00  0.10002652743E+04  0.10002652743E+04  0.51100000000E-03 0. -1.
         -2   -1    0    0    0  501 -0.00000000000E+00 -0.00000000000E+00 -0.11066259744E+03  0.11066259747E+03  0.25500000000E-02 0. -1.
         11    1    1    2    0    0 -0.10050091326E+02  0.15149326159E+02  0.96833754646E+02  0.98525542159E+02  0.51100000000E-03 0. -1.
         22    1    1    2    0    0  0.24478667948E+02  0.78796656885E+02 -0.91402833570E+02  0.12313649461E+03  0.00000000000E+00 0. -1.
         -2    1    1    2    0  501 -0.14428576622E+02 -0.93945983044E+02  0.88417175576E+03  0.88926583497E+03  0.25500000000E-02 0. -1.
<mgrwt>
<rscale>  0 0.82713605E+02</rscale>
<asrwt>0</asrwt>
<pdfrwt beam="1">  1       11 0.10000000E+01 0.18179836E+02</pdfrwt>
<pdfrwt beam="2">  1       -2 0.17029531E-01 0.82713605E+02</pdfrwt>
<totfact> 0.21180442E+02</totfact>
</mgrwt>
</event>
<event>
 5    1  0.2847672E-003  0.1541726E+03  0.7818608E-02  0.1195437E+00
         11   -1    0    0    0    0  0.00000000000E+00  0.00000000000E+00  0.10001629677E+04  0.10001629677E+04  0.51100000000E-03 0. -1.
          2   -1    0    0  501    0 -0.00000000000E+00 -0.00000000000E+00 -0.43975282033E+02  0.43975282107E+02  0.25500000000E-02 0. -1.
         11    1    1    2    0    0  0.13742886981E+03 -0.55349817453E+02  0.79411317406E+03  0.80781559144E+03  0.51100000000E-03 0. -1.
         22    1    1    2    0    0  0.99895725457E+01  0.59432623438E+01  0.30513646601E+02  0.32652665371E+02  0.00000000000E+00 0.  1.
          2    1    1    2  501    0 -0.14741844235E+03  0.49406555110E+02  0.13156086495E+03  0.20366999295E+03  0.25500000000E-02 0. -1.
<mgrwt>
<rscale>  0 0.15417259E+03</rscale>
<asrwt>0</asrwt>
<pdfrwt beam="1">  1       11 0.10000000E+01 0.11623852E+02</pdfrwt>
<pdfrwt beam="2">  1        2 0.67665304E-02 0.15417259E+03</pdfrwt>
<totfact> 0.12512581E+03</totfact>
</mgrwt>
</event>
<event>
 5    1  0.2847672E-003  0.1830244E+03  0.7818608E-02  0.1350260E+00
         11   -1    0    0    0    0  0.00000000000E+00  0.00000000000E+00  0.99999463916E+03  0.99999463917E+03  0.51100000000E-03 0.  1.
          2   -1    0    0  501    0 -0.00000000000E+00 -0.00000000000E+00 -0.51999924530E+02  0.51999924593E+02  0.25500000000E-02 0.  1.
         11    1    1    2    0    0  0.10164738609E+03  0.14844449657E+03  0.67947333678E+03  0.70288830909E+03  0.51100000000E-03 0.  1.
         22    1    1    2    0    0 -0.15002146897E+02  0.24930362835E+02  0.39920665513E+02  0.49398855630E+02  0.00000000000E+00 0.  1.
          2    1    1    2  501    0 -0.86645239197E+02 -0.17337485940E+03  0.22860071234E+03  0.29970739904E+03  0.25500000000E-02 0.  1.
<mgrwt>
<rscale>  0 0.72974713E+02</rscale>
<asrwt>0</asrwt>
<pdfrwt beam="1">  1       11 0.10000000E+01 0.18302436E+03</pdfrwt>
<pdfrwt beam="2">  1        2 0.79999453E-02 0.72974713E+02</pdfrwt>
<totfact> 0.96058806E+02</totfact>
</mgrwt>
</event>
<event>
 5    1  0.2847672E-003  0.1923982E+03  0.7818608E-02  0.1436050E+00
         11   -1    0    0    0    0  0.00000000000E+00  0.00000000000E+00  0.99990448557E+03  0.99990448557E+03  0.51100000000E-03 0. -1.
          2   -1    0    0  501    0 -0.00000000000E+00 -0.00000000000E+00 -0.11387508583E+03  0.11387508586E+03  0.25500000000E-02 0. -1.
         11    1    1    2    0    0  0.14677090637E+03  0.11606525984E+03  0.43448092724E+03  0.47306079908E+03  0.51100000000E-03 0. -1.
         22    1    1    2    0    0  0.13862830116E+02 -0.13375467027E+01 -0.76095436570E+02  0.77359437413E+02  0.00000000000E+00 0. -1.
          2    1    1    2  501    0 -0.16063373649E+03 -0.11472771313E+03  0.52764390908E+03  0.56335933493E+03  0.25500000000E-02 0. -1.
<mgrwt>
<rscale>  0 0.51764544E+02</rscale>
<asrwt>0</asrwt>
<pdfrwt beam="1">  1       11 0.10000000E+01 0.19239819E+03</pdfrwt>
<pdfrwt beam="2">  1        2 0.17517570E-01 0.51764544E+02</pdfrwt>
<totfact> 0.37472022E+02</totfact>
</mgrwt>
</event>
<event>
 5    1  0.2847672E-003  0.6248816E+02  0.7818608E-02  0.1601724E+00
         11   -1    0    0    0    0  0.00000000000E+00  0.00000000000E+00  0.10000984970E+04  0.10000984970E+04  0.51100000000E-03 0. -1.
         -2   -1    0    0    0  501 -0.00000000000E+00 -0.00000000000E+00 -0.58734089711E+01  0.58734095246E+01  0.25500000000E-02 0. -1.
         11    1    1    2    0    0 -0.47955558899E+02 -0.26381059824E+02  0.32879115678E+03  0.33331564728E+03  0.51100000000E-03 0. -1.
         22    1    1    2    0    0 -0.12214673297E+02 -0.70258001536E+01  0.26383901570E+02  0.29911040999E+02  0.00000000000E+00 0.  1.
         -2    1    1    2    0  501  0.60170232195E+02  0.33406859977E+02  0.63905002971E+03  0.64274521828E+03  0.25500000000E-02 0. -1.
<mgrwt>
<rscale>  0 0.29673704E+02</rscale>
<asrwt>0</asrwt>
<pdfrwt beam="1">  1       11 0.10000000E+01 0.62488161E+02</pdfrwt>
<pdfrwt beam="2">  1       -2 0.90369040E-03 0.29673704E+02</pdfrwt>
<totfact> 0.13548261E+04</totfact>
</mgrwt>
</event>
<event>
 5    1  0.2847672E-003  0.1217757E+03  0.7818608E-02  0.1539843E+00
         11   -1    0    0    0    0  0.00000000000E+00  0.00000000000E+00  0.10001537017E+04  0.10001537017E+04  0.51100000000E-03 0. -1.
         -2   -1    0    0    0  501 -0.00000000000E+00 -0.00000000000E+00 -0.19544236375E+02  0.19544236541E+02  0.25500000000E-02 0.  1.
         11    1    1    2    0    0 -0.10088815746E+03 -0.62222771064E+02  0.44555526021E+03  0.46105269054E+03  0.51100000000E-03 0. -1.
         22    1    1    2    0    0 -0.61315500807E+00 -0.10628499847E+02  0.16124508979E+01  0.10767588679E+02  0.00000000000E+00 0.  1.
         -2    1    1    2    0  501  0.10150131246E+03  0.72851270911E+02  0.53344175418E+03  0.54787765898E+03  0.25500000000E-02 0.  1.
<mgrwt>
<rscale>  0 0.36006177E+02</rscale>
<asrwt>0</asrwt>
<pdfrwt beam="1">  1       11 0.10000000E+01 0.12177574E+03</pdfrwt>
<pdfrwt beam="2">  1       -2 0.30072677E-02 0.36006177E+02</pdfrwt>
<totfact> 0.26555911E+03</totfact>
</mgrwt>
</event>
<event>
 5    1  0.2847672E-003  0.1014762E+03  0.7818608E-02  0.1366364E+00
         11   -1    0    0    0    0  0.00000000000E+00  0.00000000000E+00  0.10002539335E+04  0.10002539335E+04  0.51100000000E-03 0. -1.
          2   -1    0    0  501    0 -0.00000000000E+00 -0.00000000000E+00 -0.25458680174E+02  0.25458680301E+02  0.25500000000E-02 0. -1.
         11    1    1    2    0    0  0.43638756409E+02 -0.11288436920E+03  0.68131941800E+03  0.69198509464E+03  0.51100000000E-03 0. -1.
         22    1    1    2    0    0  0.17701191106E+01  0.45785958308E+02  0.22786573192E+02  0.51173383880E+02  0.00000000000E+00 0. -1.
          2    1    1    2  501    0 -0.45408875519E+02  0.67098410893E+02  0.27068926218E+03  0.28255413532E+03  0.25500000000E-02 0. -1.
<mgrwt>
<rscale>  0 0.68188386E+02</rscale>
<asrwt>0</asrwt>
<pdfrwt beam="1">  1       11 0.10000000E+01 0.10147620E+03</pdfrwt>
<pdfrwt beam="2">  1        2 0.39177145E-02 0.68188386E+02</pdfrwt>
<totfact> 0.23583597E+03</totfact>
</mgrwt>
</event>
<event>
 5    1  0.2847672E-003  0.5996993E+02  0.7818608E-02  0.1530608E+00
         11   -1    0    0    0    0  0.00000000000E+00  0.00000000000E+00  0.99987338205E+03  0.99987338205E+03  0.51100000000E-03 0.  1.
          2   -1    0    0  501    0 -0.00000000000E+00 -0.00000000000E+00 -0.86167443530E+01  0.86167447303E+01  0.25500000000E-02 0.  1.
         11    1    1    2    0    0  0.27926721628E+02 -0.52248467660E+02  0.24835466120E+03  0.25532301481E+03  0.51100000000E-03 0.  1.
         22    1    1    2    0    0  0.19114126123E+02  0.12732020897E+02  0.30800504543E+02  0.38420375502E+02  0.00000000000E+00 0.  1.
          2    1    1    2  501    0 -0.47040847751E+02  0.39516446763E+02  0.71210147195E+03  0.71474673646E+03  0.25500000000E-02 0.  1.
<mgrwt>
<rscale>  0 0.37111871E+02</rscale>
<asrwt>0</asrwt>
<pdfrwt beam="1">  1       11 0.10000000E+01 0.59969931E+02</pdfrwt>
<pdfrwt beam="2">  1        2 0.13254851E-02 0.37111871E+02</pdfrwt>
<totfact> 0.89684312E+03</totfact>
</mgrwt>
</event>
<event>
 5    1  0.2847672E-003  0.2261080E+03  0.7818608E-02  0.1318169E+00
         11   -1    0    0    0    0  0.00000000000E+00  0.00000000000E+00  0.10000781039E+04  0.10000781039E+04  0.51100000000E-03 0. -1.
          2   -1    0    0  501    0 -0.00000000000E+00 -0.00000000000E+00 -0.13862304394E+03  0.13862304396E+03  0.25500000000E-02 0. -1.
         11    1    1    2    0    0  0.23240262199E+02  0.21133452450E+03  0.41700703145E+03  0.46807825768E+03  0.51100000000E-03 0. -1.
         22    1    1    2    0    0 -0.12614216436E+02  0.28512408995E+02 -0.84322070830E+02  0.89901543658E+02  0.00000000000E+00 0. -1.
          2    1    1    2  501    0 -0.10626045763E+02 -0.23984693349E+03  0.52877009935E+03  0.58072134654E+03  0.25500000000E-02 0. -1.
<mgrwt>
<rscale>  0 0.83962037E+02</rscale>
<asrwt>0</asrwt>
<pdfrwt beam="1">  1       11 0.10000000E+01 0.22610796E+03</pdfrwt>
<pdfrwt beam="2">  1        2 0.21328287E-01 0.83962037E+02</pdfrwt>
<totfact> 0.30754894E+02</totfact>
</mgrwt>
</event>
<event>
 5    1  0.2847672E-003  0.1114735E+03  0.7818608E-02  0.1441442E+00
         11   -1    0    0    0    0  0.00000000000E+00  0.00000000000E+00  0.99997269171E+03  0.99997269171E+03  0.51100000000E-03 0.  1.
         -2   -1    0    0    0  501 -0.00000000000E+00 -0.00000000000E+00 -0.27578560463E+02  0.27578560580E+02  0.25500000000E-02 0. -1.
         11    1    1    2    0    0  0.26232165588E+02  0.11372265868E+03  0.66803879041E+03  0.67815691039E+03  0.51100000000E-03 0.  1.
         22    1    1    2    0    0 -0.20739358309E+02 -0.10142971906E+02 -0.45574592812E+01  0.23532345766E+02  0.00000000000E+00 0. -1.
         -2    1    1    2    0  501 -0.54928072788E+01 -0.10357968678E+03  0.30891280012E+03  0.32586199614E+03  0.25500000000E-02 0. -1.
<mgrwt>
<rscale>  0 0.50730337E+02</rscale>
<asrwt>0</asrwt>
<pdfrwt beam="1">  1       11 0.10000000E+01 0.11147347E+03</pdfrwt>
<pdfrwt beam="2">  1       -2 0.42427395E-02 0.50730337E+02</pdfrwt>
<totfact> 0.17004556E+03</totfact>
</mgrwt>
</event>
<event>
 5    1  0.2847672E-003  0.2219164E+02  0.7818608E-02  0.1795780E+00
         11   -1    0    0    0    0  0.00000000000E+00  0.00000000000E+00  0.10000057688E+04  0.10000057688E+04  0.51100000000E-03 0.  1.
          2   -1    0    0  501    0 -0.00000000000E+00 -0.00000000000E+00 -0.15966234586E+01  0.15966254949E+01  0.25500000000E-02 0.  1.
         11    1    1    2    0    0  0.50867080295E+01 -0.17551916847E+02  0.10486341841E+03  0.10644379223E+03  0.51100000000E-03 0.  1.
         22    1    1    2    0    0 -0.13279642856E+02 -0.47070475682E+01  0.77629033628E+02  0.78897224749E+02  0.00000000000E+00 0.  1.
          2    1    1    2  501    0  0.81929348260E+01  0.22258964415E+02  0.81591669328E+03  0.81626137729E+03  0.25500000000E-02 0.  1.
<mgrwt>
<rscale>  0 0.17682253E+02</rscale>
<asrwt>0</asrwt>
<pdfrwt beam="1">  1       11 0.10000000E+01 0.22191643E+02</pdfrwt>
<pdfrwt beam="2">  1        2 0.24563595E-03 0.17682253E+02</pdfrwt>
<totfact> 0.68329414E+04</totfact>
</mgrwt>
</event>
<event>
 5    1  0.2847672E-003  0.1532775E+03  0.7818608E-02  0.1199782E+00
         11   -1    0    0    0    0  0.00000000000E+00  0.00000000000E+00  0.10000860605E+04  0.10000860605E+04  0.51100000000E-03 0. -1.
          2   -1    0    0  501    0 -0.00000000000E+00 -0.00000000000E+00 -0.27735819032E+02  0.27735819150E+02  0.25500000000E-02 0. -1.
         11    1    1    2    0    0 -0.12979087066E+03  0.41992761281E+02  0.66107756904E+03  0.67500564027E+03  0.51100000000E-03 0. -1.
         22    1    1    2    0    0 -0.14661691735E+02  0.46662225002E+00  0.39307842997E+02  0.41955803674E+02  0.00000000000E+00 0.  1.
          2    1    1    2  501    0  0.14445256239E+03 -0.42459383531E+02  0.27196482940E+03  0.31086043568E+03  0.25500000000E-02 0. -1.
<mgrwt>
<rscale>  0 0.15056342E+03</rscale>
<asrwt>0</asrwt>
<pdfrwt beam="1">  1       11 0.10000000E+01 0.15327748E+03</pdfrwt>
<pdfrwt beam="2">  1        2 0.42674162E-02 0.15056342E+03</pdfrwt>
<totfact> 0.22765975E+03</totfact>
</mgrwt>
</event>
<event>
 5    1  0.2847672E-003  0.3594840E+03  0.7818608E-02  0.1158917E+00
         11   -1    0    0    0    0  0.00000000000E+00  0.00000000000E+00  0.10004535978E+04  0.10004535978E+04  0.51100000000E-03 0.  1.
          2   -1    0    0  501    0 -0.00000000000E+00 -0.00000000000E+00 -0.37695075317E+03  0.37695075318E+03  0.25500000000E-02 0.  1.
         11    1    1    2    0    0 -0.24397614419E+03 -0.21548349639E+03 -0.21341729965E+02  0.32621000228E+03  0.51100000000E-03 0.  1.
         22    1    1    2    0    0 -0.86511655770E+02  0.49937128590E+02 -0.14676854516E+03  0.17753588157E+03  0.00000000000E+00 0.  1.
          2    1    1    2  501    0  0.33048779996E+03  0.16554636780E+03  0.79161311976E+03  0.87365846714E+03  0.25500000000E-02 0.  1.
<mgrwt>
<rscale>  0 0.18949615E+03</rscale>
<asrwt>0</asrwt>
<pdfrwt beam="1">  1       11 0.10000000E+01 0.35948402E+03</pdfrwt>
<pdfrwt beam="2">  1        2 0.58018727E-01 0.18949615E+03</pdfrwt>
<totfact> 0.10608089E+02</totfact>
</mgrwt>
</event>
<event>
 5    1  0.2847672E-003  0.2926464E+03  0.7818608E-02  0.1088975E+00
         11   -1    0    0    0    0  0.00000000000E+00  0.00000000000E+00  0.10001708366E+04  0.10001708366E+04  0.51100000000E-03 0. -1.
         -2   -1    0    0    0  501 -0.00000000000E+00 -0.00000000000E+00 -0.14032796104E+03  0.14032796106E+03  0.25500000000E-02 0.  1.
         11    1    1    2    0    0  0.28529486421E+03  0.53013205031E+02  0.78718745737E+03  0.83896820709E+03  0.51100000000E-03 0. -1.
         22    1    1    2    0    0 -0.17399284558E+02  0.94860546668E+00 -0.36453158455E+01  0.17802339259E+02  0.00000000000E+00 0.  1.
         -2    1    1    2    0  501 -0.26789557965E+03 -0.53961810498E+02  0.76300734075E+02  0.28372825135E+03  0.25500000000E-02 0.  1.
<mgrwt>
<rscale>  0 0.29264635E+03</rscale>
<asrwt>0</asrwt>
<pdfrwt beam="1">  1       11 0.10000000E+01 0.29017850E+03</pdfrwt>
<pdfrwt beam="2">  1       -2 0.21592605E-01 0.29264635E+03</pdfrwt>
<totfact> 0.14816121E+02</totfact>
</mgrwt>
</event>
<event>
 5    1  0.2847672E-003  0.5316177E+02  0.7818608E-02  0.1428997E+00
         11   -1    0    0    0    0  0.00000000000E+00  0.00000000000E+00  0.10002612355E+04  0.10002612355E+04  0.51100000000E-03 0. -1.
          2   -1    0    0  501    0 -0.00000000000E+00 -0.00000000000E+00 -0.93885228311E+01  0.93885231774E+01  0.25500000000E-02 0. -1.
         11    1    1    2    0    0 -0.16329197265E+02 -0.19873758062E+01  0.66535570751E+02  0.68538854100E+02  0.51100000000E-03 0. -1.
         22    1    1    2    0    0  0.26240201309E+02 -0.46934166452E+02  0.86922938483E+02  0.10221037804E+03  0.00000000000E+00 0. -1.
          2    1    1    2  501    0 -0.99110040443E+01  0.48921542258E+02  0.83741420347E+03  0.83890052657E+03  0.25500000000E-02 0. -1.
<mgrwt>
<rscale>  0 0.53161775E+02</rscale>
<asrwt>0</asrwt>
<pdfrwt beam="1">  1       11 0.10000000E+01 0.16449700E+02</pdfrwt>
<pdfrwt beam="2">  1        2 0.14447654E-02 0.53161775E+02</pdfrwt>
<totfact> 0.85125666E+03</totfact>
</mgrwt>
</event>
<event>
 5    1  0.2847672E-003  0.2158688E+02  0.7818608E-02  0.1761792E+00
         11   -1    0    0    0    0  0.00000000000E+00  0.00000000000E+00  0.99992033047E+03  0.99992033047E+03  0.51100000000E-03 0.  1.
          2   -1    0    0  501    0 -0.00000000000E+00 -0.00000000000E+00 -0.21934451181E+01  0.21934466004E+01  0.25500000000E-02 0.  1.
         11    1    1    2    0    0 -0.28590911394E+02  0.14802797018E+01  0.15784715632E+03  0.16042243048E+03  0.51100000000E-03 0.  1.
         22    1    1    2    0    0  0.10789331543E+02 -0.13229301033E+02  0.96008393699E+02  0.97514284808E+02  0.00000000000E+00 0.  1.
          2    1    1    2  501    0  0.17801579851E+02  0.11749021331E+02  0.74387133534E+03  0.74417706179E+03  0.25500000000E-02 0.  1.
<mgrwt>
<rscale>  0 0.19196683E+02</rscale>
<asrwt>0</asrwt>
<pdfrwt beam="1">  1       11 0.10000000E+01 0.21586880E+02</pdfrwt>
<pdfrwt beam="2">  1        2 0.33742631E-03 0.19196683E+02</pdfrwt>
<totfact> 0.46367160E+04</totfact>
</mgrwt>
</event>
<event>
 5    1  0.2847672E-003  0.3621256E+02  0.7818608E-02  0.1538089E+00
         11   -1    0    0    0    0  0.00000000000E+00  0.00000000000E+00  0.99988316271E+03  0.99988316271E+03  0.51100000000E-03 0. -1.
          2   -1    0    0  501    0 -0.00000000000E+00 -0.00000000000E+00 -0.44185419485E+01  0.44185426843E+01  0.25500000000E-02 0. -1.
         11    1    1    2    0    0  0.13166951391E+02  0.14443173593E+02  0.88852831671E+02  0.90976917779E+02  0.51100000000E-03 0. -1.
         22    1    1    2    0    0 -0.13989181367E+02  0.32220148555E+02  0.11280860176E+03  0.11815081802E+03  0.00000000000E+00 0.  1.
          2    1    1    2  501    0  0.82222997569E+00 -0.46663322148E+02  0.79380318733E+03  0.79517396960E+03  0.25500000000E-02 0. -1.
<mgrwt>
<rscale>  0 0.36212564E+02</rscale>
<asrwt>0</asrwt>
<pdfrwt beam="1">  1       11 0.10000000E+01 0.19544162E+02</pdfrwt>
<pdfrwt beam="2">  1        2 0.67969630E-03 0.36212564E+02</pdfrwt>
<totfact> 0.21667944E+04</totfact>
</mgrwt>
</event>
<event>
 5    1  0.2847672E-003  0.6522149E+02  0.7818608E-02  0.1392607E+00
         11   -1    0    0    0    0  0.00000000000E+00  0.00000000000E+00  0.10002709590E+04  0.10002709590E+04  0.51100000000E-03 0. -1.
         -2   -1    0    0    0  501 -0.00000000000E+00 -0.00000000000E+00 -0.72380288890E+01  0.72380293382E+01  0.25500000000E-02 0. -1.
         11    1    1    2    0    0  0.19961130584E+02  0.40428249701E+02  0.14647337089E+03  0.15325579430E+03  0.51100000000E-03 0. -1.
         22    1    1    2    0    0  0.53094636228E+01  0.15379887627E+02  0.21703049238E+02  0.27124780066E+02  0.00000000000E+00 0. -1.
         -2    1    1    2    0  501 -0.25270594207E+02 -0.55808137328E+02  0.82485650995E+03  0.82712841393E+03  0.25500000000E-02 0. -1.
<mgrwt>
<rscale>  0 0.61262967E+02</rscale>
<asrwt>0</asrwt>
<pdfrwt beam="1">  1       11 0.10000000E+01 0.65221494E+02</pdfrwt>
<pdfrwt beam="2">  1       -2 0.11138446E-02 0.61262967E+02</pdfrwt>
<totfact> 0.11695454E+04</totfact>
</mgrwt>
</event>
<event>
 5    1  0.2847672E-003  0.1524104E+03  0.7818608E-02  0.1197542E+00
         11   -1    0    0    0    0  0.00000000000E+00  0.00000000000E+00  0.10002454493E+04  0.10002454493E+04  0.51100000000E-03 0. -1.
          2   -1    0    0  501    0 -0.00000000000E+00 -0.00000000000E+00 -0.22791766251E+02  0.22791766394E+02  0.25500000000E-02 0. -1.
         11    1    1    2    0    0  0.13698155666E+03  0.34402289873E+02  0.59037355701E+03  0.60703245484E+03  0.51100000000E-03 0. -1.
         22    1    1    2    0    0 -0.20447363278E+02 -0.21071072978E+02  0.39849075591E+02  0.49497814163E+02  0.00000000000E+00 0.  1.
          2    1    1    2  501    0 -0.11653419338E+03 -0.13331216895E+02  0.34723105043E+03  0.36650694667E+03  0.25500000000E-02 0. -1.
<mgrwt>
<rscale>  0 0.15241042E+03</rscale>
<asrwt>0</asrwt>
<pdfrwt beam="1">  1       11 0.10000000E+01 0.14123549E+03</pdfrwt>
<pdfrwt beam="2">  1        2 0.35072861E-02 0.15241042E+03</pdfrwt>
<totfact> 0.29589919E+03</totfact>
</mgrwt>
</event>
<event>
 5    1  0.2847672E-003  0.2420632E+03  0.7818608E-02  0.1438389E+00
         11   -1    0    0    0    0  0.00000000000E+00  0.00000000000E+00  0.10003934485E+04  0.10003934485E+04  0.51100000000E-03 0. -1.
          2   -1    0    0  501    0 -0.00000000000E+00 -0.00000000000E+00 -0.10414917042E+03  0.10414917045E+03  0.25500000000E-02 0. -1.
         11    1    1    2    0    0  0.19155642423E+03  0.15868322068E+03  0.24071454398E+03  0.34614696282E+03  0.51100000000E-03 0. -1.
         22    1    1    2    0    0 -0.10759326335E+02 -0.15968827887E+01 -0.30169938348E+02  0.32070832820E+02  0.00000000000E+00 0. -1.
          2    1    1    2  501    0 -0.18079709789E+03 -0.15708633789E+03  0.68569967240E+03  0.72632482327E+03  0.25500000000E-02 0. -1.
<mgrwt>
<rscale>  0 0.51312422E+02</rscale>
<asrwt>0</asrwt>
<pdfrwt beam="1">  1       11 0.10000000E+01 0.24206319E+03</pdfrwt>
<pdfrwt beam="2">  1        2 0.16029253E-01 0.51312422E+02</pdfrwt>
<totfact> 0.41367191E+02</totfact>
</mgrwt>
</event>
<event>
 5    1  0.2847672E-003  0.2335128E+03  0.7818608E-02  0.1144999E+00
         11   -1    0    0    0    0  0.00000000000E+00  0.00000000000E+00  0.10000733453E+04  0.10000733453E+04  0.51100000000E-03 0.  1.
          2   -1    0    0  501    0 -0.00000000000E+00 -0.00000000000E+00 -0.16554502087E+03  0.16554502089E+03  0.25500000000E-02 0.  1.
         11    1    1    2    0    0  0.15227519633E+03  0.32944508538E+03  0.39268862722E+03  0.53472063514E+03  0.51100000000E-03 0.  1.
         22    1    1    2    0    0 -0.11797790101E+03 -0.13758292794E+03  0.41938371819E+02  0.18602869193E+03  0.00000000000E+00 0. -1.
          2    1    1    2  501    0 -0.34297295319E+02 -0.19186215743E+03  0.39990132542E+03  0.44486903915E+03  0.25500000000E-02 0.  1.
<mgrwt>
<rscale>  0 0.20572260E+03</rscale>
<asrwt>0</asrwt>
<pdfrwt beam="1">  1       11 0.10000000E+01 0.23351284E+03</pdfrwt>
<pdfrwt beam="2">  1        2 0.25470332E-01 0.20572260E+03</pdfrwt>
<totfact> 0.25902097E+02</totfact>
</mgrwt>
</event>
<event>
 5    1  0.2847672E-003  0.5013080E+03  0.7818608E-02  0.1242720E+00
         11   -1    0    0    0    0  0.00000000000E+00  0.00000000000E+00  0.10001099878E+04  0.10001099878E+04  0.51100000000E-03 0. -1.
          2   -1    0    0  501    0 -0.00000000000E+00 -0.00000000000E+00 -0.42093145276E+03  0.42093145277E+03  0.25500000000E-02 0. -1.
         11    1    1    2    0    0  0.19999019480E+03 -0.48058074900E+03 -0.10500778333E+03  0.53101842612E+03  0.51100000000E-03 0. -1.
         22    1    1    2    0    0 -0.23763206547E+02  0.16332056275E+02 -0.14952837051E+02  0.32480969558E+02  0.00000000000E+00 0. -1.
          2    1    1    2  501    0 -0.17622698826E+03  0.46424869272E+03  0.69913915538E+03  0.85754204485E+03  0.25500000000E-02 0. -1.
<mgrwt>
<rscale>  0 0.12022869E+03</rscale>
<asrwt>0</asrwt>
<pdfrwt beam="1">  1       11 0.10000000E+01 0.50130803E+03</pdfrwt>
<pdfrwt beam="2">  1        2 0.64765806E-01 0.12022869E+03</pdfrwt>
<totfact> 0.94535609E+01</totfact>
</mgrwt>
</event>
<event>
 5    1  0.2847672E-003  0.1450241E+03  0.7818608E-02  0.1206724E+00
         11   -1    0    0    0    0  0.00000000000E+00  0.00000000000E+00  0.10001673284E+04  0.10001673284E+04  0.51100000000E-03 0.  1.
          2   -1    0    0  501    0 -0.00000000000E+00 -0.00000000000E+00 -0.25558485020E+02  0.25558485147E+02  0.25500000000E-02 0.  1.
         11    1    1    2    0    0  0.99569730454E+02  0.96335480935E+02  0.71552272523E+03  0.72881233965E+03  0.51100000000E-03 0.  1.
         22    1    1    2    0    0 -0.15006448672E+02 -0.17413891770E+02  0.16928897082E+02  0.28548637179E+02  0.00000000000E+00 0.  1.
          2    1    1    2  501    0 -0.84563281782E+02 -0.78921589165E+02  0.24215722103E+03  0.26836483668E+03  0.25500000000E-02 0.  1.
<mgrwt>
<rscale>  0 0.14502412E+03</rscale>
<asrwt>0</asrwt>
<pdfrwt beam="1">  1       11 0.10000000E+01 0.13854478E+03</pdfrwt>
<pdfrwt beam="2">  1        2 0.39327325E-02 0.14502412E+03</pdfrwt>
<totfact> 0.25285325E+03</totfact>
</mgrwt>
</event>
<event>
 5    1  0.2847672E-003  0.1294935E+03  0.7818608E-02  0.1228209E+00
         11   -1    0    0    0    0  0.00000000000E+00  0.00000000000E+00  0.99997851298E+03  0.99997851298E+03  0.51100000000E-03 0. -1.
          2   -1    0    0  501    0 -0.00000000000E+00 -0.00000000000E+00 -0.17590681532E+02  0.17590681717E+02  0.25500000000E-02 0. -1.
         11    1    1    2    0    0 -0.11754423517E+03 -0.48943959895E+02  0.61460085440E+03  0.62765147069E+03  0.51100000000E-03 0. -1.
         22    1    1    2    0    0  0.54391481942E+01  0.89152336866E+01  0.28196845312E+02  0.30068718136E+02  0.00000000000E+00 0. -1.
          2    1    1    2  501    0  0.11210508697E+03  0.40028726208E+02  0.33959013174E+03  0.35984900587E+03  0.25500000000E-02 0. -1.
<mgrwt>
<rscale>  0 0.12949352E+03</rscale>
<asrwt>0</asrwt>
<pdfrwt beam="1">  1       11 0.10000000E+01 0.12732697E+03</pdfrwt>
<pdfrwt beam="2">  1        2 0.27062005E-02 0.12949352E+03</pdfrwt>
<totfact> 0.41245747E+03</totfact>
</mgrwt>
</event>
<event>
 5    1  0.2847672E-003  0.2876206E+03  0.7818608E-02  0.1361648E+00
         11   -1    0    0    0    0  0.00000000000E+00  0.00000000000E+00  0.10005507284E+04  0.10005507284E+04  0.51100000000E-03 0. -1.
          2   -1    0    0  501    0 -0.00000000000E+00 -0.00000000000E+00 -0.95522961530E+03  0.95522961530E+03  0.25500000000E-02 0. -1.
         11    1    1    2    0    0 -0.21569512362E+03 -0.19028641344E+03  0.95422630652E+03  0.99663491287E+03  0.51100000000E-03 0. -1.
         22    1    1    2    0    0 -0.10697045966E+02  0.12974347334E+02 -0.80821562475E+02  0.82552319423E+02  0.00000000000E+00 0.  1.
          2    1    1    2  501    0  0.22639216958E+03  0.17731206610E+03 -0.82808363092E+03  0.87659311144E+03  0.25500000000E-02 0. -1.
<mgrwt>
<rscale>  0 0.69544806E+02</rscale>
<asrwt>0</asrwt>
<pdfrwt beam="1">  1       11 0.10000000E+01 0.28762063E+03</pdfrwt>
<pdfrwt beam="2">  1        2 0.14703933E+00 0.69544806E+02</pdfrwt>
<totfact> 0.37304103E+01</totfact>
</mgrwt>
</event>
<event>
 5    1  0.2847672E-003  0.4028058E+02  0.7818608E-02  0.1630924E+00
         11   -1    0    0    0    0  0.00000000000E+00  0.00000000000E+00  0.10002997191E+04  0.10002997191E+04  0.51100000000E-03 0.  1.
          2   -1    0    0  501    0 -0.00000000000E+00 -0.00000000000E+00 -0.43723707896E+01  0.43723715332E+01  0.25500000000E-02 0.  1.
         11    1    1    2    0    0  0.40086229957E+02  0.23826259050E+02  0.17658009962E+03  0.18263386333E+03  0.51100000000E-03 0.  1.
         22    1    1    2    0    0 -0.78480092020E+00 -0.18387776665E+02  0.10580689677E+03  0.10739565004E+03  0.00000000000E+00 0. -1.
          2    1    1    2  501    0 -0.39301429037E+02 -0.54384823853E+01  0.71354035187E+03  0.71464257722E+03  0.25500000000E-02 0.  1.
<mgrwt>
<rscale>  0 0.27227637E+02</rscale>
<asrwt>0</asrwt>
<pdfrwt beam="1">  1       11 0.10000000E+01 0.40280579E+02</pdfrwt>
<pdfrwt beam="2">  1        2 0.67287408E-03 0.27227637E+02</pdfrwt>
<totfact> 0.20579152E+04</totfact>
</mgrwt>
</event>
<event>
 5    1  0.2847672E-003  0.4481568E+02  0.7818608E-02  0.1599783E+00
         11   -1    0    0    0    0  0.00000000000E+00  0.00000000000E+00  0.10001816182E+04  0.10001816182E+04  0.51100000000E-03 0.  1.
          2   -1    0    0  501    0 -0.00000000000E+00 -0.00000000000E+00 -0.40809636698E+01  0.40809644665E+01  0.25500000000E-02 0.  1.
         11    1    1    2    0    0 -0.43609348914E+02 -0.22846963769E+02  0.28746252889E+03  0.29164784344E+03  0.51100000000E-03 0.  1.
         22    1    1    2    0    0 -0.57344311430E+00  0.19870023977E+02  0.80515407460E+02  0.82932970092E+02  0.00000000000E+00 0.  1.
          2    1    1    2  501    0  0.44182792028E+02  0.29769397917E+01  0.62812271820E+03  0.62968176916E+03  0.25500000000E-02 0.  1.
<mgrwt>
<rscale>  0 0.29847262E+02</rscale>
<asrwt>0</asrwt>
<pdfrwt beam="1">  1       11 0.10000000E+01 0.44815684E+02</pdfrwt>
<pdfrwt beam="2">  1        2 0.62795464E-03 0.29847262E+02</pdfrwt>
<totfact> 0.23040496E+04</totfact>
</mgrwt>
</event>
<event>
 5    1  0.2847672E-003  0.1151240E+03  0.7818608E-02  0.1412020E+00
         11   -1    0    0    0    0  0.00000000000E+00  0.00000000000E+00  0.10001638511E+04  0.10001638511E+04  0.51100000000E-03 0.  1.
          2   -1    0    0  501    0 -0.00000000000E+00 -0.00000000000E+00 -0.23463753713E+02  0.23463753852E+02  0.25500000000E-02 0. -1.
         11    1    1    2    0    0 -0.12631129783E+03 -0.27415581326E+02  0.56543549118E+03  0.58002021753E+03  0.51100000000E-03 0.  1.
         22    1    1    2    0    0  0.27894932160E+02 -0.20520628132E+01  0.10486121220E+02  0.29871339780E+02  0.00000000000E+00 0.  1.
          2    1    1    2  501    0  0.98416365672E+02  0.29467644139E+02  0.40077848501E+03  0.41373604767E+03  0.25500000000E-02 0. -1.
<mgrwt>
<rscale>  0 0.56745493E+02</rscale>
<asrwt>0</asrwt>
<pdfrwt beam="1">  1       11 0.10000000E+01 0.11512395E+03</pdfrwt>
<pdfrwt beam="2">  1        2 0.36103996E-02 0.56745493E+02</pdfrwt>
<totfact> 0.25677285E+03</totfact>
</mgrwt>
</event>
<event>
 5    1  0.2847672E-003  0.1755412E+03  0.7818608E-02  0.1404144E+00
         11   -1    0    0    0    0  0.00000000000E+00  0.00000000000E+00  0.10000859483E+04  0.10000859483E+04  0.51100000000E-03 0.  1.
          2   -1    0    0  501    0 -0.00000000000E+00 -0.00000000000E+00 -0.13949071224E+03  0.13949071226E+03  0.25500000000E-02 0. -1.
         11    1    1    2    0    0 -0.17318807683E+03  0.32600221955E+02  0.92099293411E+03  0.93770190845E+03  0.51100000000E-03 0.  1.
         22    1    1    2    0    0  0.12385130014E+02  0.15074235706E+02 -0.22769033917E+02  0.29984211397E+02  0.00000000000E+00 0.  1.
          2    1    1    2  501    0  0.16080294681E+03 -0.47674457661E+02 -0.37628664130E+02  0.17189054072E+03  0.25500000000E-02 0. -1.
<mgrwt>
<rscale>  0 0.58521244E+02</rscale>
<asrwt>0</asrwt>
<pdfrwt beam="1">  1       11 0.10000000E+01 0.17554118E+03</pdfrwt>
<pdfrwt beam="2">  1        2 0.21461953E-01 0.58521244E+02</pdfrwt>
<totfact> 0.30125429E+02</totfact>
</mgrwt>
</event>
<event>
 5    1  0.2847672E-003  0.7388018E+02  0.7818608E-02  0.1347374E+00
         11   -1    0    0    0    0  0.00000000000E+00  0.00000000000E+00  0.10002779208E+04  0.10002779208E+04  0.51100000000E-03 0. -1.
          2   -1    0    0  501    0 -0.00000000000E+00 -0.00000000000E+00 -0.52935056439E+01  0.52935062581E+01  0.25500000000E-02 0. -1.
         11    1    1    2    0    0 -0.61084759354E+02  0.30168584775E+02  0.36841080114E+03  0.37465718962E+03  0.51100000000E-03 0. -1.
         22    1    1    2    0    0  0.14859541741E+02 -0.12920465161E+02  0.92851951785E+02  0.94916960292E+02  0.00000000000E+00 0.  1.
          2    1    1    2  501    0  0.46225217613E+02 -0.17248119614E+02  0.53372166221E+03  0.53599727714E+03  0.25500000000E-02 0. -1.
<mgrwt>
<rscale>  0 0.73880182E+02</rscale>
<asrwt>0</asrwt>
<pdfrwt beam="1">  1       11 0.10000000E+01 0.68128525E+02</pdfrwt>
<pdfrwt beam="2">  1        2 0.81461184E-03 0.73880182E+02</pdfrwt>
<totfact> 0.19519069E+04</totfact>
</mgrwt>
</event>
<event>
 5    1  0.2847672E-003  0.2775721E+03  0.7818608E-02  0.1309705E+00
         11   -1    0    0    0    0  0.00000000000E+00  0.00000000000E+00  0.10001860330E+04  0.10001860330E+04  0.51100000000E-03 0.  1.
         -2   -1    0    0    0  501 -0.00000000000E+00 -0.00000000000E+00 -0.27018584341E+03  0.27018584342E+03  0.25500000000E-02 0. -1.
         11    1    1    2    0    0 -0.25737794817E+03 -0.11351601870E+03  0.83800375255E+03  0.88395677722E+03  0.51100000000E-03 0.  1.
         22    1    1    2    0    0  0.15691151010E+02  0.22477059208E+02 -0.12463656542E+03  0.12761545303E+03  0.00000000000E+00 0. -1.
         -2    1    1    2    0  501  0.24168679716E+03  0.91038959490E+02  0.16633002426E+02  0.25879964614E+03  0.25500000000E-02 0. -1.
<mgrwt>
<rscale>  0 0.87228841E+02</rscale>
<asrwt>0</asrwt>
<pdfrwt beam="1">  1       11 0.10000000E+01 0.27757211E+03</pdfrwt>
<pdfrwt beam="2">  1       -2 0.41574784E-01 0.87228841E+02</pdfrwt>
<totfact> 0.44457566E+01</totfact>
</mgrwt>
</event>
<event>
 5    1  0.2847672E-003  0.1630008E+03  0.7818608E-02  0.1434567E+00
         11   -1    0    0    0    0  0.00000000000E+00  0.00000000000E+00  0.10001417395E+04  0.10001417395E+04  0.51100000000E-03 0. -1.
          2   -1    0    0  501    0 -0.00000000000E+00 -0.00000000000E+00 -0.52736049512E+02  0.52736049573E+02  0.25500000000E-02 0. -1.
         11    1    1    2    0    0 -0.15820532098E+03  0.55519134309E+02  0.74517691634E+03  0.76380621528E+03  0.51100000000E-03 0. -1.
         22    1    1    2    0    0  0.16267296071E+02 -0.34227108969E+01 -0.16335924754E+02  0.23306700944E+02  0.00000000000E+00 0. -1.
          2    1    1    2  501    0  0.14193802491E+03 -0.52096423413E+02  0.21856469845E+03  0.26576487289E+03  0.25500000000E-02 0. -1.
<mgrwt>
<rscale>  0 0.52054201E+02</rscale>
<asrwt>0</asrwt>
<pdfrwt beam="1">  1       11 0.10000000E+01 0.16300082E+03</pdfrwt>
<pdfrwt beam="2">  1        2 0.81143881E-02 0.52054201E+02</pdfrwt>
<totfact> 0.91893567E+02</totfact>
</mgrwt>
</event>
<event>
 5    1  0.2847672E-003  0.1466651E+04  0.7818608E-02  0.1021713E+00
         11   -1    0    0    0    0  0.00000000000E+00  0.00000000000E+00  0.10005893529E+04  0.10005893529E+04  0.51100000000E-03 0. -1.
          2   -1    0    0  501    0 -0.00000000000E+00 -0.00000000000E+00 -0.27903339990E+04  0.27903339990E+04  0.25500000000E-02 0. -1.
         11    1    1    2    0    0 -0.13134765096E+03  0.14052178736E+04 -0.75836174450E+03  0.16021866350E+04  0.51100000000E-03 0. -1.
         22    1    1    2    0    0  0.10321690338E+03  0.11033439284E+03 -0.59134922652E+03  0.61034524254E+03  0.00000000000E+00 0.  1.
          2    1    1    2  501    0  0.28130747578E+02 -0.15155522665E+04 -0.44003367511E+03  0.15783914744E+04  0.25500000000E-02 0. -1.
<mgrwt>
<rscale>  0 0.47073605E+03</rscale>
<asrwt>0</asrwt>
<pdfrwt beam="1">  1       11 0.10000000E+01 0.14666512E+04</pdfrwt>
<pdfrwt beam="2">  1        2 0.42953514E+00 0.47073605E+03</pdfrwt>
<totfact> 0.32137812E+00</totfact>
</mgrwt>
</event>
<event>
 5    1  0.2847672E-003  0.9214310E+02  0.7818608E-02  0.1525409E+00
         11   -1    0    0    0    0  0.00000000000E+00  0.00000000000E+00  0.10003263810E+04  0.10003263810E+04  0.51100000000E-03 0. -1.
          2   -1    0    0  501    0 -0.00000000000E+00 -0.00000000000E+00 -0.38695139122E+02  0.38695139206E+02  0.25500000000E-02 0. -1.
         11    1    1    2    0    0  0.93641420525E+02  0.32804977767E+00  0.15366790926E+03  0.17995179796E+03  0.51100000000E-03 0. -1.
         22    1    1    2    0    0 -0.28989543381E+01  0.15196249186E+02 -0.20402190382E+02  0.25604282805E+02  0.00000000000E+00 0. -1.
          2    1    1    2  501    0 -0.90742466187E+02 -0.15524298963E+02  0.82836552299E+03  0.83346543943E+03  0.25500000000E-02 0. -1.
<mgrwt>
<rscale>  0 0.37755528E+02</rscale>
<asrwt>0</asrwt>
<pdfrwt beam="1">  1       11 0.10000000E+01 0.92143097E+02</pdfrwt>
<pdfrwt beam="2">  1        2 0.59550411E-02 0.37755528E+02</pdfrwt>
<totfact> 0.13019673E+03</totfact>
</mgrwt>
</event>
<event>
 5    1  0.2847672E-003  0.2125749E+03  0.7818608E-02  0.1434968E+00
         11   -1    0    0    0    0  0.00000000000E+00  0.00000000000E+00  0.10001010296E+04  0.10001010296E+04  0.51100000000E-03 0. -1.
          2   -1    0    0  501    0 -0.00000000000E+00 -0.00000000000E+00 -0.53246119601E+02  0.53246119662E+02  0.25500000000E-02 0. -1.
         11    1    1    2    0    0  0.14846207897E+03  0.14888064591E+03  0.38925373020E+03  0.44240807192E+03  0.51100000000E-03 0. -1.
         22    1    1    2    0    0  0.11299672704E+02 -0.58153585058E+01 -0.83902515153E+00  0.12735971144E+02  0.00000000000E+00 0. -1.
          2    1    1    2  501    0 -0.15976175168E+03 -0.14306528740E+03  0.55844020491E+03  0.59820310617E+03  0.25500000000E-02 0. -1.
<mgrwt>
<rscale>  0 0.51975626E+02</rscale>
<asrwt>0</asrwt>
<pdfrwt beam="1">  1       11 0.10000000E+01 0.21257494E+03</pdfrwt>
<pdfrwt beam="2">  1        2 0.81925381E-02 0.51975626E+02</pdfrwt>
<totfact> 0.90819001E+02</totfact>
</mgrwt>
</event>
<event>
 5    1  0.2847672E-003  0.6037097E+02  0.7818608E-02  0.1569440E+00
         11   -1    0    0    0    0  0.00000000000E+00  0.00000000000E+00  0.10000412451E+04  0.10000412451E+04  0.51100000000E-03 0. -1.
         -2   -1    0    0    0  501 -0.00000000000E+00 -0.00000000000E+00 -0.75680785974E+02  0.75680786017E+02  0.25500000000E-02 0. -1.
         11    1    1    2    0    0 -0.19486343878E+02  0.52894997439E+02  0.31640443044E+03  0.32138662379E+03  0.51100000000E-03 0. -1.
         22    1    1    2    0    0  0.14367430698E+02  0.10469488746E+02 -0.70602160072E+02  0.72805894448E+02  0.00000000000E+00 0. -1.
         -2    1    1    2    0  501  0.51189131797E+01 -0.63364486185E+02  0.67855818873E+03  0.68152951284E+03  0.25500000000E-02 0. -1.
<mgrwt>
<rscale>  0 0.32760248E+02</rscale>
<asrwt>0</asrwt>
<pdfrwt beam="1">  1       11 0.10000000E+01 0.60370974E+02</pdfrwt>
<pdfrwt beam="2">  1       -2 0.11643678E-01 0.32760248E+02</pdfrwt>
<totfact> 0.36373940E+02</totfact>
</mgrwt>
</event>
<event>
 5    1  0.2847672E-003  0.3997438E+03  0.7818608E-02  0.1238515E+00
         11   -1    0    0    0    0  0.00000000000E+00  0.00000000000E+00  0.10001731130E+04  0.10001731130E+04  0.51100000000E-03 0. -1.
          2   -1    0    0  501    0 -0.00000000000E+00 -0.00000000000E+00 -0.69896555602E+03  0.69896555603E+03  0.25500000000E-02 0. -1.
         11    1    1    2    0    0 -0.38210677182E+03  0.10799962319E+03  0.85530946722E+03  0.94298663214E+03  0.51100000000E-03 0. -1.
         22    1    1    2    0    0 -0.23664830151E+02  0.29394042049E+02 -0.19064459838E+03  0.19434350204E+03  0.00000000000E+00 0. -1.
          2    1    1    2  501    0  0.40577160197E+03 -0.13739366524E+03 -0.36345731190E+03  0.56180853481E+03  0.25500000000E-02 0. -1.
<mgrwt>
<rscale>  0 0.12282053E+03</rscale>
<asrwt>0</asrwt>
<pdfrwt beam="1">  1       11 0.10000000E+01 0.39974380E+03</pdfrwt>
<pdfrwt beam="2">  1        2 0.10755177E+00 0.12282053E+03</pdfrwt>
<totfact> 0.53700102E+01</totfact>
</mgrwt>
</event>
<event>
 5    1  0.2847672E-003  0.6158075E+02  0.7818608E-02  0.1486972E+00
         11   -1    0    0    0    0  0.00000000000E+00  0.00000000000E+00  0.99988823250E+03  0.99988823250E+03  0.51100000000E-03 0. -1.
          2   -1    0    0  501    0 -0.00000000000E+00 -0.00000000000E+00 -0.68741158710E+01  0.68741163439E+01  0.25500000000E-02 0. -1.
         11    1    1    2    0    0  0.28045973562E+01 -0.53927638536E+02  0.32335388977E+03  0.32783196000E+03  0.51100000000E-03 0. -1.
         22    1    1    2    0    0  0.28239232051E+02 -0.10359220234E+02  0.90065272097E+02  0.94955362717E+02  0.00000000000E+00 0. -1.
          2    1    1    2  501    0 -0.31043829407E+02  0.64286858770E+02  0.57959495476E+03  0.58397502613E+03  0.25500000000E-02 0. -1.
<mgrwt>
<rscale>  0 0.43038452E+02</rscale>
<asrwt>0</asrwt>
<pdfrwt beam="1">  1       11 0.10000000E+01 0.61580749E+02</pdfrwt>
<pdfrwt beam="2">  1        2 0.10574381E-02 0.43038452E+02</pdfrwt>
<totfact> 0.12444696E+04</totfact>
</mgrwt>
</event>
<event>
 5    1  0.2847672E-003  0.9255115E+02  0.7818608E-02  0.1361784E+00
         11   -1    0    0    0    0  0.00000000000E+00  0.00000000000E+00  0.99996575796E+03  0.99996575796E+03  0.51100000000E-03 0. -1.
          2   -1    0    0  501    0 -0.00000000000E+00 -0.00000000000E+00 -0.28584447641E+02  0.28584447755E+02  0.25500000000E-02 0. -1.
         11    1    1    2    0    0 -0.22103591727E+02  0.90800824835E+02  0.54220123399E+03  0.55019590756E+03  0.51100000000E-03 0. -1.
         22    1    1    2    0    0 -0.48192026393E+02 -0.20053783470E+02  0.17941977651E+02  0.55195472652E+02  0.00000000000E+00 0. -1.
          2    1    1    2  501    0  0.70295618119E+02 -0.70747041365E+02  0.41123809867E+03  0.42315882550E+03  0.25500000000E-02 0. -1.
<mgrwt>
<rscale>  0 0.69505250E+02</rscale>
<asrwt>0</asrwt>
<pdfrwt beam="1">  1       11 0.10000000E+01 0.92551146E+02</pdfrwt>
<pdfrwt beam="2">  1        2 0.43974566E-02 0.69505250E+02</pdfrwt>
<totfact> 0.20351934E+03</totfact>
</mgrwt>
</event>
<event>
 5    1  0.2847672E-003  0.4041267E+03  0.7818608E-02  0.1042360E+00
         11   -1    0    0    0    0  0.00000000000E+00  0.00000000000E+00  0.10003241974E+04  0.10003241974E+04  0.51100000000E-03 0. -1.
          2   -1    0    0  501    0 -0.00000000000E+00 -0.00000000000E+00 -0.60756313307E+03  0.60756313307E+03  0.25500000000E-02 0. -1.
         11    1    1    2    0    0  0.39349215490E+03 -0.39288628172E+01  0.88645961162E+03  0.96987739171E+03  0.51100000000E-03 0. -1.
         22    1    1    2    0    0 -0.44026693206E+02 -0.16454705297E+02 -0.25680244843E+02  0.53559145029E+02  0.00000000000E+00 0. -1.
          2    1    1    2  501    0 -0.34946546169E+03  0.20383568114E+02 -0.46801830249E+03  0.58445079368E+03  0.25500000000E-02 0. -1.
<mgrwt>
<rscale>  0 0.40412675E+03</rscale>
<asrwt>0</asrwt>
<pdfrwt beam="1">  1       11 0.10000000E+01 0.39351177E+03</pdfrwt>
<pdfrwt beam="2">  1        2 0.93501552E-01 0.40412675E+03</pdfrwt>
<totfact> 0.61397339E+01</totfact>
</mgrwt>
</event>
<event>
 5    1  0.2847672E-003  0.1688192E+03  0.7818608E-02  0.1428638E+00
         11   -1    0    0    0    0  0.00000000000E+00  0.00000000000E+00  0.10002356953E+04  0.10002356953E+04  0.51100000000E-03 0. -1.
          2   -1    0    0  501    0 -0.00000000000E+00 -0.00000000000E+00 -0.21678348886E+03  0.21678348888E+03  0.25500000000E-02 0. -1.
         11    1    1    2    0    0 -0.11523539025E+02 -0.16833685999E+03  0.94973812205E+03  0.96461007193E+03  0.51100000000E-03 0. -1.
         22    1    1    2    0    0 -0.16751738269E+02 -0.10805533120E+01 -0.24437146154E+02  0.29647300765E+02  0.00000000000E+00 0. -1.
          2    1    1    2  501    0  0.28275277294E+02  0.16941741330E+03 -0.14184876948E+03  0.22276181146E+03  0.25500000000E-02 0. -1.
<mgrwt>
<rscale>  0 0.53234310E+02</rscale>
<asrwt>0</asrwt>
<pdfrwt beam="1">  1       11 0.10000000E+01 0.16881917E+03</pdfrwt>
<pdfrwt beam="2">  1        2 0.33359166E-01 0.53234310E+02</pdfrwt>
<totfact> 0.18786123E+02</totfact>
</mgrwt>
</event>
<event>
 5    1  0.2847672E-003  0.3729126E+02  0.7818608E-02  0.1551033E+00
         11   -1    0    0    0    0  0.00000000000E+00  0.00000000000E+00  0.10005214015E+04  0.10005214015E+04  0.51100000000E-03 0.  1.
          2   -1    0    0  501    0 -0.00000000000E+00 -0.00000000000E+00 -0.48758045922E+01  0.48758052590E+01  0.25500000000E-02 0.  1.
         11    1    1    2    0    0  0.13157621453E+02  0.57795863594E+01  0.27478250702E+02  0.31009367660E+02  0.51100000000E-03 0.  1.
         22    1    1    2    0    0  0.87055205593E+01  0.21201994685E+02  0.44388579387E+02  0.49956547587E+02  0.00000000000E+00 0.  1.
          2    1    1    2  501    0 -0.21863142012E+02 -0.26981581044E+02  0.92377876680E+03  0.92443129149E+03  0.25500000000E-02 0.  1.
<mgrwt>
<rscale>  0 0.34727550E+02</rscale>
<asrwt>0</asrwt>
<pdfrwt beam="1">  1       11 0.10000000E+01 0.37291261E+02</pdfrwt>
<pdfrwt beam="2">  1        2 0.75051493E-03 0.34727550E+02</pdfrwt>
<totfact> 0.18816434E+04</totfact>
</mgrwt>
</event>
<event>
 5    1  0.2847672E-003  0.1383557E+03  0.7818608E-02  0.1438974E+00
         11   -1    0    0    0    0  0.00000000000E+00  0.00000000000E+00  0.10002247891E+04  0.10002247891E+04  0.51100000000E-03 0.  1.
          2   -1    0    0  501    0 -0.00000000000E+00 -0.00000000000E+00 -0.30485636768E+02  0.30485636875E+02  0.25500000000E-02 0.  1.
         11    1    1    2    0    0  0.71515666544E+02  0.11868825829E+03  0.72991175204E+03  0.74294855743E+03  0.51100000000E-03 0.  1.
         22    1    1    2    0    0  0.15586226381E+02 -0.10773388276E+02  0.17889359495E+02  0.26058118330E+02  0.00000000000E+00 0. -1.
          2    1    1    2  501    0 -0.87101892925E+02 -0.10791487002E+03  0.22193804084E+03  0.26170375026E+03  0.25500000000E-02 0.  1.
<mgrwt>
<rscale>  0 0.51200118E+02</rscale>
<asrwt>0</asrwt>
<pdfrwt beam="1">  1       11 0.10000000E+01 0.13835565E+03</pdfrwt>
<pdfrwt beam="2">  1        2 0.46911521E-02 0.51200118E+02</pdfrwt>
<totfact> 0.18139214E+03</totfact>
</mgrwt>
</event>
<event>
 5    1  0.2847672E-003  0.6655852E+02  0.7818608E-02  0.1372203E+00
         11   -1    0    0    0    0  0.00000000000E+00  0.00000000000E+00  0.10003011136E+04  0.10003011136E+04  0.51100000000E-03 0. -1.
          2   -1    0    0  501    0 -0.00000000000E+00 -0.00000000000E+00 -0.24685598834E+02  0.24685598966E+02  0.25500000000E-02 0. -1.
         11    1    1    2    0    0  0.39220526462E+02  0.10149747298E+01  0.14000756022E+03  0.14540081427E+03  0.51100000000E-03 0. -1.
         22    1    1    2    0    0 -0.48399106453E+02 -0.48277466419E+02  0.33667716258E+02  0.76201721682E+02  0.00000000000E+00 0. -1.
          2    1    1    2  501    0  0.91785799902E+01  0.47262491689E+02  0.80194023831E+03  0.80338417664E+03  0.25500000000E-02 0. -1.
<mgrwt>
<rscale>  0 0.66558519E+02</rscale>
<asrwt>0</asrwt>
<pdfrwt beam="1">  1       11 0.10000000E+01 0.39233657E+02</pdfrwt>
<pdfrwt beam="2">  1        2 0.37989279E-02 0.66558519E+02</pdfrwt>
<totfact> 0.24480192E+03</totfact>
</mgrwt>
</event>
<event>
 5    1  0.2847672E-003  0.2563154E+02  0.7818608E-02  0.1792807E+00
         11   -1    0    0    0    0  0.00000000000E+00  0.00000000000E+00  0.10002939780E+04  0.10002939780E+04  0.51100000000E-03 0. -1.
          2   -1    0    0  501    0 -0.00000000000E+00 -0.00000000000E+00 -0.29247122107E+01  0.29247133224E+01  0.25500000000E-02 0. -1.
         11    1    1    2    0    0 -0.10353850216E+02 -0.26344002377E+02  0.14849642507E+03  0.15117009273E+03  0.51100000000E-03 0. -1.
         22    1    1    2    0    0  0.12344439893E+02  0.82199724386E+00  0.26164179247E+02  0.28941754463E+02  0.00000000000E+00 0. -1.
          2    1    1    2  501    0 -0.19905896766E+01  0.25522005133E+02  0.82270866144E+03  0.82310684410E+03  0.25500000000E-02 0. -1.
<mgrwt>
<rscale>  0 0.17807515E+02</rscale>
<asrwt>0</asrwt>
<pdfrwt beam="1">  1       11 0.10000000E+01 0.25631542E+02</pdfrwt>
<pdfrwt beam="2">  1        2 0.45008807E-03 0.17807515E+02</pdfrwt>
<totfact> 0.31167455E+04</totfact>
</mgrwt>
</event>
<event>
 5    1  0.2847672E-003  0.4663550E+02  0.7818608E-02  0.1700833E+00
         11   -1    0    0    0    0  0.00000000000E+00  0.00000000000E+00  0.10001860572E+04  0.10001860572E+04  0.51100000000E-03 0.  1.
          2   -1    0    0  501    0 -0.00000000000E+00 -0.00000000000E+00 -0.10971164901E+02  0.10971165197E+02  0.25500000000E-02 0.  1.
         11    1    1    2    0    0 -0.11858528581E+02 -0.54267363695E+02  0.12722003204E+03  0.13881825534E+03  0.51100000000E-03 0.  1.
         22    1    1    2    0    0 -0.18193405768E+01  0.10638551751E+02  0.18147173692E+01  0.10944495540E+02  0.00000000000E+00 0.  1.
          2    1    1    2  501    0  0.13677869158E+02  0.43628811944E+02  0.86018014289E+03  0.86139447152E+03  0.25500000000E-02 0.  1.
<mgrwt>
<rscale>  0 0.22435162E+02</rscale>
<asrwt>0</asrwt>
<pdfrwt beam="1">  1       11 0.10000000E+01 0.46635495E+02</pdfrwt>
<pdfrwt beam="2">  1        2 0.16881855E-02 0.22435162E+02</pdfrwt>
<totfact> 0.59451514E+03</totfact>
</mgrwt>
</event>
<event>
 5    1  0.2847672E-003  0.1446308E+03  0.7818608E-02  0.1338133E+00
         11   -1    0    0    0    0  0.00000000000E+00  0.00000000000E+00  0.10002827980E+04  0.10002827980E+04  0.51100000000E-03 0. -1.
          2   -1    0    0  501    0 -0.00000000000E+00 -0.00000000000E+00 -0.94157143916E+02  0.94157143950E+02  0.25500000000E-02 0.  1.
         11    1    1    2    0    0 -0.12417488321E+03  0.70434763129E+02  0.86108414667E+03  0.87283810934E+03  0.51100000000E-03 0. -1.
         22    1    1    2    0    0 -0.34945703733E+02 -0.21195167972E+02 -0.16438181197E+02  0.44052822337E+02  0.00000000000E+00 0.  1.
          2    1    1    2  501    0  0.15912058694E+03 -0.49239595157E+02  0.61479688574E+02  0.17754901023E+03  0.25500000000E-02 0.  1.
<mgrwt>
<rscale>  0 0.76884361E+02</rscale>
<asrwt>0</asrwt>
<pdfrwt beam="1">  1       11 0.10000000E+01 0.14463084E+03</pdfrwt>
<pdfrwt beam="2">  1        2 0.14489811E-01 0.76884361E+02</pdfrwt>
<totfact> 0.47420375E+02</totfact>
</mgrwt>
</event>
<event>
 5    1  0.2847672E-003  0.9452384E+02  0.7818608E-02  0.1576548E+00
         11   -1    0    0    0    0  0.00000000000E+00  0.00000000000E+00  0.10002669258E+04  0.10002669258E+04  0.51100000000E-03 0.  1.
          2   -1    0    0  501    0 -0.00000000000E+00 -0.00000000000E+00 -0.16242436274E+02  0.16242436474E+02  0.25500000000E-02 0.  1.
         11    1    1    2    0    0 -0.56387138212E+02  0.71446516938E+02  0.52234259042E+03  0.53021306651E+03  0.51100000000E-03 0.  1.
         22    1    1    2    0    0 -0.10707492091E+02  0.18266233661E+01 -0.28735699368E+01  0.11235850835E+02  0.00000000000E+00 0.  1.
          2    1    1    2  501    0  0.67094630304E+02 -0.73273140304E+02  0.46455546908E+03  0.47506044496E+03  0.25500000000E-02 0.  1.
<mgrwt>
<rscale>  0 0.32042705E+02</rscale>
<asrwt>0</asrwt>
<pdfrwt beam="1">  1       11 0.10000000E+01 0.94523844E+02</pdfrwt>
<pdfrwt beam="2">  1        2 0.24995033E-02 0.32042705E+02</pdfrwt>
<totfact> 0.38194294E+03</totfact>
</mgrwt>
</event>
<event>
 5    1  0.2847672E-003  0.5165422E+02  0.7818608E-02  0.1658178E+00
         11   -1    0    0    0    0  0.00000000000E+00  0.00000000000E+00  0.10001608561E+04  0.10001608561E+04  0.51100000000E-03 0. -1.
          2   -1    0    0  501    0 -0.00000000000E+00 -0.00000000000E+00 -0.80842036165E+01  0.80842040187E+01  0.25500000000E-02 0. -1.
         11    1    1    2    0    0  0.53792996954E+02  0.22675251212E+02  0.13753280734E+03  0.14940925886E+03  0.51100000000E-03 0. -1.
         22    1    1    2    0    0 -0.11176775812E+02  0.51156512717E+01  0.26298688169E+02  0.29029488540E+02  0.00000000000E+00 0. -1.
          2    1    1    2  501    0 -0.42616221143E+02 -0.27790902484E+02  0.82824515700E+03  0.82980631274E+03  0.25500000000E-02 0. -1.
<mgrwt>
<rscale>  0 0.25197757E+02</rscale>
<asrwt>0</asrwt>
<pdfrwt beam="1">  1       11 0.10000000E+01 0.51654224E+02</pdfrwt>
<pdfrwt beam="2">  1        2 0.12439237E-02 0.25197757E+02</pdfrwt>
<totfact> 0.90373115E+03</totfact>
</mgrwt>
</event>
<event>
 5    1  0.2847672E-003  0.2545636E+03  0.7818608E-02  0.1436325E+00
         11   -1    0    0    0    0  0.00000000000E+00  0.00000000000E+00  0.10002591398E+04  0.10002591398E+04  0.51100000000E-03 0. -1.
          2   -1    0    0  501    0 -0.00000000000E+00 -0.00000000000E+00 -0.14136101505E+03  0.14136101508E+03  0.25500000000E-02 0. -1.
         11    1    1    2    0    0  0.20439669180E+03 -0.15207373476E+03  0.74231403789E+03  0.78481498411E+03  0.51100000000E-03 0. -1.
         22    1    1    2    0    0  0.55305795275E+01  0.89306123999E+01 -0.51235304728E+02  0.52301047774E+02  0.00000000000E+00 0.  1.
          2    1    1    2  501    0 -0.20992727132E+03  0.14314312236E+03  0.16781939158E+03  0.30450412300E+03  0.25500000000E-02 0. -1.
<mgrwt>
<rscale>  0 0.51711186E+02</rscale>
<asrwt>0</asrwt>
<pdfrwt beam="1">  1       11 0.10000000E+01 0.25456361E+03</pdfrwt>
<pdfrwt beam="2">  1        2 0.21753484E-01 0.51711186E+02</pdfrwt>
<totfact> 0.29536823E+02</totfact>
</mgrwt>
</event>
<event>
 5    1  0.2847672E-003  0.1919979E+03  0.7818608E-02  0.1335546E+00
         11   -1    0    0    0    0  0.00000000000E+00  0.00000000000E+00  0.99994318452E+03  0.99994318452E+03  0.51100000000E-03 0.  1.
         -2   -1    0    0    0  501 -0.00000000000E+00 -0.00000000000E+00 -0.13989533629E+03  0.13989533632E+03  0.25500000000E-02 0. -1.
         11    1    1    2    0    0  0.13366859188E+03  0.13491567366E+03  0.87168967330E+03  0.89213923689E+03  0.51100000000E-03 0.  1.
         22    1    1    2    0    0  0.31162096486E+02  0.45260333486E+01 -0.80299433403E-01  0.31489167713E+02  0.00000000000E+00 0.  1.
         -2    1    1    2    0  501 -0.16483068836E+03 -0.13944170701E+03 -0.11561525641E+02  0.21621011624E+03  0.25500000000E-02 0. -1.
<mgrwt>
<rscale>  0 0.77754968E+02</rscale>
<asrwt>0</asrwt>
<pdfrwt beam="1">  1       11 0.10000000E+01 0.19199792E+03</pdfrwt>
<pdfrwt beam="2">  1       -2 0.21521136E-01 0.77754968E+02</pdfrwt>
<totfact> 0.14318369E+02</totfact>
</mgrwt>
</event>
<event>
 5    1  0.2847672E-003  0.5102476E+02  0.7818608E-02  0.1689097E+00
         11   -1    0    0    0    0  0.00000000000E+00  0.00000000000E+00  0.10002416993E+04  0.10002416993E+04  0.51100000000E-03 0.  1.
          2   -1    0    0  501    0 -0.00000000000E+00 -0.00000000000E+00 -0.40674680867E+01  0.40674688861E+01  0.25500000000E-02 0.  1.
         11    1    1    2    0    0  0.20623489196E+02  0.50403214047E+02  0.29961658217E+03  0.30452571091E+03  0.51100000000E-03 0.  1.
         22    1    1    2    0    0  0.63450072183E+01 -0.83695385039E+01  0.40915158321E+02  0.42241667483E+02  0.00000000000E+00 0.  1.
          2    1    1    2  501    0 -0.26968496414E+02 -0.42033675543E+02  0.65564249075E+03  0.65754178982E+03  0.25500000000E-02 0.  1.
<mgrwt>
<rscale>  0 0.23149544E+02</rscale>
<asrwt>0</asrwt>
<pdfrwt beam="1">  1       11 0.10000000E+01 0.51024764E+02</pdfrwt>
<pdfrwt beam="2">  1        2 0.62591561E-03 0.23149544E+02</pdfrwt>
<totfact> 0.21754821E+04</totfact>
</mgrwt>
</event>
<event>
 5    1  0.2847672E-003  0.1430944E+03  0.7818608E-02  0.1417855E+00
         11   -1    0    0    0    0  0.00000000000E+00  0.00000000000E+00  0.10001889107E+04  0.10001889107E+04  0.51100000000E-03 0.  1.
         -2   -1    0    0    0  501 -0.00000000000E+00 -0.00000000000E+00 -0.63550010572E+02  0.63550010623E+02  0.25500000000E-02 0.  1.
         11    1    1    2    0    0 -0.12606057549E+03  0.77567372162E+02  0.80028325459E+03  0.81385579404E+03  0.51100000000E-03 0.  1.
         22    1    1    2    0    0  0.14078209190E+02 -0.16260840297E+02 -0.32024346603E+02  0.38576802311E+02  0.00000000000E+00 0.  1.
         -2    1    1    2    0  501  0.11198236630E+03 -0.61306531866E+02  0.16837999213E+03  0.21130632496E+03  0.25500000000E-02 0.  1.
<mgrwt>
<rscale>  0 0.55477289E+02</rscale>
<asrwt>0</asrwt>
<pdfrwt beam="1">  1       11 0.10000000E+01 0.14309437E+03</pdfrwt>
<pdfrwt beam="2">  1       -2 0.97787714E-02 0.55477289E+02</pdfrwt>
<totfact> 0.49637264E+02</totfact>
</mgrwt>
</event>
<event>
 5    1  0.2847672E-003  0.2357354E+03  0.7818608E-02  0.1426713E+00
         11   -1    0    0    0    0  0.00000000000E+00  0.00000000000E+00  0.10003869882E+04  0.10003869882E+04  0.51100000000E-03 0.  1.
          2   -1    0    0  501    0 -0.00000000000E+00 -0.00000000000E+00 -0.70693697510E+02  0.70693697556E+02  0.25500000000E-02 0. -1.
         11    1    1    2    0    0 -0.16195232723E+03  0.17401192915E+03  0.66065224237E+03  0.70211828999E+03  0.51100000000E-03 0.  1.
         22    1    1    2    0    0 -0.35265982090E+01 -0.11677913900E+02 -0.19469906865E+01  0.12353191520E+02  0.00000000000E+00 0. -1.
          2    1    1    2  501    0  0.16547892544E+03 -0.16233401525E+03  0.27098803902E+03  0.35660920427E+03  0.25500000000E-02 0. -1.
<mgrwt>
<rscale>  0 0.53625439E+02</rscale>
<asrwt>0</asrwt>
<pdfrwt beam="1">  1       11 0.10000000E+01 0.23573542E+03</pdfrwt>
<pdfrwt beam="2">  1        2 0.10880162E-01 0.53625439E+02</pdfrwt>
<totfact> 0.64823792E+02</totfact>
</mgrwt>
</event>
<event>
 5    1  0.2847672E-003  0.1435548E+03  0.7818608E-02  0.1310537E+00
         11   -1    0    0    0    0  0.00000000000E+00  0.00000000000E+00  0.10002404544E+04  0.10002404544E+04  0.51100000000E-03 0.  1.
          2   -1    0    0  501    0 -0.00000000000E+00 -0.00000000000E+00 -0.56557349313E+02  0.56557349371E+02  0.25500000000E-02 0.  1.
         11    1    1    2    0    0  0.13424713372E+03 -0.52083083896E+02  0.78668143392E+03  0.79975159832E+03  0.51100000000E-03 0.  1.
         22    1    1    2    0    0  0.14782384625E+02  0.50484951269E+02  0.57015712686E+02  0.77576031691E+02  0.00000000000E+00 0.  1.
          2    1    1    2  501    0 -0.14902951834E+03  0.15981326274E+01  0.99985958447E+02  0.17947017373E+03  0.25500000000E-02 0.  1.
<mgrwt>
<rscale>  0 0.86900229E+02</rscale>
<asrwt>0</asrwt>
<pdfrwt beam="1">  1       11 0.10000000E+01 0.14355479E+03</pdfrwt>
<pdfrwt beam="2">  1        2 0.87032226E-02 0.86900229E+02</pdfrwt>
<totfact> 0.87714260E+02</totfact>
</mgrwt>
</event>
<event>
 5    1  0.7271296E-003  0.3188774E+03  0.7818608E-02  0.1318727E+00
         11   -1    0    0    0    0  0.00000000000E+00  0.00000000000E+00  0.10002292043E+04  0.10002292043E+04  0.51100000000E-03 0.  1.
         -2   -1    0    0    0  501 -0.00000000000E+00 -0.00000000000E+00 -0.59095104460E+03  0.59095104460E+03  0.25500000000E-02 0. -1.
         11    1    1    2    0    0 -0.27361045677E+03 -0.16466452300E+03  0.92345789409E+03  0.97711389784E+03  0.51100000000E-03 0.  1.
         22    1    1    2    0    0 -0.24722046485E+01  0.21858199769E+02 -0.58227644680E+02  0.62244287272E+02  0.00000000000E+00 0.  1.
         -2    1    1    2    0  501  0.27608266141E+03  0.14280632323E+03 -0.45595208975E+03  0.55182206375E+03  0.25500000000E-02 0. -1.
<mgrwt>
<rscale>  0 0.83752766E+02</rscale>
<asrwt>0</asrwt>
<pdfrwt beam="1">  1       11 0.10000000E+01 0.31887744E+03</pdfrwt>
<pdfrwt beam="2">  1       -2 0.90936381E-01 0.83752766E+02</pdfrwt>
<totfact> 0.89304092E+00</totfact>
</mgrwt>
</event>
<event>
 5    1  0.2847672E-003  0.2021861E+03  0.7818608E-02  0.1277527E+00
         11   -1    0    0    0    0  0.00000000000E+00  0.00000000000E+00  0.10000934234E+04  0.10000934234E+04  0.51100000000E-03 0. -1.
          2   -1    0    0  501    0 -0.00000000000E+00 -0.00000000000E+00 -0.90053903377E+02  0.90053903413E+02  0.25500000000E-02 0. -1.
         11    1    1    2    0    0  0.15229383124E+03 -0.12490139739E+03  0.71806073014E+03  0.74458376444E+03  0.51100000000E-03 0. -1.
         22    1    1    2    0    0 -0.12591149525E+01 -0.50766438692E+02  0.61217890530E+02  0.79538963966E+02  0.00000000000E+00 0.  1.
          2    1    1    2  501    0 -0.15103471628E+03  0.17566783608E+03  0.13076089938E+03  0.26602459843E+03  0.25500000000E-02 0. -1.
<mgrwt>
<rscale>  0 0.10132829E+03</rscale>
<asrwt>0</asrwt>
<pdfrwt beam="1">  1       11 0.10000000E+01 0.20218606E+03</pdfrwt>
<pdfrwt beam="2">  1        2 0.13855741E-01 0.10132829E+03</pdfrwt>
<totfact> 0.50652654E+02</totfact>
</mgrwt>
</event>
<event>
 5    1  0.2847672E-003  0.6507427E+02  0.7818608E-02  0.1537598E+00
         11   -1    0    0    0    0  0.00000000000E+00  0.00000000000E+00  0.10002082909E+04  0.10002082909E+04  0.51100000000E-03 0. -1.
          2   -1    0    0  501    0 -0.00000000000E+00 -0.00000000000E+00 -0.65878187700E+01  0.65878192635E+01  0.25500000000E-02 0. -1.
         11    1    1    2    0    0 -0.75440718451E+01 -0.72543713615E+02  0.42665271469E+03  0.43284182140E+03  0.51100000000E-03 0. -1.
         22    1    1    2    0    0  0.16272782317E+02  0.11995645255E+02  0.60116385770E+02  0.63424591346E+02  0.00000000000E+00 0. -1.
          2    1    1    2  501    0 -0.87287104719E+01  0.60548068360E+02  0.50685137163E+03  0.51052969738E+03  0.25500000000E-02 0. -1.
<mgrwt>
<rscale>  0 0.36270656E+02</rscale>
<asrwt>0</asrwt>
<pdfrwt beam="1">  1       11 0.10000000E+01 0.65074266E+02</pdfrwt>
<pdfrwt beam="2">  1        2 0.10137217E-02 0.36270656E+02</pdfrwt>
<totfact> 0.12735471E+04</totfact>
</mgrwt>
</event>
<event>
 5    1  0.2847672E-003  0.2167619E+03  0.7818608E-02  0.1366535E+00
         11   -1    0    0    0    0  0.00000000000E+00  0.00000000000E+00  0.10003179887E+04  0.10003179887E+04  0.51100000000E-03 0. -1.
          2   -1    0    0  501    0 -0.00000000000E+00 -0.00000000000E+00 -0.11224246368E+03  0.11224246371E+03  0.25500000000E-02 0. -1.
         11    1    1    2    0    0 -0.12587984818E+02  0.21752005752E+03  0.84991795262E+03  0.87740182298E+03  0.51100000000E-03 0. -1.
         22    1    1    2    0    0  0.20052615059E+02 -0.75304345624E+01  0.80863017514E+01  0.22895481900E+02  0.00000000000E+00 0. -1.
          2    1    1    2  501    0 -0.74646302410E+01 -0.20998962296E+03  0.30071270607E+02  0.21226314748E+03  0.25500000000E-02 0. -1.
<mgrwt>
<rscale>  0 0.68139798E+02</rscale>
<asrwt>0</asrwt>
<pdfrwt beam="1">  1       11 0.10000000E+01 0.21676191E+03</pdfrwt>
<pdfrwt beam="2">  1        2 0.17273562E-01 0.68139798E+02</pdfrwt>
<totfact> 0.38576525E+02</totfact>
</mgrwt>
</event>
<event>
 5    1  0.2847672E-003  0.8220770E+02  0.7818608E-02  0.1568286E+00
         11   -1    0    0    0    0  0.00000000000E+00  0.00000000000E+00  0.10003826714E+04  0.10003826714E+04  0.51100000000E-03 0. -1.
          2   -1    0    0  501    0 -0.00000000000E+00 -0.00000000000E+00 -0.96967801413E+01  0.96967804766E+01  0.25500000000E-02 0. -1.
         11    1    1    2    0    0  0.62239307758E+02 -0.59766905383E+02  0.30799797762E+03  0.31985710658E+03  0.51100000000E-03 0. -1.
         22    1    1    2    0    0  0.33746417506E+01  0.12709435132E+02  0.32801052334E+02  0.35338746194E+02  0.00000000000E+00 0.  1.
          2    1    1    2  501    0 -0.65613949509E+02  0.47057470250E+02  0.64988686135E+03  0.65488359915E+03  0.25500000000E-02 0. -1.
<mgrwt>
<rscale>  0 0.32878815E+02</rscale>
<asrwt>0</asrwt>
<pdfrwt beam="1">  1       11 0.10000000E+01 0.82207699E+02</pdfrwt>
<pdfrwt beam="2">  1        2 0.14923832E-02 0.32878815E+02</pdfrwt>
<totfact> 0.75032459E+03</totfact>
</mgrwt>
</event>
<event>
 5    1  0.2847672E-003  0.1901918E+03  0.7818608E-02  0.1381125E+00
         11   -1    0    0    0    0  0.00000000000E+00  0.00000000000E+00  0.10000524171E+04  0.10000524171E+04  0.51100000000E-03 0.  1.
          2   -1    0    0  501    0 -0.00000000000E+00 -0.00000000000E+00 -0.17942394641E+03  0.17942394642E+03  0.25500000000E-02 0.  1.
         11    1    1    2    0    0 -0.10570900011E+03  0.15893547708E+03  0.92983757793E+03  0.94922747533E+03  0.51100000000E-03 0.  1.
         22    1    1    2    0    0  0.21630854088E+02  0.90958593839E+00 -0.16595596194E+02  0.27278838102E+02  0.00000000000E+00 0.  1.
          2    1    1    2  501    0  0.84078146020E+02 -0.15984506302E+03 -0.92613511031E+02  0.20297005011E+03  0.25500000000E-02 0.  1.
<mgrwt>
<rscale>  0 0.64168896E+02</rscale>
<asrwt>0</asrwt>
<pdfrwt beam="1">  1       11 0.10000000E+01 0.19019182E+03</pdfrwt>
<pdfrwt beam="2">  1        2 0.27605130E-01 0.64168896E+02</pdfrwt>
<totfact> 0.23041773E+02</totfact>
</mgrwt>
</event>
<event>
 5    1  0.2847672E-003  0.6959692E+02  0.7818608E-02  0.1632065E+00
         11   -1    0    0    0    0  0.00000000000E+00  0.00000000000E+00  0.10002351464E+04  0.10002351464E+04  0.51100000000E-03 0.  1.
          2   -1    0    0  501    0 -0.00000000000E+00 -0.00000000000E+00 -0.82979670746E+01  0.82979674664E+01  0.25500000000E-02 0.  1.
         11    1    1    2    0    0  0.69524731131E+02 -0.13285166355E+02  0.23006792648E+03  0.24071027124E+03  0.51100000000E-03 0.  1.
         22    1    1    2    0    0 -0.15692393147E+00  0.10580796787E+02  0.19257459667E+02  0.21973339268E+02  0.00000000000E+00 0. -1.
          2    1    1    2  501    0 -0.69367807199E+02  0.27043695678E+01  0.74261179318E+03  0.74584950337E+03  0.25500000000E-02 0.  1.
<mgrwt>
<rscale>  0 0.27138009E+02</rscale>
<asrwt>0</asrwt>
<pdfrwt beam="1">  1       11 0.10000000E+01 0.69596924E+02</pdfrwt>
<pdfrwt beam="2">  1        2 0.12769105E-02 0.27138009E+02</pdfrwt>
<totfact> 0.88675662E+03</totfact>
</mgrwt>
</event>
<event>
 5    1  0.2847672E-003  0.2130543E+03  0.7818608E-02  0.1397716E+00
         11   -1    0    0    0    0  0.00000000000E+00  0.00000000000E+00  0.10002324156E+04  0.10002324156E+04  0.51100000000E-03 0.  1.
          2   -1    0    0  501    0 -0.00000000000E+00 -0.00000000000E+00 -0.10995384061E+03  0.10995384064E+03  0.25500000000E-02 0.  1.
         11    1    1    2    0    0 -0.15149008896E+03 -0.15234353002E+03  0.85858334631E+03  0.88505545632E+03  0.51100000000E-03 0.  1.
         22    1    1    2    0    0  0.16833728384E+02  0.16315781469E+01 -0.87142020368E+01  0.19025608419E+02  0.00000000000E+00 0. -1.
          2    1    1    2  501    0  0.13465636057E+03  0.15071195188E+03  0.40409430765E+02  0.20610519155E+03  0.25500000000E-02 0.  1.
<mgrwt>
<rscale>  0 0.60027540E+02</rscale>
<asrwt>0</asrwt>
<pdfrwt beam="1">  1       11 0.10000000E+01 0.21305435E+03</pdfrwt>
<pdfrwt beam="2">  1        2 0.16919907E-01 0.60027540E+02</pdfrwt>
<totfact> 0.39244830E+02</totfact>
</mgrwt>
</event>
<event>
 5    1  0.2847672E-003  0.1972210E+03  0.7818608E-02  0.1152105E+00
         11   -1    0    0    0    0  0.00000000000E+00  0.00000000000E+00  0.10003840777E+04  0.10003840777E+04  0.51100000000E-03 0.  1.
          2   -1    0    0  501    0 -0.00000000000E+00 -0.00000000000E+00 -0.66592507765E+02  0.66592507814E+02  0.25500000000E-02 0. -1.
         11    1    1    2    0    0  0.13291328529E+03 -0.14171527799E+03  0.81257961123E+03  0.83548476108E+03  0.51100000000E-03 0.  1.
         22    1    1    2    0    0 -0.24818496964E+01  0.15510689127E+02  0.87873412760E+01  0.17998845013E+02  0.00000000000E+00 0. -1.
          2    1    1    2  501    0 -0.13043143559E+03  0.12620458887E+03  0.11242461740E+03  0.21349297939E+03  0.25500000000E-02 0. -1.
<mgrwt>
<rscale>  0 0.19722101E+03</rscale>
<asrwt>0</asrwt>
<pdfrwt beam="1">  1       11 0.10000000E+01 0.19429143E+03</pdfrwt>
<pdfrwt beam="2">  1        2 0.10248936E-01 0.19722101E+03</pdfrwt>
<totfact> 0.75288827E+02</totfact>
</mgrwt>
</event>
<event>
 5    1  0.2847672E-003  0.7021663E+02  0.7818608E-02  0.1566498E+00
         11   -1    0    0    0    0  0.00000000000E+00  0.00000000000E+00  0.10004760880E+04  0.10004760880E+04  0.51100000000E-03 0. -1.
          2   -1    0    0  501    0 -0.00000000000E+00 -0.00000000000E+00 -0.70443864169E+01  0.70443868784E+01  0.25500000000E-02 0. -1.
         11    1    1    2    0    0  0.63148718594E+02  0.34026081195E+02  0.33618658068E+03  0.34375420273E+03  0.51100000000E-03 0. -1.
         22    1    1    2    0    0  0.42158333886E+01 -0.14987582937E+02  0.46830939390E+02  0.49351167946E+02  0.00000000000E+00 0. -1.
          2    1    1    2  501    0 -0.67364551983E+02 -0.19038498257E+02  0.61041418151E+03  0.61441510421E+03  0.25500000000E-02 0. -1.
<mgrwt>
<rscale>  0 0.33063850E+02</rscale>
<asrwt>0</asrwt>
<pdfrwt beam="1">  1       11 0.10000000E+01 0.70216627E+02</pdfrwt>
<pdfrwt beam="2">  1        2 0.10842677E-02 0.33063850E+02</pdfrwt>
<totfact> 0.11437047E+04</totfact>
</mgrwt>
</event>
<event>
 5    1  0.2847672E-003  0.3832935E+03  0.7818608E-02  0.1262908E+00
         11   -1    0    0    0    0  0.00000000000E+00  0.00000000000E+00  0.10001476286E+04  0.10001476286E+04  0.51100000000E-03 0. -1.
          2   -1    0    0  501    0 -0.00000000000E+00 -0.00000000000E+00 -0.41988283858E+03  0.41988283859E+03  0.25500000000E-02 0. -1.
         11    1    1    2    0    0  0.37145167208E+03 -0.10241709750E+03  0.84686908079E+03  0.93040466817E+03  0.51100000000E-03 0. -1.
         22    1    1    2    0    0 -0.23531284288E+02 -0.19955230045E+02 -0.58533852741E+02  0.66167548414E+02  0.00000000000E+00 0.  1.
          2    1    1    2  501    0 -0.34792038780E+03  0.12237232755E+03 -0.20807043805E+03  0.42345825058E+03  0.25500000000E-02 0. -1.
<mgrwt>
<rscale>  0 0.10874699E+03</rscale>
<asrwt>0</asrwt>
<pdfrwt beam="1">  1       11 0.10000000E+01 0.38329347E+03</pdfrwt>
<pdfrwt beam="2">  1        2 0.64606894E-01 0.10874699E+03</pdfrwt>
<totfact> 0.94853409E+01</totfact>
</mgrwt>
</event>
<event>
 5    1  0.2847672E-003  0.6360579E+02  0.7818608E-02  0.1529378E+00
         11   -1    0    0    0    0  0.00000000000E+00  0.00000000000E+00  0.10000784257E+04  0.10000784257E+04  0.51100000000E-03 0.  1.
          2   -1    0    0  501    0 -0.00000000000E+00 -0.00000000000E+00 -0.19168169742E+02  0.19168169912E+02  0.25500000000E-02 0.  1.
         11    1    1    2    0    0 -0.46668367408E+02 -0.29139651797E+02  0.84788849924E+02  0.10107524373E+03  0.51100000000E-03 0.  1.
         22    1    1    2    0    0 -0.16774183387E+02  0.13970503890E+02  0.22753334613E+01  0.21948242518E+02  0.00000000000E+00 0. -1.
          2    1    1    2  501    0  0.63442550795E+02  0.15169147906E+02  0.89384607256E+03  0.89622310935E+03  0.25500000000E-02 0.  1.
<mgrwt>
<rscale>  0 0.37262753E+02</rscale>
<asrwt>0</asrwt>
<pdfrwt beam="1">  1       11 0.10000000E+01 0.63605795E+02</pdfrwt>
<pdfrwt beam="2">  1        2 0.29491804E-02 0.37262753E+02</pdfrwt>
<totfact> 0.31570918E+03</totfact>
</mgrwt>
</event>
<event>
 5    1  0.2847672E-003  0.7045445E+02  0.7818608E-02  0.1514201E+00
         11   -1    0    0    0    0  0.00000000000E+00  0.00000000000E+00  0.10005951246E+04  0.10005951246E+04  0.51100000000E-03 0. -1.
          2   -1    0    0  501    0 -0.00000000000E+00 -0.00000000000E+00 -0.91614530137E+01  0.91614533686E+01  0.25500000000E-02 0. -1.
         11    1    1    2    0    0 -0.57063878984E+02 -0.31076643108E+02  0.17360318970E+03  0.18536480654E+03  0.51100000000E-03 0. -1.
         22    1    1    2    0    0  0.61205240310E+01 -0.20931245210E+02  0.78100825362E+02  0.81088326920E+02  0.00000000000E+00 0. -1.
          2    1    1    2  501    0  0.50943354953E+02  0.52007888318E+02  0.73972965657E+03  0.74330344454E+03  0.25500000000E-02 0. -1.
<mgrwt>
<rscale>  0 0.39197604E+02</rscale>
<asrwt>0</asrwt>
<pdfrwt beam="1">  1       11 0.10000000E+01 0.70454453E+02</pdfrwt>
<pdfrwt beam="2">  1        2 0.14102931E-02 0.39197604E+02</pdfrwt>
<totfact> 0.83446479E+03</totfact>
</mgrwt>
</event>
<event>
 5    1  0.2847672E-003  0.1702119E+03  0.7818608E-02  0.1447419E+00
         11   -1    0    0    0    0  0.00000000000E+00  0.00000000000E+00  0.10003601581E+04  0.10003601581E+04  0.51100000000E-03 0.  1.
          2   -1    0    0  501    0 -0.00000000000E+00 -0.00000000000E+00 -0.11877018705E+03  0.11877018707E+03  0.25500000000E-02 0.  1.
         11    1    1    2    0    0 -0.16073538185E+03 -0.51336461017E+02  0.87278185892E+03  0.88894289382E+03  0.51100000000E-03 0.  1.
         22    1    1    2    0    0 -0.13650720963E+02 -0.47799286179E+01 -0.38380021887E+02  0.41014826350E+02  0.00000000000E+00 0.  1.
          2    1    1    2  501    0  0.17438610281E+03  0.56116389635E+02  0.47188133972E+02  0.18917262496E+03  0.25500000000E-02 0.  1.
<mgrwt>
<rscale>  0 0.49616953E+02</rscale>
<asrwt>0</asrwt>
<pdfrwt beam="1">  1       11 0.10000000E+01 0.17021186E+03</pdfrwt>
<pdfrwt beam="2">  1        2 0.18278917E-01 0.49616953E+02</pdfrwt>
<totfact> 0.35666546E+02</totfact>
</mgrwt>
</event>
<event>
 5    1  0.2847672E-003  0.5729249E+02  0.7818608E-02  0.1529917E+00
         11   -1    0    0    0    0  0.00000000000E+00  0.00000000000E+00  0.10003345518E+04  0.10003345518E+04  0.51100000000E-03 0.  1.
          2   -1    0    0  501    0 -0.00000000000E+00 -0.00000000000E+00 -0.86597594910E+01  0.86597598664E+01  0.25500000000E-02 0.  1.
         11    1    1    2    0    0  0.35303719447E+02 -0.40363325252E+02  0.13483229797E+03  0.14510444242E+03  0.51100000000E-03 0.  1.
         22    1    1    2    0    0 -0.18109210461E+02 -0.15976777009E+02  0.57309298312E+02  0.62189682265E+02  0.00000000000E+00 0.  1.
          2    1    1    2  501    0 -0.17194508986E+02  0.56340102261E+02  0.79953319602E+03  0.80170018699E+03  0.25500000000E-02 0.  1.
<mgrwt>
<rscale>  0 0.37196605E+02</rscale>
<asrwt>0</asrwt>
<pdfrwt beam="1">  1       11 0.10000000E+01 0.57292494E+02</pdfrwt>
<pdfrwt beam="2">  1        2 0.13327164E-02 0.37196605E+02</pdfrwt>
<totfact> 0.89079153E+03</totfact>
</mgrwt>
</event>
<event>
 5    1  0.2847672E-003  0.9904086E+02  0.7818608E-02  0.1282326E+00
         11   -1    0    0    0    0  0.00000000000E+00  0.00000000000E+00  0.10000358837E+04  0.10000358837E+04  0.51100000000E-03 0. -1.
          2   -1    0    0  501    0 -0.00000000000E+00 -0.00000000000E+00 -0.21779962916E+02  0.21779963065E+02  0.25500000000E-02 0. -1.
         11    1    1    2    0    0 -0.11560712058E+02 -0.14016421746E+02  0.24147303918E+02  0.30219239378E+02  0.51100000000E-03 0. -1.
         22    1    1    2    0    0 -0.90933728756E+02  0.36871054628E+02  0.14128157136E+03  0.17201424389E+03  0.00000000000E+00 0. -1.
          2    1    1    2  501    0  0.10249444081E+03 -0.22854632882E+02  0.81282704550E+03  0.81958236349E+03  0.25500000000E-02 0. -1.
<mgrwt>
<rscale>  0 0.99040863E+02</rscale>
<asrwt>0</asrwt>
<pdfrwt beam="1">  1       11 0.10000000E+01 0.18168943E+02</pdfrwt>
<pdfrwt beam="2">  1        2 0.33508837E-02 0.99040863E+02</pdfrwt>
<totfact> 0.30127341E+03</totfact>
</mgrwt>
</event>
<event>
 5    1  0.2847672E-003  0.1489766E+03  0.7818608E-02  0.1414030E+00
         11   -1    0    0    0    0  0.00000000000E+00  0.00000000000E+00  0.10002149064E+04  0.10002149064E+04  0.51100000000E-03 0. -1.
         -2   -1    0    0    0  501 -0.00000000000E+00 -0.00000000000E+00 -0.12489881246E+03  0.12489881248E+03  0.25500000000E-02 0.  1.
         11    1    1    2    0    0  0.97967824856E+02 -0.11165574527E+03  0.88228791204E+03  0.89470478924E+03  0.51100000000E-03 0. -1.
         22    1    1    2    0    0 -0.13023938430E+02 -0.16828416927E+02 -0.63010409778E+02  0.66506618685E+02  0.00000000000E+00 0.  1.
         -2    1    1    2    0  501 -0.84943886426E+02  0.12848416219E+03  0.56038591695E+02  0.16390231097E+03  0.25500000000E-02 0.  1.
<mgrwt>
<rscale>  0 0.56304115E+02</rscale>
<asrwt>0</asrwt>
<pdfrwt beam="1">  1       11 0.10000000E+01 0.14897663E+03</pdfrwt>
<pdfrwt beam="2">  1       -2 0.19219331E-01 0.56304115E+02</pdfrwt>
<totfact> 0.17044810E+02</totfact>
</mgrwt>
</event>
<event>
 5    1  0.2847672E-003  0.3701073E+02  0.7818608E-02  0.1676159E+00
         11   -1    0    0    0    0  0.00000000000E+00  0.00000000000E+00  0.10004857279E+04  0.10004857279E+04  0.51100000000E-03 0. -1.
          2   -1    0    0  501    0 -0.00000000000E+00 -0.00000000000E+00 -0.21414030970E+02  0.21414031122E+02  0.25500000000E-02 0. -1.
         11    1    1    2    0    0 -0.13549514447E+02  0.46974535696E+02  0.13133098285E+02  0.50622866537E+02  0.51100000000E-03 0. -1.
         22    1    1    2    0    0  0.11701575329E+02 -0.10213775910E+02  0.23801677536E+02  0.28421258540E+02  0.00000000000E+00 0. -1.
          2    1    1    2  501    0  0.18479391178E+01 -0.36760759786E+02  0.94213692109E+03  0.94285563393E+03  0.25500000000E-02 0. -1.
<mgrwt>
<rscale>  0 0.23976162E+02</rscale>
<asrwt>0</asrwt>
<pdfrwt beam="1">  1       11 0.10000000E+01 0.37010726E+02</pdfrwt>
<pdfrwt beam="2">  1        2 0.32960664E-02 0.23976162E+02</pdfrwt>
<totfact> 0.25666391E+03</totfact>
</mgrwt>
</event>
<event>
 5    1  0.2847672E-003  0.2289544E+02  0.7818608E-02  0.1787909E+00
         11   -1    0    0    0    0  0.00000000000E+00  0.00000000000E+00  0.10001970012E+04  0.10001970012E+04  0.51100000000E-03 0. -1.
          2   -1    0    0  501    0 -0.00000000000E+00 -0.00000000000E+00 -0.13940073641E+02  0.13940073874E+02  0.25500000000E-02 0. -1.
         11    1    1    2    0    0 -0.35409034378E+02 -0.57055668567E+01  0.19975377257E+03  0.20294807923E+03  0.51100000000E-03 0. -1.
         22    1    1    2    0    0  0.14042393871E+02  0.19540472752E+01 -0.80741515996E+01  0.16315607572E+02  0.00000000000E+00 0. -1.
          2    1    1    2  501    0  0.21366640507E+02  0.37515195814E+01  0.79457730655E+03  0.79487338823E+03  0.25500000000E-02 0. -1.
<mgrwt>
<rscale>  0 0.18016782E+02</rscale>
<asrwt>0</asrwt>
<pdfrwt beam="1">  1       11 0.10000000E+01 0.22895437E+02</pdfrwt>
<pdfrwt beam="2">  1        2 0.21450492E-02 0.18016782E+02</pdfrwt>
<totfact> 0.41967798E+03</totfact>
</mgrwt>
</event>
<event>
 5    1  0.2847672E-003  0.7699605E+02  0.7818608E-02  0.1548874E+00
         11   -1    0    0    0    0  0.00000000000E+00  0.00000000000E+00  0.10002651058E+04  0.10002651058E+04  0.51100000000E-03 0.  1.
         -2   -1    0    0    0  501 -0.00000000000E+00 -0.00000000000E+00 -0.10272864537E+02  0.10272864854E+02  0.25500000000E-02 0. -1.
         11    1    1    2    0    0  0.70180315829E+02  0.28462891755E+02  0.44453629787E+03  0.45094116364E+03  0.51100000000E-03 0.  1.
         22    1    1    2    0    0  0.73776982041E+01 -0.14064390822E+02  0.10925283239E+02  0.19276911937E+02  0.00000000000E+00 0. -1.
         -2    1    1    2    0  501 -0.77558014033E+02 -0.14398500933E+02  0.53453066017E+03  0.54031989510E+03  0.25500000000E-02 0. -1.
<mgrwt>
<rscale>  0 0.34969268E+02</rscale>
<asrwt>0</asrwt>
<pdfrwt beam="1">  1       11 0.10000000E+01 0.76996052E+02</pdfrwt>
<pdfrwt beam="2">  1       -2 0.15808597E-02 0.34969268E+02</pdfrwt>
<totfact> 0.64943735E+03</totfact>
</mgrwt>
</event>
<event>
 5    1  0.3404102E-003  0.1817243E+03  0.7818608E-02  0.1166145E+00
         11   -1    0    0    0    0  0.00000000000E+00  0.00000000000E+00  0.99989822021E+03  0.99989822021E+03  0.51100000000E-03 0. -1.
         -2   -1    0    0    0  501 -0.00000000000E+00 -0.00000000000E+00 -0.70592198420E+02  0.70592198466E+02  0.25500000000E-02 0.  1.
         11    1    1    2    0    0 -0.15422739813E+02  0.17596869193E+03  0.85682632849E+03  0.87484524267E+03  0.51100000000E-03 0. -1.
         22    1    1    2    0    0 -0.10155366613E+02 -0.22601744241E+02  0.17840757318E+01  0.24842569110E+02  0.00000000000E+00 0. -1.
         -2    1    1    2    0  501  0.25578106425E+02 -0.15336694768E+03  0.70695617569E+02  0.17080260689E+03  0.25500000000E-02 0.  1.
<mgrwt>
<rscale>  0 0.18172432E+03</rscale>
<asrwt>0</asrwt>
<pdfrwt beam="1">  1       11 0.10000000E+01 0.17664326E+03</pdfrwt>
<pdfrwt beam="2">  1       -2 0.10859233E-01 0.18172432E+03</pdfrwt>
<totfact> 0.45550449E+02</totfact>
</mgrwt>
</event>
<event>
 5    1  0.2847672E-003  0.4992501E+03  0.7818608E-02  0.1066128E+00
         11   -1    0    0    0    0  0.00000000000E+00  0.00000000000E+00  0.10002843735E+04  0.10002843735E+04  0.51100000000E-03 0. -1.
          2   -1    0    0  501    0 -0.00000000000E+00 -0.00000000000E+00 -0.55078530690E+03  0.55078530691E+03  0.25500000000E-02 0. -1.
         11    1    1    2    0    0  0.17869811050E+03 -0.50562398411E+03  0.55361959305E+03  0.77076798183E+03  0.51100000000E-03 0. -1.
         22    1    1    2    0    0  0.15170495997E+03  0.17775882150E+03 -0.19700801807E+03  0.30565462974E+03  0.00000000000E+00 0. -1.
          2    1    1    2  501    0 -0.33040307046E+03  0.32786516261E+03  0.92887491589E+02  0.47464706881E+03  0.25500000000E-02 0. -1.
<mgrwt>
<rscale>  0 0.34157201E+03</rscale>
<asrwt>0</asrwt>
<pdfrwt beam="1">  1       11 0.10000000E+01 0.49925009E+03</pdfrwt>
<pdfrwt beam="2">  1        2 0.84760295E-01 0.34157201E+03</pdfrwt>
<totfact> 0.69129559E+01</totfact>
</mgrwt>
</event>
<event>
 5    1  0.2847672E-003  0.1153721E+03  0.7818608E-02  0.1250933E+00
         11   -1    0    0    0    0  0.00000000000E+00  0.00000000000E+00  0.10002757343E+04  0.10002757343E+04  0.51100000000E-03 0. -1.
          2   -1    0    0  501    0 -0.00000000000E+00 -0.00000000000E+00 -0.37037712176E+02  0.37037712263E+02  0.25500000000E-02 0. -1.
         11    1    1    2    0    0 -0.21645151157E+02 -0.40724884041E+01 -0.87288619487E+01  0.23691575752E+02  0.51100000000E-03 0. -1.
         22    1    1    2    0    0  0.48711100115E+02  0.10734964291E+03  0.18446476868E+03  0.21891543571E+03  0.00000000000E+00 0. -1.
          2    1    1    2  501    0 -0.27065948957E+02 -0.10327715451E+03  0.78750211535E+03  0.79470643506E+03  0.25500000000E-02 0. -1.
<mgrwt>
<rscale>  0 0.11537207E+03</rscale>
<asrwt>0</asrwt>
<pdfrwt beam="1">  1       11 0.10000000E+01 0.22024945E+02</pdfrwt>
<pdfrwt beam="2">  1        2 0.56996806E-02 0.11537207E+03</pdfrwt>
<totfact> 0.15261372E+03</totfact>
</mgrwt>
</event>
<event>
 5    1  0.2847672E-003  0.2251558E+03  0.7818608E-02  0.1323096E+00
         11   -1    0    0    0    0  0.00000000000E+00  0.00000000000E+00  0.99997626728E+03  0.99997626728E+03  0.51100000000E-03 0. -1.
          2   -1    0    0  501    0 -0.00000000000E+00 -0.00000000000E+00 -0.20988164939E+03  0.20988164941E+03  0.25500000000E-02 0. -1.
         11    1    1    2    0    0  0.80666286535E+02 -0.20898106439E+03  0.89221464590E+03  0.91990603293E+03  0.51100000000E-03 0. -1.
         22    1    1    2    0    0  0.29603843934E+02 -0.46252874529E+01 -0.19549648837E+02  0.35776663195E+02  0.00000000000E+00 0.  1.
          2    1    1    2  501    0 -0.11027013047E+03  0.21360635184E+03 -0.82570379183E+02  0.25417522056E+03  0.25500000000E-02 0. -1.
<mgrwt>
<rscale>  0 0.82136107E+02</rscale>
<asrwt>0</asrwt>
<pdfrwt beam="1">  1       11 0.10000000E+01 0.22515576E+03</pdfrwt>
<pdfrwt beam="2">  1        2 0.32288717E-01 0.82136107E+02</pdfrwt>
<totfact> 0.19632475E+02</totfact>
</mgrwt>
</event>
<event>
 5    1  0.2847672E-003  0.6891564E+02  0.7818608E-02  0.1377581E+00
         11   -1    0    0    0    0  0.00000000000E+00  0.00000000000E+00  0.10000916825E+04  0.10000916825E+04  0.51100000000E-03 0. -1.
          2   -1    0    0  501    0 -0.00000000000E+00 -0.00000000000E+00 -0.49632728043E+01  0.49632734593E+01  0.25500000000E-02 0. -1.
         11    1    1    2    0    0  0.55015352404E+02  0.31196247724E+01  0.28405465918E+03  0.28935008288E+03  0.51100000000E-03 0. -1.
         22    1    1    2    0    0  0.85773383622E+01  0.10825802636E+02  0.71172074111E+02  0.72499881858E+02  0.00000000000E+00 0. -1.
          2    1    1    2  501    0 -0.63592690766E+02 -0.13945427408E+02  0.63990167637E+03  0.64320499119E+03  0.25500000000E-02 0. -1.
<mgrwt>
<rscale>  0 0.65103804E+02</rscale>
<asrwt>0</asrwt>
<pdfrwt beam="1">  1       11 0.10000000E+01 0.68915636E+02</pdfrwt>
<pdfrwt beam="2">  1        2 0.76365047E-03 0.65103804E+02</pdfrwt>
<totfact> 0.20835356E+04</totfact>
</mgrwt>
</event>
<event>
 5    1  0.2847672E-003  0.2652165E+03  0.7818608E-02  0.1311508E+00
         11   -1    0    0    0    0  0.00000000000E+00  0.00000000000E+00  0.10000111229E+04  0.10000111229E+04  0.51100000000E-03 0. -1.
          2   -1    0    0  501    0 -0.00000000000E+00 -0.00000000000E+00 -0.29827456184E+03  0.29827456186E+03  0.25500000000E-02 0. -1.
         11    1    1    2    0    0  0.26432125605E+03  0.28681888542E+02  0.84730300797E+03  0.88803759180E+03  0.51100000000E-03 0. -1.
         22    1    1    2    0    0 -0.80477940189E+01  0.27052447756E+02 -0.14526747948E+03  0.14798392653E+03  0.00000000000E+00 0. -1.
          2    1    1    2  501    0 -0.25627346204E+03 -0.55734336298E+02 -0.29896747295E+00  0.26226416639E+03  0.25500000000E-02 0. -1.
<mgrwt>
<rscale>  0 0.86518819E+02</rscale>
<asrwt>0</asrwt>
<pdfrwt beam="1">  1       11 0.10000000E+01 0.26521647E+03</pdfrwt>
<pdfrwt beam="2">  1        2 0.45888903E-01 0.86518819E+02</pdfrwt>
<totfact> 0.13588108E+02</totfact>
</mgrwt>
</event>
<event>
 5    1  0.2847672E-003  0.1078112E+03  0.7818608E-02  0.1403502E+00
         11   -1    0    0    0    0  0.00000000000E+00  0.00000000000E+00  0.10000620648E+04  0.10000620648E+04  0.51100000000E-03 0.  1.
          2   -1    0    0  501    0 -0.00000000000E+00 -0.00000000000E+00 -0.17506653661E+02  0.17506653846E+02  0.25500000000E-02 0.  1.
         11    1    1    2    0    0  0.43055169089E+02 -0.98384131222E+02  0.39680950006E+03  0.41108510578E+03  0.51100000000E-03 0.  1.
         22    1    1    2    0    0 -0.29963387867E+02 -0.11024378756E+02  0.48577532269E+02  0.58130183044E+02  0.00000000000E+00 0. -1.
          2    1    1    2  501    0 -0.13091781221E+02  0.10940850998E+03  0.53716837885E+03  0.54835342986E+03  0.25500000000E-02 0.  1.
<mgrwt>
<rscale>  0 0.58669421E+02</rscale>
<asrwt>0</asrwt>
<pdfrwt beam="1">  1       11 0.10000000E+01 0.10781122E+03</pdfrwt>
<pdfrwt beam="2">  1        2 0.26934984E-02 0.58669421E+02</pdfrwt>
<totfact> 0.37794644E+03</totfact>
</mgrwt>
</event>
<event>
 5    1  0.2847672E-003  0.2408026E+02  0.7818608E-02  0.1674575E+00
         11   -1    0    0    0    0  0.00000000000E+00  0.00000000000E+00  0.99989517357E+03  0.99989517357E+03  0.51100000000E-03 0.  1.
         -2   -1    0    0    0  501 -0.00000000000E+00 -0.00000000000E+00 -0.24980732946E+01  0.24980745961E+01  0.25500000000E-02 0.  1.
         11    1    1    2    0    0 -0.16851759935E+02 -0.12570245401E+02  0.10635483068E+03  0.10841283545E+03  0.51100000000E-03 0.  1.
         22    1    1    2    0    0  0.33405821769E+01 -0.22294852673E+02  0.12435621371E+03  0.12638309947E+03  0.00000000000E+00 0.  1.
         -2    1    1    2    0  501  0.13511177758E+02  0.34865098074E+02  0.76668605589E+03  0.76759731323E+03  0.25500000000E-02 0.  1.
<mgrwt>
<rscale>  0 0.24080259E+02</rscale>
<asrwt>0</asrwt>
<pdfrwt beam="1">  1       11 0.10000000E+01 0.21023637E+02</pdfrwt>
<pdfrwt beam="2">  1       -2 0.38427877E-03 0.24080259E+02</pdfrwt>
<totfact> 0.40799823E+04</totfact>
</mgrwt>
</event>
<event>
 5    1  0.2847672E-003  0.1560405E+03  0.7818608E-02  0.1193241E+00
         11   -1    0    0    0    0  0.00000000000E+00  0.00000000000E+00  0.10002562017E+04  0.10002562017E+04  0.51100000000E-03 0. -1.
          2   -1    0    0  501    0 -0.00000000000E+00 -0.00000000000E+00 -0.26066715440E+02  0.26066715565E+02  0.25500000000E-02 0. -1.
         11    1    1    2    0    0  0.75503649197E+02 -0.13357477886E+03  0.62997326132E+03  0.64838979987E+03  0.51100000000E-03 0. -1.
         22    1    1    2    0    0 -0.23136716183E+01  0.24650766353E+02  0.58270824411E+02  0.63312734388E+02  0.00000000000E+00 0. -1.
          2    1    1    2  501    0 -0.73189977578E+02  0.10892401251E+03  0.28594540056E+03  0.31462038304E+03  0.25500000000E-02 0. -1.
<mgrwt>
<rscale>  0 0.15604048E+03</rscale>
<asrwt>0</asrwt>
<pdfrwt beam="1">  1       11 0.10000000E+01 0.15343736E+03</pdfrwt>
<pdfrwt beam="2">  1        2 0.40112912E-02 0.15604048E+03</pdfrwt>
<totfact> 0.24790921E+03</totfact>
</mgrwt>
</event>
<event>
 5    1  0.2847672E-003  0.9274020E+02  0.7818608E-02  0.1349111E+00
         11   -1    0    0    0    0  0.00000000000E+00  0.00000000000E+00  0.10001161438E+04  0.10001161438E+04  0.51100000000E-03 0. -1.
          2   -1    0    0  501    0 -0.00000000000E+00 -0.00000000000E+00 -0.50859328768E+02  0.50859328831E+02  0.25500000000E-02 0. -1.
         11    1    1    2    0    0  0.11414222239E+03 -0.66768017196E+02  0.41278733866E+03  0.43345103762E+03  0.51100000000E-03 0. -1.
         22    1    1    2    0    0 -0.57534983183E+02  0.72307751869E+01 -0.15058987771E+02  0.59911029972E+02  0.00000000000E+00 0. -1.
          2    1    1    2  501    0 -0.56607239208E+02  0.59537242009E+02  0.55152846414E+03  0.55761340504E+03  0.25500000000E-02 0. -1.
<mgrwt>
<rscale>  0 0.73333325E+02</rscale>
<asrwt>0</asrwt>
<pdfrwt beam="1">  1       11 0.10000000E+01 0.92740205E+02</pdfrwt>
<pdfrwt beam="2">  1        2 0.78254207E-02 0.73333325E+02</pdfrwt>
<totfact> 0.98743684E+02</totfact>
</mgrwt>
</event>
<event>
 5    1  0.2847672E-003  0.2406676E+02  0.7818608E-02  0.1674780E+00
         11   -1    0    0    0    0  0.00000000000E+00  0.00000000000E+00  0.10006241602E+04  0.10006241602E+04  0.51100000000E-03 0.  1.
          2   -1    0    0  501    0 -0.00000000000E+00 -0.00000000000E+00 -0.54544292317E+01  0.54544298278E+01  0.25500000000E-02 0.  1.
         11    1    1    2    0    0  0.20631269271E+01 -0.11151148942E+02  0.32998277861E+02  0.34892563069E+02  0.51100000000E-03 0.  1.
         22    1    1    2    0    0 -0.16657623761E+02 -0.17052022225E+02  0.29290817532E+02  0.37765061670E+02  0.00000000000E+00 0.  1.
          2    1    1    2  501    0  0.14594496833E+02  0.28203171167E+02  0.93288063557E+03  0.93342096528E+03  0.25500000000E-02 0.  1.
<mgrwt>
<rscale>  0 0.24066758E+02</rscale>
<asrwt>0</asrwt>
<pdfrwt beam="1">  1       11 0.10000000E+01 0.11340403E+02</pdfrwt>
<pdfrwt beam="2">  1        2 0.83966674E-03 0.24066758E+02</pdfrwt>
<totfact> 0.14945901E+04</totfact>
</mgrwt>
</event>
<event>
 5    1  0.2847672E-003  0.1885210E+03  0.7818608E-02  0.1430772E+00
         11   -1    0    0    0    0  0.00000000000E+00  0.00000000000E+00  0.10002488265E+04  0.10002488265E+04  0.51100000000E-03 0. -1.
          2   -1    0    0  501    0 -0.00000000000E+00 -0.00000000000E+00 -0.19574804416E+03  0.19574804417E+03  0.25500000000E-02 0. -1.
         11    1    1    2    0    0 -0.17788638864E+03  0.63248817027E+02  0.93088003734E+03  0.94983241892E+03  0.51100000000E-03 0. -1.
         22    1    1    2    0    0 -0.43686008693E+00 -0.14784552061E+02 -0.39088030947E+02  0.41792917937E+02  0.00000000000E+00 0. -1.
          2    1    1    2  501    0  0.17832324873E+03 -0.48464264966E+02 -0.87291224074E+02  0.20437153379E+03  0.25500000000E-02 0. -1.
<mgrwt>
<rscale>  0 0.52805445E+02</rscale>
<asrwt>0</asrwt>
<pdfrwt beam="1">  1       11 0.10000000E+01 0.18852100E+03</pdfrwt>
<pdfrwt beam="2">  1        2 0.30122576E-01 0.52805445E+02</pdfrwt>
<totfact> 0.20893952E+02</totfact>
</mgrwt>
</event>
<event>
 5    1  0.2847672E-003  0.7055146E+02  0.7818608E-02  0.1524187E+00
         11   -1    0    0    0    0  0.00000000000E+00  0.00000000000E+00  0.10005905866E+04  0.10005905866E+04  0.51100000000E-03 0. -1.
          2   -1    0    0  501    0 -0.00000000000E+00 -0.00000000000E+00 -0.13746675786E+02  0.13746676022E+02  0.25500000000E-02 0. -1.
         11    1    1    2    0    0 -0.41286106241E+02 -0.48846026965E+02  0.14471280172E+03  0.15821590280E+03  0.51100000000E-03 0. -1.
         22    1    1    2    0    0  0.11049180829E+02 -0.17112356708E+02  0.13767017027E+02  0.24585522304E+02  0.00000000000E+00 0. -1.
          2    1    1    2  501    0  0.30236925412E+02  0.65958383673E+02  0.82836409208E+03  0.83153583753E+03  0.25500000000E-02 0. -1.
<mgrwt>
<rscale>  0 0.37909081E+02</rscale>
<asrwt>0</asrwt>
<pdfrwt beam="1">  1       11 0.10000000E+01 0.70551464E+02</pdfrwt>
<pdfrwt beam="2">  1        2 0.21161222E-02 0.37909081E+02</pdfrwt>
<totfact> 0.48680869E+03</totfact>
</mgrwt>
</event>
<event>
 5    1  0.2847672E-003  0.2938198E+03  0.7818608E-02  0.1346729E+00
         11   -1    0    0    0    0  0.00000000000E+00  0.00000000000E+00  0.10003593961E+04  0.10003593961E+04  0.51100000000E-03 0.  1.
          2   -1    0    0  501    0 -0.00000000000E+00 -0.00000000000E+00 -0.25362806157E+03  0.25362806159E+03  0.25500000000E-02 0.  1.
         11    1    1    2    0    0 -0.59603154580E+02  0.29002654473E+03  0.85555128829E+03  0.90533747276E+03  0.51100000000E-03 0.  1.
         22    1    1    2    0    0  0.10541622237E+02 -0.15421327847E+02 -0.63310203323E+02  0.66008522152E+02  0.00000000000E+00 0.  1.
          2    1    1    2  501    0  0.49061532343E+02 -0.27460521688E+03 -0.45509750435E+02  0.28264146278E+03  0.25500000000E-02 0.  1.
<mgrwt>
<rscale>  0 0.74084818E+02</rscale>
<asrwt>0</asrwt>
<pdfrwt beam="1">  1       11 0.10000000E+01 0.29381982E+03</pdfrwt>
<pdfrwt beam="2">  1        2 0.39033724E-01 0.74084818E+02</pdfrwt>
<totfact> 0.16054565E+02</totfact>
</mgrwt>
</event>
<event>
 5    1  0.2847672E-003  0.1401542E+03  0.7818608E-02  0.1389960E+00
         11   -1    0    0    0    0  0.00000000000E+00  0.00000000000E+00  0.10003943902E+04  0.10003943902E+04  0.51100000000E-03 0.  1.
          2   -1    0    0  501    0 -0.00000000000E+00 -0.00000000000E+00 -0.49058799387E+02  0.49058799453E+02  0.25500000000E-02 0. -1.
         11    1    1    2    0    0 -0.10620506048E+02 -0.14528640262E+03  0.83608726297E+03  0.84868300634E+03  0.51100000000E-03 0.  1.
         22    1    1    2    0    0  0.83047534936E+01  0.26062079647E+02 -0.87679274334E+01  0.28724161913E+02  0.00000000000E+00 0. -1.
          2    1    1    2  501    0  0.23157525546E+01  0.11922432297E+03  0.12401625523E+03  0.17204602136E+03  0.25500000000E-02 0. -1.
<mgrwt>
<rscale>  0 0.61916678E+02</rscale>
<asrwt>0</asrwt>
<pdfrwt beam="1">  1       11 0.10000000E+01 0.14015422E+03</pdfrwt>
<pdfrwt beam="2">  1        2 0.75504840E-02 0.61916678E+02</pdfrwt>
<totfact> 0.10181038E+03</totfact>
</mgrwt>
</event>
<event>
 5    1  0.2847672E-003  0.1290609E+03  0.7818608E-02  0.1488653E+00
         11   -1    0    0    0    0  0.00000000000E+00  0.00000000000E+00  0.10007197458E+04  0.10007197458E+04  0.51100000000E-03 0. -1.
          2   -1    0    0  501    0 -0.00000000000E+00 -0.00000000000E+00 -0.18834699501E+02  0.18834699674E+02  0.25500000000E-02 0. -1.
         11    1    1    2    0    0 -0.12152122552E+03 -0.53375069084E+02  0.53990576900E+03  0.55598070619E+03  0.51100000000E-03 0. -1.
         22    1    1    2    0    0  0.28265059943E+01  0.13900228276E+02  0.33733816487E+02  0.36594751769E+02  0.00000000000E+00 0. -1.
          2    1    1    2  501    0  0.11869471953E+03  0.39474840807E+02  0.40824546080E+03  0.42697898751E+03  0.25500000000E-02 0. -1.
<mgrwt>
<rscale>  0 0.42786550E+02</rscale>
<asrwt>0</asrwt>
<pdfrwt beam="1">  1       11 0.10000000E+01 0.12906088E+03</pdfrwt>
<pdfrwt beam="2">  1        2 0.28997316E-02 0.42786550E+02</pdfrwt>
<totfact> 0.32902219E+03</totfact>
</mgrwt>
</event>
<event>
 5    1  0.2847672E-003  0.2552233E+03  0.7818608E-02  0.1343156E+00
         11   -1    0    0    0    0  0.00000000000E+00  0.00000000000E+00  0.10005875579E+04  0.10005875579E+04  0.51100000000E-03 0.  1.
          2   -1    0    0  501    0 -0.00000000000E+00 -0.00000000000E+00 -0.41284988060E+03  0.41284988061E+03  0.25500000000E-02 0.  1.
         11    1    1    2    0    0 -0.11539687682E+03 -0.22802800584E+03  0.93440999043E+03  0.96872867246E+03  0.51100000000E-03 0.  1.
         22    1    1    2    0    0  0.21927480865E+02 -0.33083680998E+01 -0.63687012902E+02  0.67437343727E+02  0.00000000000E+00 0. -1.
          2    1    1    2  501    0  0.93469395954E+02  0.23133637394E+03 -0.28298530028E+03  0.37727142228E+03  0.25500000000E-02 0.  1.
<mgrwt>
<rscale>  0 0.75231265E+02</rscale>
<asrwt>0</asrwt>
<pdfrwt beam="1">  1       11 0.10000000E+01 0.25522326E+03</pdfrwt>
<pdfrwt beam="2">  1        2 0.63552683E-01 0.75231265E+02</pdfrwt>
<totfact> 0.96726040E+01</totfact>
</mgrwt>
</event>
<event>
 5    1  0.2847672E-003  0.1111866E+03  0.7818608E-02  0.1416524E+00
         11   -1    0    0    0    0  0.00000000000E+00  0.00000000000E+00  0.10007846039E+04  0.10007846039E+04  0.51100000000E-03 0.  1.
          2   -1    0    0  501    0 -0.00000000000E+00 -0.00000000000E+00 -0.17515133460E+02  0.17515133645E+02  0.25500000000E-02 0.  1.
         11    1    1    2    0    0  0.94146434104E+02 -0.65634027519E+02  0.62348846869E+03  0.63396312764E+03  0.51100000000E-03 0.  1.
         22    1    1    2    0    0 -0.23752663141E+02 -0.14763240107E+02  0.63974614586E+02  0.69820438097E+02  0.00000000000E+00 0.  1.
          2    1    1    2  501    0 -0.70393770963E+02  0.80397267626E+02  0.29580638716E+03  0.31451617180E+03  0.25500000000E-02 0.  1.
<mgrwt>
<rscale>  0 0.55763199E+02</rscale>
<asrwt>0</asrwt>
<pdfrwt beam="1">  1       11 0.10000000E+01 0.11118661E+03</pdfrwt>
<pdfrwt beam="2">  1        2 0.26967501E-02 0.55763199E+02</pdfrwt>
<totfact> 0.37483586E+03</totfact>
</mgrwt>
</event>
<event>
 5    1  0.2847672E-003  0.1519165E+03  0.7818608E-02  0.1326939E+00
         11   -1    0    0    0    0  0.00000000000E+00  0.00000000000E+00  0.10003025455E+04  0.10003025455E+04  0.51100000000E-03 0. -1.
         -2   -1    0    0    0  501 -0.00000000000E+00 -0.00000000000E+00 -0.44698883451E+02  0.44698883524E+02  0.25500000000E-02 0.  1.
         11    1    1    2    0    0  0.54739210166E+02 -0.13209443184E+03  0.63639504426E+03  0.65226066293E+03  0.51100000000E-03 0. -1.
         22    1    1    2    0    0  0.13932159853E+02 -0.40596833409E+02  0.62744885149E+02  0.76020579933E+02  0.00000000000E+00 0. -1.
         -2    1    1    2    0  501 -0.68671370019E+02  0.17269126525E+03  0.25646373266E+03  0.31672018617E+03  0.25500000000E-02 0.  1.
<mgrwt>
<rscale>  0 0.80749009E+02</rscale>
<asrwt>0</asrwt>
<pdfrwt beam="1">  1       11 0.10000000E+01 0.15191655E+03</pdfrwt>
<pdfrwt beam="2">  1       -2 0.68788316E-02 0.80749009E+02</pdfrwt>
<totfact> 0.87380095E+02</totfact>
</mgrwt>
</event>
<event>
 5    1  0.2847672E-003  0.3185405E+03  0.7818608E-02  0.1380330E+00
         11   -1    0    0    0    0  0.00000000000E+00  0.00000000000E+00  0.99998700760E+03  0.99998700760E+03  0.51100000000E-03 0. -1.
          2   -1    0    0  501    0 -0.00000000000E+00 -0.00000000000E+00 -0.11253873075E+03  0.11253873077E+03  0.25500000000E-02 0. -1.
         11    1    1    2    0    0 -0.21326682810E+03 -0.23743511456E+03  0.35519605048E+03  0.47751691894E+03  0.51100000000E-03 0. -1.
         22    1    1    2    0    0  0.10442146597E+02 -0.77613205504E+01 -0.20056243032E+01  0.13164309746E+02  0.00000000000E+00 0.  1.
          2    1    1    2  501    0  0.20282468150E+03  0.24519643511E+03  0.53425785068E+03  0.62184450969E+03  0.25500000000E-02 0. -1.
<mgrwt>
<rscale>  0 0.64377097E+02</rscale>
<asrwt>0</asrwt>
<pdfrwt beam="1">  1       11 0.10000000E+01 0.31854048E+03</pdfrwt>
<pdfrwt beam="2">  1        2 0.17313425E-01 0.64377097E+02</pdfrwt>
<totfact> 0.38374543E+02</totfact>
</mgrwt>
</event>
<event>
 5    1  0.2847672E-003  0.5199908E+03  0.7818608E-02  0.1008689E+00
         11   -1    0    0    0    0  0.00000000000E+00  0.00000000000E+00  0.99998888141E+03  0.99998888141E+03  0.51100000000E-03 0.  1.
          2   -1    0    0  501    0 -0.00000000000E+00 -0.00000000000E+00 -0.35003567545E+03  0.35003567546E+03  0.25500000000E-02 0. -1.
         11    1    1    2    0    0  0.51540420651E+03 -0.18518766299E+02  0.65036241307E+03  0.83003355904E+03  0.51100000000E-03 0.  1.
         22    1    1    2    0    0 -0.10288872662E+02  0.10498701631E+02  0.17807449201E+01  0.14807251233E+02  0.00000000000E+00 0.  1.
          2    1    1    2  501    0 -0.50511533385E+03  0.80200646681E+01 -0.21899520297E+01  0.50518374659E+03  0.25500000000E-02 0. -1.
<mgrwt>
<rscale>  0 0.51999084E+03</rscale>
<asrwt>0</asrwt>
<pdfrwt beam="1">  1       11 0.10000000E+01 0.51573679E+03</pdfrwt>
<pdfrwt beam="2">  1        2 0.53851042E-01 0.51999084E+03</pdfrwt>
<totfact> 0.11447841E+02</totfact>
</mgrwt>
</event>
<event>
 5    1  0.2847672E-003  0.2082147E+02  0.7818608E-02  0.1876592E+00
         11   -1    0    0    0    0  0.00000000000E+00  0.00000000000E+00  0.10000345221E+04  0.10000345221E+04  0.51100000000E-03 0. -1.
          2   -1    0    0  501    0 -0.00000000000E+00 -0.00000000000E+00 -0.24299581794E+01  0.24299595174E+01  0.25500000000E-02 0. -1.
         11    1    1    2    0    0  0.22560087663E+02 -0.14784562457E+02  0.96490894784E+02  0.10018998762E+03  0.51100000000E-03 0. -1.
         22    1    1    2    0    0 -0.10282752291E+02 -0.16413827145E+01  0.59045513331E+02  0.59956665821E+02  0.00000000000E+00 0. -1.
          2    1    1    2  501    0 -0.12277335371E+02  0.16425945172E+02  0.84206815584E+03  0.84231782822E+03  0.25500000000E-02 0. -1.
<mgrwt>
<rscale>  0 0.14724551E+02</rscale>
<asrwt>0</asrwt>
<pdfrwt beam="1">  1       11 0.10000000E+01 0.20821468E+02</pdfrwt>
<pdfrwt beam="2">  1        2 0.37385272E-03 0.14724551E+02</pdfrwt>
<totfact> 0.37409155E+04</totfact>
</mgrwt>
</event>
<event>
 5    1  0.2847672E-003  0.1779332E+03  0.7818608E-02  0.1169818E+00
         11   -1    0    0    0    0  0.00000000000E+00  0.00000000000E+00  0.10001273634E+04  0.10001273634E+04  0.51100000000E-03 0.  1.
          2   -1    0    0  501    0 -0.00000000000E+00 -0.00000000000E+00 -0.54696501936E+02  0.54696501995E+02  0.25500000000E-02 0.  1.
         11    1    1    2    0    0 -0.13786907744E+03  0.97543452226E+02  0.81978417542E+03  0.83699982190E+03  0.51100000000E-03 0.  1.
         22    1    1    2    0    0  0.17619460096E+02 -0.34981936158E+02  0.12085813869E+02  0.40990829808E+02  0.00000000000E+00 0. -1.
          2    1    1    2  501    0  0.12024961734E+03 -0.62561516067E+02  0.11356087214E+03  0.17683321365E+03  0.25500000000E-02 0.  1.
<mgrwt>
<rscale>  0 0.17793320E+03</rscale>
<asrwt>0</asrwt>
<pdfrwt beam="1">  1       11 0.10000000E+01 0.16888637E+03</pdfrwt>
<pdfrwt beam="2">  1        2 0.84159180E-02 0.17793320E+03</pdfrwt>
<totfact> 0.95730435E+02</totfact>
</mgrwt>
</event>
<event>
 5    1  0.2847672E-003  0.5852313E+02  0.7818608E-02  0.1462253E+00
         11   -1    0    0    0    0  0.00000000000E+00  0.00000000000E+00  0.99981629193E+03  0.99981629193E+03  0.51100000000E-03 0. -1.
          2   -1    0    0  501    0 -0.00000000000E+00 -0.00000000000E+00 -0.18723494081E+02  0.18723494255E+02  0.25500000000E-02 0. -1.
         11    1    1    2    0    0 -0.30210172152E+01 -0.83502015042E+02  0.23503834357E+03  0.24944886451E+03  0.51100000000E-03 0. -1.
         22    1    1    2    0    0 -0.19071412014E+02  0.32565661699E+02  0.23609619097E+02  0.44515785874E+02  0.00000000000E+00 0. -1.
          2    1    1    2  501    0  0.22092429229E+02  0.50936353343E+02  0.72244483518E+03  0.72457513579E+03  0.25500000000E-02 0. -1.
<mgrwt>
<rscale>  0 0.46995852E+02</rscale>
<asrwt>0</asrwt>
<pdfrwt beam="1">  1       11 0.10000000E+01 0.58523127E+02</pdfrwt>
<pdfrwt beam="2">  1        2 0.28800083E-02 0.46995852E+02</pdfrwt>
<totfact> 0.33620907E+03</totfact>
</mgrwt>
</event>
<event>
 5    1  0.2847672E-003  0.1486498E+03  0.7818608E-02  0.1448194E+00
         11   -1    0    0    0    0  0.00000000000E+00  0.00000000000E+00  0.10001037613E+04  0.10001037613E+04  0.51100000000E-03 0. -1.
          2   -1    0    0  501    0 -0.00000000000E+00 -0.00000000000E+00 -0.58414379911E+02  0.58414379967E+02  0.25500000000E-02 0. -1.
         11    1    1    2    0    0 -0.12920619514E+03 -0.75558882322E+02  0.87209067154E+03  0.88484209040E+03  0.51100000000E-03 0. -1.
         22    1    1    2    0    0  0.14385070560E+02 -0.80139701438E+01  0.26768678013E+01  0.16682913226E+02  0.00000000000E+00 0. -1.
          2    1    1    2  501    0  0.11482112457E+03  0.83572852465E+02  0.66921842056E+02  0.15699313765E+03  0.25500000000E-02 0. -1.
<mgrwt>
<rscale>  0 0.49475033E+02</rscale>
<asrwt>0</asrwt>
<pdfrwt beam="1">  1       11 0.10000000E+01 0.14864975E+03</pdfrwt>
<pdfrwt beam="2">  1        2 0.89877599E-02 0.49475033E+02</pdfrwt>
<totfact> 0.80880558E+02</totfact>
</mgrwt>
</event>
<event>
 5    1  0.2847672E-003  0.3993872E+02  0.7818608E-02  0.1671507E+00
         11   -1    0    0    0    0  0.00000000000E+00  0.00000000000E+00  0.10000469132E+04  0.10000469132E+04  0.51100000000E-03 0. -1.
          2   -1    0    0  501    0 -0.00000000000E+00 -0.00000000000E+00 -0.56776940858E+01  0.56776946584E+01  0.25500000000E-02 0. -1.
         11    1    1    2    0    0 -0.35325331043E+02  0.34872586229E+02  0.23479693118E+03  0.23998661457E+03  0.51100000000E-03 0. -1.
         22    1    1    2    0    0  0.14504651421E+02 -0.27614683718E+01  0.18461550555E+02  0.23639785729E+02  0.00000000000E+00 0. -1.
          2    1    1    2  501    0  0.20820679622E+02 -0.32111117857E+02  0.74111073736E+03  0.74209820754E+03  0.25500000000E-02 0. -1.
<mgrwt>
<rscale>  0 0.24283785E+02</rscale>
<asrwt>0</asrwt>
<pdfrwt beam="1">  1       11 0.10000000E+01 0.39938720E+02</pdfrwt>
<pdfrwt beam="2">  1        2 0.87353240E-03 0.24283785E+02</pdfrwt>
<totfact> 0.14221902E+04</totfact>
</mgrwt>
</event>
<event>
 5    1  0.2847672E-003  0.1053341E+03  0.7818608E-02  0.1528849E+00
         11   -1    0    0    0    0  0.00000000000E+00  0.00000000000E+00  0.10001200312E+04  0.10001200312E+04  0.51100000000E-03 0. -1.
          2   -1    0    0  501    0 -0.00000000000E+00 -0.00000000000E+00 -0.16478221869E+02  0.16478222066E+02  0.25500000000E-02 0. -1.
         11    1    1    2    0    0  0.97419242192E+02  0.46351138954E+02  0.28346194390E+03  0.30329789065E+03  0.51100000000E-03 0. -1.
         22    1    1    2    0    0  0.16956253711E+01 -0.13119010806E+02  0.14223082933E+02  0.19423688580E+02  0.00000000000E+00 0.  1.
          2    1    1    2  501    0 -0.99114867563E+02 -0.33232128148E+02  0.68595678246E+03  0.69387667400E+03  0.25500000000E-02 0. -1.
<mgrwt>
<rscale>  0 0.37327921E+02</rscale>
<asrwt>0</asrwt>
<pdfrwt beam="1">  1       11 0.10000000E+01 0.10533414E+03</pdfrwt>
<pdfrwt beam="2">  1        2 0.25354153E-02 0.37327921E+02</pdfrwt>
<totfact> 0.38388687E+03</totfact>
</mgrwt>
</event>
<event>
 5    1  0.2847672E-003  0.2011843E+03  0.7818608E-02  0.1148744E+00
         11   -1    0    0    0    0  0.00000000000E+00  0.00000000000E+00  0.99996604407E+03  0.99996604407E+03  0.51100000000E-03 0. -1.
          2   -1    0    0  501    0 -0.00000000000E+00 -0.00000000000E+00 -0.11017013980E+03  0.11017013983E+03  0.25500000000E-02 0. -1.
         11    1    1    2    0    0  0.17113058686E+03  0.72457457673E+02  0.85065899169E+03  0.87072181612E+03  0.51100000000E-03 0. -1.
         22    1    1    2    0    0  0.11974178837E+02  0.15412103325E+02  0.30404591011E+02  0.36129669833E+02  0.00000000000E+00 0.  1.
          2    1    1    2  501    0 -0.18310476570E+03 -0.87869560998E+02  0.87323215618E+01  0.20328469794E+03  0.25500000000E-02 0. -1.
<mgrwt>
<rscale>  0 0.20118428E+03</rscale>
<asrwt>0</asrwt>
<pdfrwt beam="1">  1       11 0.10000000E+01 0.19517015E+02</pdfrwt>
<pdfrwt beam="2">  1        2 0.16948676E-01 0.20118428E+03</pdfrwt>
<totfact> 0.41171257E+02</totfact>
</mgrwt>
</event>
<event>
 5    1  0.2847672E-003  0.7252207E+02  0.7818608E-02  0.1503038E+00
         11   -1    0    0    0    0  0.00000000000E+00  0.00000000000E+00  0.10003026930E+04  0.10003026930E+04  0.51100000000E-03 0. -1.
          2   -1    0    0  501    0 -0.00000000000E+00 -0.00000000000E+00 -0.10398795027E+02  0.10398795339E+02  0.25500000000E-02 0. -1.
         11    1    1    2    0    0 -0.81694080830E+02 -0.26731162321E+02  0.51469829330E+03  0.52182641846E+03  0.51100000000E-03 0. -1.
         22    1    1    2    0    0  0.22812027430E+02  0.13924030553E+01  0.24008769944E+02  0.33147374195E+02  0.00000000000E+00 0. -1.
          2    1    1    2  501    0  0.58882053399E+02  0.25338759265E+02  0.45119683469E+03  0.45572769564E+03  0.25500000000E-02 0. -1.
<mgrwt>
<rscale>  0 0.40711835E+02</rscale>
<asrwt>0</asrwt>
<pdfrwt beam="1">  1       11 0.10000000E+01 0.72522067E+02</pdfrwt>
<pdfrwt beam="2">  1        2 0.16002989E-02 0.40711835E+02</pdfrwt>
<totfact> 0.71082291E+03</totfact>
</mgrwt>
</event>
<event>
 5    1  0.2847672E-003  0.1942189E+02  0.7818608E-02  0.1797196E+00
         11   -1    0    0    0    0  0.00000000000E+00  0.00000000000E+00  0.99998867710E+03  0.99998867710E+03  0.51100000000E-03 0. -1.
          2   -1    0    0  501    0 -0.00000000000E+00 -0.00000000000E+00 -0.33719113748E+01  0.33719123390E+01  0.25500000000E-02 0. -1.
         11    1    1    2    0    0 -0.16335804593E+02  0.10828696973E+02  0.10801694311E+03  0.10978059569E+03  0.51100000000E-03 0. -1.
         22    1    1    2    0    0  0.13163674207E+02  0.90787298089E+01  0.24571975561E+02  0.29317019571E+02  0.00000000000E+00 0. -1.
          2    1    1    2  501    0  0.31721303862E+01 -0.19907426782E+02  0.86402784706E+03  0.86426297418E+03  0.25500000000E-02 0. -1.
<mgrwt>
<rscale>  0 0.17623034E+02</rscale>
<asrwt>0</asrwt>
<pdfrwt beam="1">  1       11 0.10000000E+01 0.19421885E+02</pdfrwt>
<pdfrwt beam="2">  1        2 0.51874978E-03 0.17623034E+02</pdfrwt>
<totfact> 0.25844569E+04</totfact>
</mgrwt>
</event>
<event>
 5    1  0.2847672E-003  0.1008108E+03  0.7818608E-02  0.1302677E+00
         11   -1    0    0    0    0  0.00000000000E+00  0.00000000000E+00  0.10000161777E+04  0.10000161777E+04  0.51100000000E-03 0.  1.
          2   -1    0    0  501    0 -0.00000000000E+00 -0.00000000000E+00 -0.24909807269E+02  0.24909807400E+02  0.25500000000E-02 0.  1.
         11    1    1    2    0    0 -0.10795935354E+03  0.26879405926E+02  0.35928414307E+03  0.37611543433E+03  0.51100000000E-03 0.  1.
         22    1    1    2    0    0  0.90047425757E+02  0.61393742326E+02  0.26332362849E+03  0.28498607651E+03  0.00000000000E+00 0.  1.
          2    1    1    2  501    0  0.17911927784E+02 -0.88273148252E+02  0.35249859887E+03  0.36382447426E+03  0.25500000000E-02 0.  1.
<mgrwt>
<rscale>  0 0.90072115E+02</rscale>
<asrwt>0</asrwt>
<pdfrwt beam="1">  1       11 0.10000000E+01 0.10081079E+03</pdfrwt>
<pdfrwt beam="2">  1        2 0.38323399E-02 0.90072115E+02</pdfrwt>
<totfact> 0.24995858E+03</totfact>
</mgrwt>
</event>
<event>
 5    1  0.2847672E-003  0.7305206E+02  0.7818608E-02  0.1367332E+00
         11   -1    0    0    0    0  0.00000000000E+00  0.00000000000E+00  0.10002774521E+04  0.10002774521E+04  0.51100000000E-03 0.  1.
         -2   -1    0    0    0  501 -0.00000000000E+00 -0.00000000000E+00 -0.61008722112E+01  0.61008727441E+01  0.25500000000E-02 0.  1.
         11    1    1    2    0    0  0.24902010538E+01 -0.55495910931E+02  0.20758770489E+03  0.21489218797E+03  0.51100000000E-03 0.  1.
         22    1    1    2    0    0  0.13067832025E+02 -0.10612649273E+02  0.87391108561E+02  0.88997766342E+02  0.00000000000E+00 0.  1.
         -2    1    1    2    0  501 -0.15558033079E+02  0.66108560204E+02  0.69919776642E+03  0.70248837051E+03  0.25500000000E-02 0.  1.
<mgrwt>
<rscale>  0 0.67914609E+02</rscale>
<asrwt>0</asrwt>
<pdfrwt beam="1">  1       11 0.10000000E+01 0.73052063E+02</pdfrwt>
<pdfrwt beam="2">  1       -2 0.93885615E-03 0.67914609E+02</pdfrwt>
<totfact> 0.15132302E+04</totfact>
</mgrwt>
</event>
<event>
 5    1  0.2847672E-003  0.1150517E+03  0.7818608E-02  0.1255202E+00
         11   -1    0    0    0    0  0.00000000000E+00  0.00000000000E+00  0.10001037637E+04  0.10001037637E+04  0.51100000000E-03 0. -1.
         -2   -1    0    0    0  501 -0.00000000000E+00 -0.00000000000E+00 -0.14174197292E+02  0.14174197521E+02  0.25500000000E-02 0.  1.
         11    1    1    2    0    0  0.94140337727E+02  0.69030298029E+01  0.57084990063E+03  0.57860147257E+03  0.51100000000E-03 0. -1.
         22    1    1    2    0    0  0.18750594993E+02 -0.32501002526E+01  0.72559693186E+02  0.75013712343E+02  0.00000000000E+00 0.  1.
         -2    1    1    2    0  501 -0.11289093272E+03 -0.36529295502E+01  0.34251997259E+03  0.36066277631E+03  0.25500000000E-02 0.  1.
<mgrwt>
<rscale>  0 0.11295002E+03</rscale>
<asrwt>0</asrwt>
<pdfrwt beam="1">  1       11 0.10000000E+01 0.11505175E+03</pdfrwt>
<pdfrwt beam="2">  1       -2 0.21808720E-02 0.11295002E+03</pdfrwt>
<totfact> 0.49161978E+03</totfact>
</mgrwt>
</event>
<event>
 5    1  0.2847672E-003  0.1593069E+03  0.7818608E-02  0.1189481E+00
         11   -1    0    0    0    0  0.00000000000E+00  0.00000000000E+00  0.10002714933E+04  0.10002714933E+04  0.51100000000E-03 0. -1.
          2   -1    0    0  501    0 -0.00000000000E+00 -0.00000000000E+00 -0.50781197388E+02  0.50781197452E+02  0.25500000000E-02 0. -1.
         11    1    1    2    0    0  0.14751274925E+03 -0.55103022843E+02  0.84725148993E+03  0.86176066370E+03  0.51100000000E-03 0. -1.
         22    1    1    2    0    0 -0.23642488516E+02  0.55129952588E+01  0.66936314049E+01  0.25182634519E+02  0.00000000000E+00 0. -1.
          2    1    1    2  501    0 -0.12387026073E+03  0.49590027584E+02  0.95545174611E+02  0.16410939256E+03  0.25500000000E-02 0. -1.
<mgrwt>
<rscale>  0 0.15930693E+03</rscale>
<asrwt>0</asrwt>
<pdfrwt beam="1">  1       11 0.10000000E+01 0.15746858E+03</pdfrwt>
<pdfrwt beam="2">  1        2 0.78146127E-02 0.15930693E+03</pdfrwt>
<totfact> 0.10441425E+03</totfact>
</mgrwt>
</event>
<event>
 5    1  0.2847672E-003  0.2672705E+03  0.7818608E-02  0.1165966E+00
         11   -1    0    0    0    0  0.00000000000E+00  0.00000000000E+00  0.10003527879E+04  0.10003527879E+04  0.51100000000E-03 0. -1.
          2   -1    0    0  501    0 -0.00000000000E+00 -0.00000000000E+00 -0.20288279433E+03  0.20288279435E+03  0.25500000000E-02 0. -1.
         11    1    1    2    0    0  0.24119350342E+03 -0.11256546552E+03  0.72408059623E+03  0.77145187793E+03  0.51100000000E-03 0. -1.
         22    1    1    2    0    0 -0.51330183112E+02 -0.11267274215E+03 -0.13764120264E+02  0.12457682580E+03  0.00000000000E+00 0. -1.
          2    1    1    2  501    0 -0.18986332031E+03  0.22523820766E+03  0.87153517639E+02  0.30720687856E+03  0.25500000000E-02 0. -1.
<mgrwt>
<rscale>  0 0.18191167E+03</rscale>
<asrwt>0</asrwt>
<pdfrwt beam="1">  1       11 0.10000000E+01 0.26727047E+03</pdfrwt>
<pdfrwt beam="2">  1        2 0.31223748E-01 0.18191167E+03</pdfrwt>
<totfact> 0.20652059E+02</totfact>
</mgrwt>
</event>
<event>
 5    1  0.2847672E-003  0.1789917E+02  0.7818608E-02  0.1790651E+00
         11   -1    0    0    0    0  0.00000000000E+00  0.00000000000E+00  0.10002010743E+04  0.10002010743E+04  0.51100000000E-03 0.  1.
          2   -1    0    0  501    0 -0.00000000000E+00 -0.00000000000E+00 -0.10079636659E+02  0.10079636981E+02  0.25500000000E-02 0.  1.
         11    1    1    2    0    0  0.39190540480E+01  0.12005008127E+02  0.47509580632E+02  0.49159327262E+02  0.51100000000E-03 0.  1.
         22    1    1    2    0    0 -0.16806121990E+02  0.61461286262E+01 -0.34869917952E+00  0.17898106731E+02  0.00000000000E+00 0.  1.
          2    1    1    2  501    0  0.12887067942E+02 -0.18151136754E+02  0.94296055616E+03  0.94322327726E+03  0.25500000000E-02 0.  1.
<mgrwt>
<rscale>  0 0.17899168E+02</rscale>
<asrwt>0</asrwt>
<pdfrwt beam="1">  1       11 0.10000000E+01 0.12628514E+02</pdfrwt>
<pdfrwt beam="2">  1        2 0.15510251E-02 0.17899168E+02</pdfrwt>
<totfact> 0.63259705E+03</totfact>
</mgrwt>
</event>
<event>
 5    1  0.2847672E-003  0.2614664E+03  0.7818608E-02  0.1218424E+00
         11   -1    0    0    0    0  0.00000000000E+00  0.00000000000E+00  0.99982873711E+03  0.99982873711E+03  0.51100000000E-03 0.  1.
          2   -1    0    0  501    0 -0.00000000000E+00 -0.00000000000E+00 -0.54776095829E+03  0.54776095829E+03  0.25500000000E-02 0.  1.
         11    1    1    2    0    0 -0.11306951138E+03 -0.23236526478E+03  0.86822288756E+03  0.90586384913E+03  0.51100000000E-03 0.  1.
         22    1    1    2    0    0 -0.70796959421E+02 -0.57643359397E+01 -0.31714100470E+03  0.32499823676E+03  0.00000000000E+00 0.  1.
          2    1    1    2  501    0  0.18386647080E+03  0.23812960072E+03 -0.99014104027E+02  0.31672760951E+03  0.25500000000E-02 0.  1.
<mgrwt>
<rscale>  0 0.13628017E+03</rscale>
<asrwt>0</asrwt>
<pdfrwt beam="1">  1       11 0.10000000E+01 0.26146644E+03</pdfrwt>
<pdfrwt beam="2">  1        2 0.84256482E-01 0.13628017E+03</pdfrwt>
<totfact> 0.70851060E+01</totfact>
</mgrwt>
</event>
<event>
 5    1  0.2847672E-003  0.2519294E+03  0.7818608E-02  0.1286807E+00
         11   -1    0    0    0    0  0.00000000000E+00  0.00000000000E+00  0.10003694890E+04  0.10003694890E+04  0.51100000000E-03 0.  1.
          2   -1    0    0  501    0 -0.00000000000E+00 -0.00000000000E+00 -0.19741787418E+03  0.19741787419E+03  0.25500000000E-02 0.  1.
         11    1    1    2    0    0 -0.78946647602E+02 -0.24009186257E+03  0.86706149655E+03  0.90314578803E+03  0.51100000000E-03 0.  1.
         22    1    1    2    0    0 -0.31920192392E+02  0.19340133473E+02  0.61290393555E+01  0.37822011693E+02  0.00000000000E+00 0. -1.
          2    1    1    2  501    0  0.11086683999E+03  0.22075172910E+03 -0.70238921125E+02  0.25681956342E+03  0.25500000000E-02 0.  1.
<mgrwt>
<rscale>  0 0.96966676E+02</rscale>
<asrwt>0</asrwt>
<pdfrwt beam="1">  1       11 0.10000000E+01 0.25192943E+03</pdfrwt>
<pdfrwt beam="2">  1        2 0.30383202E-01 0.96966676E+02</pdfrwt>
<totfact> 0.21020999E+02</totfact>
</mgrwt>
</event>
<event>
 5    1  0.2847672E-003  0.2203074E+02  0.7818608E-02  0.1805979E+00
         11   -1    0    0    0    0  0.00000000000E+00  0.00000000000E+00  0.99967479407E+03  0.99967479407E+03  0.51100000000E-03 0.  1.
          2   -1    0    0  501    0 -0.00000000000E+00 -0.00000000000E+00 -0.47860089218E+01  0.47860096012E+01  0.25500000000E-02 0.  1.
         11    1    1    2    0    0 -0.14971617631E+02 -0.33525909925E+01  0.62966055035E+02  0.64808281012E+02  0.51100000000E-03 0.  1.
         22    1    1    2    0    0 -0.70303641414E+01  0.11555319271E+02  0.85939476848E+01  0.16025210146E+02  0.00000000000E+00 0.  1.
          2    1    1    2  501    0  0.22001981772E+02 -0.82027282782E+01  0.92332878242E+03  0.92362731251E+03  0.25500000000E-02 0.  1.
<mgrwt>
<rscale>  0 0.17262289E+02</rscale>
<asrwt>0</asrwt>
<pdfrwt beam="1">  1       11 0.10000000E+01 0.22030739E+02</pdfrwt>
<pdfrwt beam="2">  1        2 0.73606964E-03 0.17262289E+02</pdfrwt>
<totfact> 0.16338366E+04</totfact>
</mgrwt>
</event>
<event>
 5    1  0.2847672E-003  0.4024372E+02  0.7818608E-02  0.1733338E+00
         11   -1    0    0    0    0  0.00000000000E+00  0.00000000000E+00  0.10003278041E+04  0.10003278041E+04  0.51100000000E-03 0.  1.
          2   -1    0    0  501    0 -0.00000000000E+00 -0.00000000000E+00 -0.74111153539E+01  0.74111157926E+01  0.25500000000E-02 0.  1.
         11    1    1    2    0    0  0.12417553243E+02 -0.43535301252E+02  0.94138371819E+02  0.10445837033E+03  0.51100000000E-03 0.  1.
         22    1    1    2    0    0 -0.26996856809E+02  0.28958381522E+02  0.18427959578E+03  0.18848444912E+03  0.00000000000E+00 0.  1.
          2    1    1    2  501    0  0.14579303566E+02  0.14576919729E+02  0.71449872119E+03  0.71479610048E+03  0.25500000000E-02 0.  1.
<mgrwt>
<rscale>  0 0.20616563E+02</rscale>
<asrwt>0</asrwt>
<pdfrwt beam="1">  1       11 0.10000000E+01 0.40243723E+02</pdfrwt>
<pdfrwt beam="2">  1        2 0.11405453E-02 0.20616563E+02</pdfrwt>
<totfact> 0.96855314E+03</totfact>
</mgrwt>
</event>
<event>
 5    1  0.2847672E-003  0.2068779E+03  0.7818608E-02  0.1439788E+00
         11   -1    0    0    0    0  0.00000000000E+00  0.00000000000E+00  0.99989660869E+03  0.99989660869E+03  0.51100000000E-03 0. -1.
          2   -1    0    0  501    0 -0.00000000000E+00 -0.00000000000E+00 -0.53834619555E+02  0.53834619615E+02  0.25500000000E-02 0. -1.
         11    1    1    2    0    0  0.15866444895E+03 -0.12613232648E+03  0.36072337482E+03  0.41376940955E+03  0.51100000000E-03 0. -1.
         22    1    1    2    0    0  0.11951343352E+02  0.39734902221E+01 -0.49137492716E+01  0.13519177651E+02  0.00000000000E+00 0. -1.
          2    1    1    2  501    0 -0.17061579230E+03  0.12215883626E+03  0.59025236359E+03  0.62644264110E+03  0.25500000000E-02 0. -1.
<mgrwt>
<rscale>  0 0.51044457E+02</rscale>
<asrwt>0</asrwt>
<pdfrwt beam="1">  1       11 0.10000000E+01 0.20687785E+03</pdfrwt>
<pdfrwt beam="2">  1        2 0.82813926E-02 0.51044457E+02</pdfrwt>
<totfact> 0.89502663E+02</totfact>
</mgrwt>
</event>
<event>
 5    1  0.2847672E-003  0.1293226E+03  0.7818608E-02  0.1473102E+00
         11   -1    0    0    0    0  0.00000000000E+00  0.00000000000E+00  0.10004868740E+04  0.10004868740E+04  0.51100000000E-03 0. -1.
         -2   -1    0    0    0  501 -0.00000000000E+00 -0.00000000000E+00 -0.21742563831E+02  0.21742563981E+02  0.25500000000E-02 0. -1.
         11    1    1    2    0    0  0.12637343603E+03 -0.86378388862E+01  0.61432547143E+03  0.62724846947E+03  0.51100000000E-03 0. -1.
         22    1    1    2    0    0  0.86342071951E+01  0.13229093406E+02  0.23930894713E+02  0.28674835100E+02  0.00000000000E+00 0. -1.
         -2    1    1    2    0  501 -0.13500764323E+03 -0.45912545202E+01  0.34048794403E+03  0.36630613343E+03  0.25500000000E-02 0. -1.
<mgrwt>
<rscale>  0 0.45199152E+02</rscale>
<asrwt>0</asrwt>
<pdfrwt beam="1">  1       11 0.10000000E+01 0.12932260E+03</pdfrwt>
<pdfrwt beam="2">  1       -2 0.33466383E-02 0.45199152E+02</pdfrwt>
<totfact> 0.23568435E+03</totfact>
</mgrwt>
</event>
<event>
 5    1  0.2847672E-003  0.8598889E+02  0.7818608E-02  0.1534430E+00
         11   -1    0    0    0    0  0.00000000000E+00  0.00000000000E+00  0.10000426921E+04  0.10000426921E+04  0.51100000000E-03 0.  1.
          2   -1    0    0  501    0 -0.00000000000E+00 -0.00000000000E+00 -0.10931593434E+02  0.10931593731E+02  0.25500000000E-02 0.  1.
         11    1    1    2    0    0 -0.40680251530E+02  0.75079933828E+02  0.51434886498E+03  0.52138913897E+03  0.51100000000E-03 0.  1.
         22    1    1    2    0    0 -0.14027276694E+02 -0.68708445305E+01  0.15256487252E+02  0.21834225411E+02  0.00000000000E+00 0.  1.
          2    1    1    2  501    0  0.54707528224E+02 -0.68209089297E+02  0.45950574645E+03  0.46775092147E+03  0.25500000000E-02 0.  1.
<mgrwt>
<rscale>  0 0.36648534E+02</rscale>
<asrwt>0</asrwt>
<pdfrwt beam="1">  1       11 0.10000000E+01 0.85988889E+02</pdfrwt>
<pdfrwt beam="2">  1        2 0.16818554E-02 0.36648534E+02</pdfrwt>
<totfact> 0.65394078E+03</totfact>
</mgrwt>
</event>
<event>
 5    1  0.2847672E-003  0.2979385E+03  0.7818608E-02  0.1250439E+00
         11   -1    0    0    0    0  0.00000000000E+00  0.00000000000E+00  0.10005346246E+04  0.10005346246E+04  0.51100000000E-03 0. -1.
          2   -1    0    0  501    0 -0.00000000000E+00 -0.00000000000E+00 -0.10813814609E+03  0.10813814612E+03  0.25500000000E-02 0.  1.
         11    1    1    2    0    0 -0.87623552487E+02  0.29167633511E+03  0.55812953108E+03  0.63581565322E+03  0.51100000000E-03 0. -1.
         22    1    1    2    0    0 -0.34256239516E+02 -0.29021404636E+02  0.44354785116E+02  0.63111637876E+02  0.00000000000E+00 0.  1.
          2    1    1    2  501    0  0.12187979200E+03 -0.26265493048E+03  0.28991216228E+03  0.40974547959E+03  0.25500000000E-02 0.  1.
<mgrwt>
<rscale>  0 0.11565688E+03</rscale>
<asrwt>0</asrwt>
<pdfrwt beam="1">  1       11 0.10000000E+01 0.29793848E+03</pdfrwt>
<pdfrwt beam="2">  1        2 0.16645532E-01 0.11565688E+03</pdfrwt>
<totfact> 0.41180945E+02</totfact>
</mgrwt>
</event>
<event>
 5    1  0.2847672E-003  0.1345183E+03  0.7818608E-02  0.1222362E+00
         11   -1    0    0    0    0  0.00000000000E+00  0.00000000000E+00  0.10001787734E+04  0.10001787734E+04  0.51100000000E-03 0.  1.
          2   -1    0    0  501    0 -0.00000000000E+00 -0.00000000000E+00 -0.25954176602E+02  0.25954176728E+02  0.25500000000E-02 0.  1.
         11    1    1    2    0    0 -0.11687755863E+03  0.32929567329E+02  0.72545061923E+03  0.73554287506E+03  0.51100000000E-03 0.  1.
         22    1    1    2    0    0 -0.11186822262E+02  0.47531160684E+01  0.47795100143E+02  0.49316414127E+02  0.00000000000E+00 0. -1.
          2    1    1    2  501    0  0.12806438089E+03 -0.37682683397E+02  0.20097887738E+03  0.24127366090E+03  0.25500000000E-02 0.  1.
<mgrwt>
<rscale>  0 0.13349333E+03</rscale>
<asrwt>0</asrwt>
<pdfrwt beam="1">  1       11 0.10000000E+01 0.13451826E+03</pdfrwt>
<pdfrwt beam="2">  1        2 0.39936640E-02 0.13349333E+03</pdfrwt>
<totfact> 0.24591212E+03</totfact>
</mgrwt>
</event>
<event>
 5    1  0.2847672E-003  0.5600992E+02  0.7818608E-02  0.1428426E+00
         11   -1    0    0    0    0  0.00000000000E+00  0.00000000000E+00  0.10001722136E+04  0.10001722136E+04  0.51100000000E-03 0.  1.
         -2   -1    0    0    0  501 -0.00000000000E+00 -0.00000000000E+00 -0.42208690089E+01  0.42208697792E+01  0.25500000000E-02 0. -1.
         11    1    1    2    0    0  0.25973681815E+02 -0.28703113291E+02  0.19089386304E+03  0.19477927972E+03  0.51100000000E-03 0.  1.
         22    1    1    2    0    0  0.14502188517E+02 -0.59402249293E+01  0.44250027489E+02  0.46943206929E+02  0.00000000000E+00 0. -1.
         -2    1    1    2    0  501 -0.40475870332E+02  0.34643338220E+02  0.76080745401E+03  0.76267059668E+03  0.25500000000E-02 0. -1.
<mgrwt>
<rscale>  0 0.53277171E+02</rscale>
<asrwt>0</asrwt>
<pdfrwt beam="1">  1       11 0.10000000E+01 0.56009921E+02</pdfrwt>
<pdfrwt beam="2">  1       -2 0.64947633E-03 0.53277171E+02</pdfrwt>
<totfact> 0.24146589E+04</totfact>
</mgrwt>
</event>
<event>
 5    1  0.2847672E-003  0.8941143E+02  0.7818608E-02  0.1440302E+00
         11   -1    0    0    0    0  0.00000000000E+00  0.00000000000E+00  0.99970948195E+03  0.99970948195E+03  0.51100000000E-03 0. -1.
          2   -1    0    0  501    0 -0.00000000000E+00 -0.00000000000E+00 -0.86509539525E+02  0.86509539562E+02  0.25500000000E-02 0. -1.
         11    1    1    2    0    0 -0.49424860138E+02 -0.93032929778E+02  0.47505379235E+03  0.48659433664E+03  0.51100000000E-03 0. -1.
         22    1    1    2    0    0 -0.40743818707E+00  0.29026351662E+02 -0.74835738659E+02  0.80268816345E+02  0.00000000000E+00 0. -1.
          2    1    1    2  501    0  0.49832298325E+02  0.64006578116E+02  0.51298188873E+03  0.51935586852E+03  0.25500000000E-02 0. -1.
<mgrwt>
<rscale>  0 0.50946461E+02</rscale>
<asrwt>0</asrwt>
<pdfrwt beam="1">  1       11 0.10000000E+01 0.89411428E+02</pdfrwt>
<pdfrwt beam="2">  1        2 0.13305293E-01 0.50946461E+02</pdfrwt>
<totfact> 0.51106074E+02</totfact>
</mgrwt>
</event>
<event>
 5    1  0.2847672E-003  0.1079712E+03  0.7818608E-02  0.1380334E+00
         11   -1    0    0    0    0  0.00000000000E+00  0.00000000000E+00  0.10004629974E+04  0.10004629974E+04  0.51100000000E-03 0.  1.
          2   -1    0    0  501    0 -0.00000000000E+00 -0.00000000000E+00 -0.23655135529E+02  0.23655135667E+02  0.25500000000E-02 0.  1.
         11    1    1    2    0    0  0.52127163890E+02  0.10123583461E+03  0.46412138783E+03  0.47788554913E+03  0.51100000000E-03 0.  1.
         22    1    1    2    0    0 -0.38185363390E+02  0.38915463960E+01  0.22049424903E+02  0.44265598935E+02  0.00000000000E+00 0.  1.
          2    1    1    2  501    0 -0.13941800501E+02 -0.10512738101E+03  0.49063704912E+03  0.50196698498E+03  0.25500000000E-02 0.  1.
<mgrwt>
<rscale>  0 0.64376032E+02</rscale>
<asrwt>0</asrwt>
<pdfrwt beam="1">  1       11 0.10000000E+01 0.10797122E+03</pdfrwt>
<pdfrwt beam="2">  1        2 0.36409365E-02 0.64376032E+02</pdfrwt>
<totfact> 0.25773302E+03</totfact>
</mgrwt>
</event>
<event>
 5    1  0.2847672E-003  0.1226337E+03  0.7818608E-02  0.1360374E+00
         11   -1    0    0    0    0  0.00000000000E+00  0.00000000000E+00  0.99976824782E+03  0.99976824782E+03  0.51100000000E-03 0. -1.
          2   -1    0    0  501    0 -0.00000000000E+00 -0.00000000000E+00 -0.33064924778E+02  0.33064924876E+02  0.25500000000E-02 0. -1.
         11    1    1    2    0    0 -0.20456493626E+02 -0.13860230905E+03  0.49371719073E+03  0.51321119691E+03  0.51100000000E-03 0. -1.
         22    1    1    2    0    0  0.29406137787E+02  0.26912399587E+02  0.71482121217E+01  0.40498087950E+02  0.00000000000E+00 0. -1.
          2    1    1    2  501    0 -0.89496441616E+01  0.11168990946E+03  0.46583792019E+03  0.47912388784E+03  0.25500000000E-02 0. -1.
<mgrwt>
<rscale>  0 0.69917465E+02</rscale>
<asrwt>0</asrwt>
<pdfrwt beam="1">  1       11 0.10000000E+01 0.12263371E+03</pdfrwt>
<pdfrwt beam="2">  1        2 0.50857325E-02 0.69917465E+02</pdfrwt>
<totfact> 0.16897674E+03</totfact>
</mgrwt>
</event>
<event>
 5    1  0.2847672E-003  0.1140008E+03  0.7818608E-02  0.1399107E+00
         11   -1    0    0    0    0  0.00000000000E+00  0.00000000000E+00  0.10000722035E+04  0.10000722035E+04  0.51100000000E-03 0.  1.
          2   -1    0    0  501    0 -0.00000000000E+00 -0.00000000000E+00 -0.21031859626E+02  0.21031859781E+02  0.25500000000E-02 0.  1.
         11    1    1    2    0    0  0.11234141093E+03  0.88462613928E+01  0.63107789064E+03  0.64106017893E+03  0.51100000000E-03 0.  1.
         22    1    1    2    0    0  0.55334382091E+01 -0.30767201118E+02  0.51366901403E+02  0.60131507239E+02  0.00000000000E+00 0. -1.
          2    1    1    2  501    0 -0.11787484914E+03  0.21920939725E+02  0.29659555181E+03  0.31991237710E+03  0.25500000000E-02 0.  1.
<mgrwt>
<rscale>  0 0.59697242E+02</rscale>
<asrwt>0</asrwt>
<pdfrwt beam="1">  1       11 0.10000000E+01 0.11400083E+03</pdfrwt>
<pdfrwt beam="2">  1        2 0.32359043E-02 0.59697242E+02</pdfrwt>
<totfact> 0.29786444E+03</totfact>
</mgrwt>
</event>
<event>
 5    1  0.2847672E-003  0.1335008E+03  0.7818608E-02  0.1307656E+00
         11   -1    0    0    0    0  0.00000000000E+00  0.00000000000E+00  0.10002204081E+04  0.10002204081E+04  0.51100000000E-03 0. -1.
          2   -1    0    0  501    0 -0.00000000000E+00 -0.00000000000E+00 -0.40636342100E+02  0.40636342180E+02  0.25500000000E-02 0. -1.
         11    1    1    2    0    0  0.63987319725E+02 -0.14341441070E+03  0.45270744401E+03  0.47917230736E+03  0.51100000000E-03 0. -1.
         22    1    1    2    0    0  0.20576611699E+02  0.54298583581E+02  0.23000143157E+02  0.62455902148E+02  0.00000000000E+00 0. -1.
          2    1    1    2  501    0 -0.84563931424E+02  0.89115827121E+02  0.48387647883E+03  0.49922854076E+03  0.25500000000E-02 0. -1.
<mgrwt>
<rscale>  0 0.88045092E+02</rscale>
<asrwt>0</asrwt>
<pdfrwt beam="1">  1       11 0.10000000E+01 0.13350082E+03</pdfrwt>
<pdfrwt beam="2">  1        2 0.62531227E-02 0.88045092E+02</pdfrwt>
<totfact> 0.13263347E+03</totfact>
</mgrwt>
</event>
<event>
 5    1  0.2847672E-003  0.2100003E+03  0.7818608E-02  0.1152258E+00
         11   -1    0    0    0    0  0.00000000000E+00  0.00000000000E+00  0.10001735795E+04  0.10001735795E+04  0.51100000000E-03 0. -1.
         -2   -1    0    0    0  501 -0.00000000000E+00 -0.00000000000E+00 -0.43792153005E+02  0.43792153079E+02  0.25500000000E-02 0. -1.
         11    1    1    2    0    0 -0.69942160610E+01 -0.11141550243E+03  0.27974369710E+03  0.30119573256E+03  0.51100000000E-03 0. -1.
         22    1    1    2    0    0 -0.12795307522E+02 -0.84631487781E+02  0.91258319910E+02  0.12511710343E+03  0.00000000000E+00 0. -1.
         -2    1    1    2    0  501  0.19789523583E+02  0.19604699021E+03  0.58537940946E+03  0.61765289657E+03  0.25500000000E-02 0. -1.
<mgrwt>
<rscale>  0 0.19704326E+03</rscale>
<asrwt>0</asrwt>
<pdfrwt beam="1">  1       11 0.10000000E+01 0.21000033E+03</pdfrwt>
<pdfrwt beam="2">  1       -2 0.67384236E-02 0.19704326E+03</pdfrwt>
<totfact> 0.96609412E+02</totfact>
</mgrwt>
</event>
<event>
 5    1  0.2847672E-003  0.2805527E+03  0.7818608E-02  0.1255855E+00
         11   -1    0    0    0    0  0.00000000000E+00  0.00000000000E+00  0.10002047463E+04  0.10002047463E+04  0.51100000000E-03 0. -1.
          2   -1    0    0  501    0 -0.00000000000E+00 -0.00000000000E+00 -0.82957680417E+03  0.82957680417E+03  0.25500000000E-02 0. -1.
         11    1    1    2    0    0  0.28016771678E+03  0.54825231421E+01  0.94372208493E+03  0.98444673862E+03  0.51100000000E-03 0. -1.
         22    1    1    2    0    0  0.11931536908E+02 -0.43576766593E+02 -0.13898443400E+03  0.14614365896E+03  0.00000000000E+00 0. -1.
          2    1    1    2  501    0 -0.29209925369E+03  0.38094243451E+02 -0.63410970884E+03  0.69919115286E+03  0.25500000000E-02 0. -1.
<mgrwt>
<rscale>  0 0.11258582E+03</rscale>
<asrwt>0</asrwt>
<pdfrwt beam="1">  1       11 0.10000000E+01 0.28055266E+03</pdfrwt>
<pdfrwt beam="2">  1        2 0.12765333E+00 0.11258582E+03</pdfrwt>
<totfact> 0.43741657E+01</totfact>
</mgrwt>
</event>
<event>
 5    1  0.2847672E-003  0.1944488E+03  0.7818608E-02  0.1448643E+00
         11   -1    0    0    0    0  0.00000000000E+00  0.00000000000E+00  0.10000354788E+04  0.10000354788E+04  0.51100000000E-03 0.  1.
          2   -1    0    0  501    0 -0.00000000000E+00 -0.00000000000E+00 -0.54738948782E+02  0.54738948841E+02  0.25500000000E-02 0.  1.
         11    1    1    2    0    0  0.69791873447E+02  0.18764345033E+03  0.24706900633E+03  0.31800010053E+03  0.51100000000E-03 0.  1.
         22    1    1    2    0    0  0.62258178955E+01 -0.10892957178E+02  0.25311816709E-01  0.12546631629E+02  0.00000000000E+00 0. -1.
          2    1    1    2  501    0 -0.76017691343E+02 -0.17675049315E+03  0.69820221188E+03  0.72422769549E+03  0.25500000000E-02 0.  1.
<mgrwt>
<rscale>  0 0.49393031E+02</rscale>
<asrwt>0</asrwt>
<pdfrwt beam="1">  1       11 0.10000000E+01 0.19444882E+03</pdfrwt>
<pdfrwt beam="2">  1        2 0.84216753E-02 0.49393031E+02</pdfrwt>
<totfact> 0.87459537E+02</totfact>
</mgrwt>
</event>
<event>
 5    1  0.2847672E-003  0.4424036E+02  0.7818608E-02  0.1522283E+00
         11   -1    0    0    0    0  0.00000000000E+00  0.00000000000E+00  0.10001661407E+04  0.10001661407E+04  0.51100000000E-03 0. -1.
          2   -1    0    0  501    0 -0.00000000000E+00 -0.00000000000E+00 -0.67144248211E+01  0.67144253053E+01  0.25500000000E-02 0. -1.
         11    1    1    2    0    0 -0.43991821257E+02  0.35305456734E+01  0.14325069949E+03  0.14989498990E+03  0.51100000000E-03 0. -1.
         22    1    1    2    0    0  0.12437397871E+02  0.30456711842E+02  0.98367175837E+02  0.10372271422E+03  0.00000000000E+00 0. -1.
          2    1    1    2  501    0  0.31554423387E+02 -0.33987257516E+02  0.75183384059E+03  0.75326286193E+03  0.25500000000E-02 0. -1.
<mgrwt>
<rscale>  0 0.38150139E+02</rscale>
<asrwt>0</asrwt>
<pdfrwt beam="1">  1       11 0.10000000E+01 0.44240355E+02</pdfrwt>
<pdfrwt beam="2">  1        2 0.10331601E-02 0.38150139E+02</pdfrwt>
<totfact> 0.12542035E+04</totfact>
</mgrwt>
</event>
<event>
 5    1  0.2847672E-003  0.4156833E+02  0.7818608E-02  0.1549595E+00
         11   -1    0    0    0    0  0.00000000000E+00  0.00000000000E+00  0.99991462864E+03  0.99991462864E+03  0.51100000000E-03 0. -1.
          2   -1    0    0  501    0 -0.00000000000E+00 -0.00000000000E+00 -0.52069878795E+01  0.52069885039E+01  0.25500000000E-02 0. -1.
         11    1    1    2    0    0 -0.45412452671E+02  0.24518168243E+02  0.20299382003E+03  0.20945147983E+03  0.51100000000E-03 0. -1.
         22    1    1    2    0    0  0.26719423569E+02  0.11978891107E+02  0.16217857026E+03  0.16480081942E+03  0.00000000000E+00 0. -1.
          2    1    1    2  501    0  0.18693029102E+02 -0.36497059350E+02  0.62953525047E+03  0.63086931790E+03  0.25500000000E-02 0. -1.
<mgrwt>
<rscale>  0 0.34888295E+02</rscale>
<asrwt>0</asrwt>
<pdfrwt beam="1">  1       11 0.10000000E+01 0.41568326E+02</pdfrwt>
<pdfrwt beam="2">  1        2 0.80100669E-03 0.34888295E+02</pdfrwt>
<totfact> 0.17273262E+04</totfact>
</mgrwt>
</event>
<event>
 5    1  0.2847672E-003  0.2094531E+03  0.7818608E-02  0.1322787E+00
         11   -1    0    0    0    0  0.00000000000E+00  0.00000000000E+00  0.10003641238E+04  0.10003641238E+04  0.51100000000E-03 0.  1.
          2   -1    0    0  501    0 -0.00000000000E+00 -0.00000000000E+00 -0.21707288403E+03  0.21707288405E+03  0.25500000000E-02 0.  1.
         11    1    1    2    0    0  0.20717981318E+03  0.36453474248E+02  0.92403382715E+03  0.94767655056E+03  0.51100000000E-03 0.  1.
         22    1    1    2    0    0 -0.94245162131E+01 -0.30892534515E+02 -0.19228399405E+02  0.37588582552E+02  0.00000000000E+00 0.  1.
          2    1    1    2  501    0 -0.19775529697E+03 -0.55609397329E+01 -0.12151418797E+03  0.23217187473E+03  0.25500000000E-02 0.  1.
<mgrwt>
<rscale>  0 0.82249302E+02</rscale>
<asrwt>0</asrwt>
<pdfrwt beam="1">  1       11 0.10000000E+01 0.20945313E+03</pdfrwt>
<pdfrwt beam="2">  1        2 0.33407988E-01 0.82249302E+02</pdfrwt>
<totfact> 0.18937819E+02</totfact>
</mgrwt>
</event>
<event>
 5    1  0.2847672E-003  0.1690941E+03  0.7818608E-02  0.1201521E+00
         11   -1    0    0    0    0  0.00000000000E+00  0.00000000000E+00  0.10001136763E+04  0.10001136763E+04  0.51100000000E-03 0.  1.
          2   -1    0    0  501    0 -0.00000000000E+00 -0.00000000000E+00 -0.16714702618E+04  0.16714702618E+04  0.25500000000E-02 0.  1.
         11    1    1    2    0    0 -0.88303582616E+02 -0.14431169642E+03  0.97594684610E+03  0.99050271824E+03  0.51100000000E-03 0.  1.
         22    1    1    2    0    0  0.11848465701E+03 -0.57174612361E+02 -0.64116721057E+03  0.65452497444E+03  0.00000000000E+00 0.  1.
          2    1    1    2  501    0 -0.30181074397E+02  0.20148630879E+03 -0.10061362210E+04  0.10265562455E+04  0.25500000000E-02 0.  1.
<mgrwt>
<rscale>  0 0.14914995E+03</rscale>
<asrwt>0</asrwt>
<pdfrwt beam="1">  1       11 0.10000000E+01 0.16909410E+03</pdfrwt>
<pdfrwt beam="2">  1        2 0.25717850E+00 0.14914995E+03</pdfrwt>
<totfact> 0.14582539E+01</totfact>
</mgrwt>
</event>
<event>
 5    1  0.2847672E-003  0.2346897E+03  0.7818608E-02  0.1344378E+00
         11   -1    0    0    0    0  0.00000000000E+00  0.00000000000E+00  0.10003917578E+04  0.10003917578E+04  0.51100000000E-03 0. -1.
          2   -1    0    0  501    0 -0.00000000000E+00 -0.00000000000E+00 -0.10791262943E+04  0.10791262943E+04  0.25500000000E-02 0. -1.
         11    1    1    2    0    0  0.21502604877E+03 -0.93442134819E+02  0.96771225816E+03  0.99570811426E+03  0.51100000000E-03 0. -1.
         22    1    1    2    0    0  0.22533851426E+02  0.78540602403E+01 -0.44050505683E+02  0.50098979763E+02  0.00000000000E+00 0. -1.
          2    1    1    2  501    0 -0.23755990020E+03  0.85588074578E+02 -0.10023962890E+04  0.10337109581E+04  0.25500000000E-02 0. -1.
<mgrwt>
<rscale>  0 0.74836417E+02</rscale>
<asrwt>0</asrwt>
<pdfrwt beam="1">  1       11 0.10000000E+01 0.23468973E+03</pdfrwt>
<pdfrwt beam="2">  1        2 0.16608446E+00 0.74836417E+02</pdfrwt>
<totfact> 0.31539098E+01</totfact>
</mgrwt>
</event>
<event>
 5    1  0.2847672E-003  0.1175252E+03  0.7818608E-02  0.1247236E+00
         11   -1    0    0    0    0  0.00000000000E+00  0.00000000000E+00  0.10005700364E+04  0.10005700364E+04  0.51100000000E-03 0.  1.
          2   -1    0    0  501    0 -0.00000000000E+00 -0.00000000000E+00 -0.82824393394E+02  0.82824393434E+02  0.25500000000E-02 0.  1.
         11    1    1    2    0    0 -0.64665187134E+02 -0.65178286932E+02  0.68264988802E+02  0.11441111926E+03  0.51100000000E-03 0.  1.
         22    1    1    2    0    0  0.69472164660E+02 -0.93361115431E+02  0.12427102482E+02  0.11703466330E+03  0.00000000000E+00 0.  1.
          2    1    1    2  501    0 -0.48069775252E+01  0.15853940236E+03  0.83705355171E+03  0.85194864726E+03  0.25500000000E-02 0.  1.
<mgrwt>
<rscale>  0 0.11752524E+03</rscale>
<asrwt>0</asrwt>
<pdfrwt beam="1">  1       11 0.10000000E+01 0.91813964E+02</pdfrwt>
<pdfrwt beam="2">  1        2 0.12749478E-01 0.11752524E+03</pdfrwt>
<totfact> 0.56290963E+02</totfact>
</mgrwt>
</event>
<event>
 5    1  0.2847672E-003  0.1242035E+03  0.7818608E-02  0.1526041E+00
         11   -1    0    0    0    0  0.00000000000E+00  0.00000000000E+00  0.10003848228E+04  0.10003848228E+04  0.51100000000E-03 0. -1.
         -2   -1    0    0    0  501 -0.00000000000E+00 -0.00000000000E+00 -0.31125531745E+02  0.31125531850E+02  0.25500000000E-02 0. -1.
         11    1    1    2    0    0  0.10245548110E+03  0.54328977372E+02  0.19492580129E+03  0.22681453084E+03  0.51100000000E-03 0. -1.
         22    1    1    2    0    0  0.78736691437E+01  0.82841196502E+01 -0.68196451838E+01  0.13308976843E+02  0.00000000000E+00 0. -1.
         -2    1    1    2    0  501 -0.11032915024E+03 -0.62613097023E+02  0.78115313496E+03  0.79138684698E+03  0.25500000000E-02 0. -1.
<mgrwt>
<rscale>  0 0.37676480E+02</rscale>
<asrwt>0</asrwt>
<pdfrwt beam="1">  1       11 0.10000000E+01 0.12420350E+03</pdfrwt>
<pdfrwt beam="2">  1       -2 0.47903860E-02 0.37676480E+02</pdfrwt>
<totfact> 0.13751054E+03</totfact>
</mgrwt>
</event>
<event>
 5    1  0.2847672E-003  0.2067218E+03  0.7818608E-02  0.1144189E+00
         11   -1    0    0    0    0  0.00000000000E+00  0.00000000000E+00  0.10002036892E+04  0.10002036892E+04  0.51100000000E-03 0. -1.
         -2   -1    0    0    0  501 -0.00000000000E+00 -0.00000000000E+00 -0.41716900941E+02  0.41716901019E+02  0.25500000000E-02 0.  1.
         11    1    1    2    0    0 -0.14765149570E+03  0.13628045175E+03  0.43823525803E+03  0.48210317059E+03  0.51100000000E-03 0. -1.
         22    1    1    2    0    0  0.44985688648E+02 -0.73825267177E+02  0.22629586145E+03  0.24224718609E+03  0.00000000000E+00 0.  1.
         -2    1    1    2    0  501  0.10266580705E+03 -0.62455184578E+02  0.29395566875E+03  0.31757023352E+03  0.25500000000E-02 0.  1.
<mgrwt>
<rscale>  0 0.20672177E+03</rscale>
<asrwt>0</asrwt>
<pdfrwt beam="1">  1       11 0.10000000E+01 0.20093125E+03</pdfrwt>
<pdfrwt beam="2">  1       -2 0.64192919E-02 0.20672177E+03</pdfrwt>
<totfact> 0.10444406E+03</totfact>
</mgrwt>
</event>
<event>
 5    1  0.2847672E-003  0.2013456E+03  0.7818608E-02  0.1376947E+00
         11   -1    0    0    0    0  0.00000000000E+00  0.00000000000E+00  0.10001994452E+04  0.10001994452E+04  0.51100000000E-03 0. -1.
         -2   -1    0    0    0  501 -0.00000000000E+00 -0.00000000000E+00 -0.50970226120E+02  0.50970226184E+02  0.25500000000E-02 0.  1.
         11    1    1    2    0    0 -0.32910658975E+02 -0.19078137342E+03  0.55420711032E+03  0.58704869052E+03  0.51100000000E-03 0. -1.
         22    1    1    2    0    0 -0.69297223643E+01 -0.19993673039E+02  0.10062010533E+02  0.23431006586E+02  0.00000000000E+00 0. -1.
         -2    1    1    2    0  501  0.39840381339E+02  0.21077504646E+03  0.38496009824E+03  0.44068997428E+03  0.25500000000E-02 0.  1.
<mgrwt>
<rscale>  0 0.65273113E+02</rscale>
<asrwt>0</asrwt>
<pdfrwt beam="1">  1       11 0.10000000E+01 0.20134559E+03</pdfrwt>
<pdfrwt beam="2">  1       -2 0.78431370E-02 0.65273113E+02</pdfrwt>
<totfact> 0.70373055E+02</totfact>
</mgrwt>
</event>
<event>
 5    1  0.2847672E-003  0.4614386E+02  0.7818608E-02  0.1467325E+00
         11   -1    0    0    0    0  0.00000000000E+00  0.00000000000E+00  0.10004856632E+04  0.10004856632E+04  0.51100000000E-03 0.  1.
          2   -1    0    0  501    0 -0.00000000000E+00 -0.00000000000E+00 -0.39784724221E+01  0.39784732393E+01  0.25500000000E-02 0.  1.
         11    1    1    2    0    0 -0.10003958703E+02 -0.32718504252E+01  0.50083292598E+02  0.51177342572E+02  0.51100000000E-03 0.  1.
         22    1    1    2    0    0  0.18162400962E+02 -0.42570320817E+02  0.19482843306E+03  0.20025040162E+03  0.00000000000E+00 0.  1.
          2    1    1    2  501    0 -0.81584422597E+01  0.45842171242E+02  0.75159546516E+03  0.75303639228E+03  0.25500000000E-02 0.  1.
<mgrwt>
<rscale>  0 0.46143859E+02</rscale>
<asrwt>0</asrwt>
<pdfrwt beam="1">  1       11 0.10000000E+01 0.10525412E+02</pdfrwt>
<pdfrwt beam="2">  1        2 0.61236999E-03 0.46143859E+02</pdfrwt>
<totfact> 0.26248601E+04</totfact>
</mgrwt>
</event>
<event>
 5    1  0.2847672E-003  0.1186019E+03  0.7818608E-02  0.1245421E+00
         11   -1    0    0    0    0  0.00000000000E+00  0.00000000000E+00  0.10003485999E+04  0.10003485999E+04  0.51100000000E-03 0. -1.
          2   -1    0    0  501    0 -0.00000000000E+00 -0.00000000000E+00 -0.16076500743E+02  0.16076500945E+02  0.25500000000E-02 0. -1.
         11    1    1    2    0    0  0.90129837749E+02 -0.69444081351E+02  0.68715271355E+03  0.69650895172E+03  0.51100000000E-03 0. -1.
         22    1    1    2    0    0 -0.20297401164E+02  0.96661054899E+01  0.30465230344E+02  0.37862228531E+02  0.00000000000E+00 0.  1.
          2    1    1    2  501    0 -0.69832436585E+02  0.59777975861E+02  0.26665415527E+03  0.28205392060E+03  0.25500000000E-02 0. -1.
<mgrwt>
<rscale>  0 0.11860191E+03</rscale>
<asrwt>0</asrwt>
<pdfrwt beam="1">  1       11 0.10000000E+01 0.11377991E+03</pdfrwt>
<pdfrwt beam="2">  1        2 0.24741699E-02 0.11860191E+03</pdfrwt>
<totfact> 0.46097854E+03</totfact>
</mgrwt>
</event>
<event>
 5    1  0.2847672E-003  0.2216557E+03  0.7818608E-02  0.1132655E+00
         11   -1    0    0    0    0  0.00000000000E+00  0.00000000000E+00  0.99988196395E+03  0.99988196395E+03  0.51100000000E-03 0.  1.
         -2   -1    0    0    0  501 -0.00000000000E+00 -0.00000000000E+00 -0.80493880972E+02  0.80493881013E+02  0.25500000000E-02 0. -1.
         11    1    1    2    0    0 -0.18640308300E+03  0.97557185323E+02  0.80283541348E+03  0.82994470593E+03  0.51100000000E-03 0.  1.
         22    1    1    2    0    0  0.52758906902E+02 -0.16204756823E+02 -0.23498621724E+00  0.55191952490E+02  0.00000000000E+00 0. -1.
         -2    1    1    2    0  501  0.13364417610E+03 -0.81352428500E+02  0.11678765572E+03  0.19523918655E+03  0.25500000000E-02 0. -1.
<mgrwt>
<rscale>  0 0.22165566E+03</rscale>
<asrwt>0</asrwt>
<pdfrwt beam="1">  1       11 0.10000000E+01 0.21038896E+03</pdfrwt>
<pdfrwt beam="2">  1       -2 0.12382212E-01 0.22165566E+03</pdfrwt>
<totfact> 0.37253982E+02</totfact>
</mgrwt>
</event>
<event>
 5    1  0.2847672E-003  0.3043511E+03  0.7818608E-02  0.1195518E+00
         11   -1    0    0    0    0  0.00000000000E+00  0.00000000000E+00  0.10003348052E+04  0.10003348052E+04  0.51100000000E-03 0.  1.
          2   -1    0    0  501    0 -0.00000000000E+00 -0.00000000000E+00 -0.19584214065E+03  0.19584214067E+03  0.25500000000E-02 0.  1.
         11    1    1    2    0    0  0.30507224631E+03  0.74518145021E+02  0.78090571645E+03  0.84168626423E+03  0.51100000000E-03 0.  1.
         22    1    1    2    0    0 -0.41633419600E+02 -0.65993786318E+02  0.44949188053E+02  0.90049713862E+02  0.00000000000E+00 0. -1.
          2    1    1    2  501    0 -0.26343882671E+03 -0.85243587036E+01 -0.21362239997E+02  0.26444096773E+03  0.25500000000E-02 0.  1.
<mgrwt>
<rscale>  0 0.15410453E+03</rscale>
<asrwt>0</asrwt>
<pdfrwt beam="1">  1       11 0.10000000E+01 0.30435111E+03</pdfrwt>
<pdfrwt beam="2">  1        2 0.30139647E-01 0.15410453E+03</pdfrwt>
<totfact> 0.21401139E+02</totfact>
</mgrwt>
</event>
<event>
 5    1  0.2847672E-003  0.6224597E+02  0.7818608E-02  0.1585280E+00
         11   -1    0    0    0    0  0.00000000000E+00  0.00000000000E+00  0.10000413656E+04  0.10000413656E+04  0.51100000000E-03 0. -1.
          2   -1    0    0  501    0 -0.00000000000E+00 -0.00000000000E+00 -0.68034400517E+01  0.68034405296E+01  0.25500000000E-02 0. -1.
         11    1    1    2    0    0 -0.29554766103E+02  0.65045102055E+02  0.32232386483E+03  0.33014697233E+03  0.51100000000E-03 0. -1.
         22    1    1    2    0    0 -0.26763259344E+01 -0.15399217097E+02  0.38967510114E+02  0.41985300430E+02  0.00000000000E+00 0. -1.
          2    1    1    2  501    0  0.32231092038E+02 -0.49645884957E+02  0.63194655064E+03  0.63471253341E+03  0.25500000000E-02 0. -1.
<mgrwt>
<rscale>  0 0.31191463E+02</rscale>
<asrwt>0</asrwt>
<pdfrwt beam="1">  1       11 0.10000000E+01 0.62245967E+02</pdfrwt>
<pdfrwt beam="2">  1        2 0.10467264E-02 0.31191463E+02</pdfrwt>
<totfact> 0.11840703E+04</totfact>
</mgrwt>
</event>
<event>
 5    1  0.2847672E-003  0.1960802E+03  0.7818608E-02  0.1153089E+00
         11   -1    0    0    0    0  0.00000000000E+00  0.00000000000E+00  0.10001285341E+04  0.10001285341E+04  0.51100000000E-03 0. -1.
          2   -1    0    0  501    0 -0.00000000000E+00 -0.00000000000E+00 -0.35135364045E+03  0.35135364046E+03  0.25500000000E-02 0. -1.
         11    1    1    2    0    0  0.73664535486E+02 -0.16661878244E+03  0.96355549759E+03  0.98062606501E+03  0.51100000000E-03 0. -1.
         22    1    1    2    0    0 -0.46690305528E+02  0.51078284022E+02 -0.67926595922E+02  0.96969057758E+02  0.00000000000E+00 0.  1.
          2    1    1    2  501    0 -0.26974229957E+02  0.11554049842E+03 -0.24685400801E+03  0.27388705178E+03  0.25500000000E-02 0. -1.
<mgrwt>
<rscale>  0 0.19608015E+03</rscale>
<asrwt>0</asrwt>
<pdfrwt beam="1">  1       11 0.10000000E+01 0.18217651E+03</pdfrwt>
<pdfrwt beam="2">  1        2 0.54061353E-01 0.19608015E+03</pdfrwt>
<totfact> 0.11444983E+02</totfact>
</mgrwt>
</event>
<event>
 5    1  0.2847672E-003  0.2280096E+03  0.7818608E-02  0.1328494E+00
         11   -1    0    0    0    0  0.00000000000E+00  0.00000000000E+00  0.10001130191E+04  0.10001130191E+04  0.51100000000E-03 0.  1.
          2   -1    0    0  501    0 -0.00000000000E+00 -0.00000000000E+00 -0.98569167766E+02  0.98569167799E+02  0.25500000000E-02 0.  1.
         11    1    1    2    0    0 -0.71436760759E+02 -0.20782076453E+03  0.60265502212E+03  0.64147155560E+03  0.51100000000E-03 0.  1.
         22    1    1    2    0    0  0.35503172778E+01 -0.27983002770E+02 -0.33668797419E+02  0.43923127352E+02  0.00000000000E+00 0.  1.
          2    1    1    2  501    0  0.67886443481E+02  0.23580376730E+03  0.33255762666E+03  0.41328750397E+03  0.25500000000E-02 0.  1.
<mgrwt>
<rscale>  0 0.80196897E+02</rscale>
<asrwt>0</asrwt>
<pdfrwt beam="1">  1       11 0.10000000E+01 0.22800965E+03</pdfrwt>
<pdfrwt beam="2">  1        2 0.15166201E-01 0.80196897E+02</pdfrwt>
<totfact> 0.45086066E+02</totfact>
</mgrwt>
</event>
<event>
 5    1  0.2847672E-003  0.5914317E+02  0.7818608E-02  0.1657373E+00
         11   -1    0    0    0    0  0.00000000000E+00  0.00000000000E+00  0.10000265702E+04  0.10000265702E+04  0.51100000000E-03 0.  1.
          2   -1    0    0  501    0 -0.00000000000E+00 -0.00000000000E+00 -0.71569214066E+01  0.71569218608E+01  0.25500000000E-02 0.  1.
         11    1    1    2    0    0  0.60959165791E+02  0.26288604784E+01  0.33567897083E+03  0.34117928170E+03  0.51100000000E-03 0.  1.
         22    1    1    2    0    0 -0.38080507472E+01  0.10089082019E+02  0.63075354584E+01  0.12493031259E+02  0.00000000000E+00 0.  1.
          2    1    1    2  501    0 -0.57151115044E+02 -0.12717942497E+02  0.65088314250E+03  0.65351117910E+03  0.25500000000E-02 0.  1.
<mgrwt>
<rscale>  0 0.25254487E+02</rscale>
<asrwt>0</asrwt>
<pdfrwt beam="1">  1       11 0.10000000E+01 0.59143170E+02</pdfrwt>
<pdfrwt beam="2">  1        2 0.11010941E-02 0.25254487E+02</pdfrwt>
<totfact> 0.10600130E+04</totfact>
</mgrwt>
</event>
<event>
 5    1  0.2847672E-003  0.4319143E+03  0.7818608E-02  0.1334654E+00
         11   -1    0    0    0    0  0.00000000000E+00  0.00000000000E+00  0.99978396063E+03  0.99978396063E+03  0.51100000000E-03 0. -1.
          2   -1    0    0  501    0 -0.00000000000E+00 -0.00000000000E+00 -0.33740442908E+03  0.33740442909E+03  0.25500000000E-02 0.  1.
         11    1    1    2    0    0  0.20805817830E+03 -0.37461240304E+03  0.68417915689E+03  0.80729410799E+03  0.51100000000E-03 0. -1.
         22    1    1    2    0    0  0.60895577351E+01 -0.12725111033E+02 -0.82017938151E+02  0.83222312770E+02  0.00000000000E+00 0.  1.
          2    1    1    2  501    0 -0.21414773603E+03  0.38733751407E+03  0.60218312805E+02  0.44667196896E+03  0.25500000000E-02 0.  1.
<mgrwt>
<rscale>  0 0.78058132E+02</rscale>
<asrwt>0</asrwt>
<pdfrwt beam="1">  1       11 0.10000000E+01 0.43191430E+03</pdfrwt>
<pdfrwt beam="2">  1        2 0.51897158E-01 0.78058132E+02</pdfrwt>
<totfact> 0.11947588E+02</totfact>
</mgrwt>
</event>
<event>
 5    1  0.2847672E-003  0.1592367E+03  0.7818608E-02  0.1189561E+00
         11   -1    0    0    0    0  0.00000000000E+00  0.00000000000E+00  0.10003209943E+04  0.10003209943E+04  0.51100000000E-03 0.  1.
          2   -1    0    0  501    0 -0.00000000000E+00 -0.00000000000E+00 -0.53181752664E+02  0.53181752725E+02  0.25500000000E-02 0.  1.
         11    1    1    2    0    0 -0.85117171837E+01 -0.89446153356E+01 -0.26890029362E+01  0.12636700913E+02  0.51100000000E-03 0.  1.
         22    1    1    2    0    0 -0.36650826891E+02 -0.15310932024E+03  0.13063026308E+03  0.20457275647E+03  0.00000000000E+00 0.  1.
          2    1    1    2  501    0  0.45162544075E+02  0.16205393557E+03  0.81919798150E+03  0.83629328966E+03  0.25500000000E-02 0.  1.
<mgrwt>
<rscale>  0 0.15923673E+03</rscale>
<asrwt>0</asrwt>
<pdfrwt beam="1">  1       11 0.10000000E+01 0.12347292E+02</pdfrwt>
<pdfrwt beam="2">  1        2 0.81844342E-02 0.15923673E+03</pdfrwt>
<totfact> 0.98497376E+02</totfact>
</mgrwt>
</event>
<event>
 5    1  0.2847672E-003  0.1639278E+03  0.7818608E-02  0.1420669E+00
         11   -1    0    0    0    0  0.00000000000E+00  0.00000000000E+00  0.10003691385E+04  0.10003691385E+04  0.51100000000E-03 0. -1.
         -2   -1    0    0    0  501 -0.00000000000E+00 -0.00000000000E+00 -0.51148361528E+02  0.51148361592E+02  0.25500000000E-02 0.  1.
         11    1    1    2    0    0  0.14591160678E+03 -0.68794956976E+02  0.70075838390E+03  0.71908640350E+03  0.51100000000E-03 0. -1.
         22    1    1    2    0    0  0.22279765585E+01 -0.18236933066E+02 -0.10869955363E+02  0.21347260639E+02  0.00000000000E+00 0.  1.
         -2    1    1    2    0  501 -0.14813958334E+03  0.87031890043E+02  0.25933234842E+03  0.31108383594E+03  0.25500000000E-02 0.  1.
<mgrwt>
<rscale>  0 0.54879565E+02</rscale>
<asrwt>0</asrwt>
<pdfrwt beam="1">  1       11 0.10000000E+01 0.16392777E+03</pdfrwt>
<pdfrwt beam="2">  1       -2 0.78718832E-02 0.54879565E+02</pdfrwt>
<totfact> 0.68920215E+02</totfact>
</mgrwt>
</event>
<event>
 5    1  0.2847672E-003  0.1713884E+03  0.7818608E-02  0.1355080E+00
         11   -1    0    0    0    0  0.00000000000E+00  0.00000000000E+00  0.10001929844E+04  0.10001929844E+04  0.51100000000E-03 0.  1.
          2   -1    0    0  501    0 -0.00000000000E+00 -0.00000000000E+00 -0.36346693330E+02  0.36346693420E+02  0.25500000000E-02 0.  1.
         11    1    1    2    0    0 -0.11479379506E+03  0.13011407189E+03  0.37020808822E+03  0.40885366047E+03  0.51100000000E-03 0.  1.
         22    1    1    2    0    0  0.25400146948E+02  0.15631720019E+02  0.55043821527E+02  0.62604635803E+02  0.00000000000E+00 0. -1.
          2    1    1    2  501    0  0.89393648117E+02 -0.14574579191E+03  0.53859438135E+03  0.56508138158E+03  0.25500000000E-02 0.  1.
<mgrwt>
<rscale>  0 0.71495593E+02</rscale>
<asrwt>0</asrwt>
<pdfrwt beam="1">  1       11 0.10000000E+01 0.17138837E+03</pdfrwt>
<pdfrwt beam="2">  1        2 0.55928780E-02 0.71495593E+02</pdfrwt>
<totfact> 0.15003623E+03</totfact>
</mgrwt>
</event>
<event>
 5    1  0.2847672E-003  0.4608069E+02  0.7818608E-02  0.1479674E+00
         11   -1    0    0    0    0  0.00000000000E+00  0.00000000000E+00  0.10002569478E+04  0.10002569478E+04  0.51100000000E-03 0. -1.
         -2   -1    0    0    0  501 -0.00000000000E+00 -0.00000000000E+00 -0.51721249356E+01  0.51721255642E+01  0.25500000000E-02 0. -1.
         11    1    1    2    0    0 -0.17447965183E+01 -0.26706700811E+02  0.72886826289E+02  0.77645229279E+02  0.51100000000E-03 0. -1.
         22    1    1    2    0    0 -0.10318841327E+02 -0.15770384885E+02  0.37356810113E+02  0.41841543800E+02  0.00000000000E+00 0. -1.
         -2    1    1    2    0  501  0.12063637845E+02  0.42477085696E+02  0.88484118649E+03  0.88594230032E+03  0.25500000000E-02 0. -1.
<mgrwt>
<rscale>  0 0.44156927E+02</rscale>
<asrwt>0</asrwt>
<pdfrwt beam="1">  1       11 0.10000000E+01 0.46080685E+02</pdfrwt>
<pdfrwt beam="2">  1       -2 0.79591601E-03 0.44156927E+02</pdfrwt>
<totfact> 0.17546123E+04</totfact>
</mgrwt>
</event>
<event>
 5    1  0.2847672E-003  0.1311216E+03  0.7818608E-02  0.1231513E+00
         11   -1    0    0    0    0  0.00000000000E+00  0.00000000000E+00  0.10003604767E+04  0.10003604767E+04  0.51100000000E-03 0. -1.
          2   -1    0    0  501    0 -0.00000000000E+00 -0.00000000000E+00 -0.16879136053E+02  0.16879136246E+02  0.25500000000E-02 0. -1.
         11    1    1    2    0    0 -0.91284701429E+02 -0.66354344601E+02  0.38243889867E+03  0.39874215601E+03  0.51100000000E-03 0. -1.
         22    1    1    2    0    0 -0.42697393646E+01 -0.17761613443E+02  0.62629437500E+02  0.65239190889E+02  0.00000000000E+00 0.  1.
          2    1    1    2  501    0  0.95554440794E+02  0.84115958044E+02  0.53841300445E+03  0.55325826602E+03  0.25500000000E-02 0. -1.
<mgrwt>
<rscale>  0 0.12730336E+03</rscale>
<asrwt>0</asrwt>
<pdfrwt beam="1">  1       11 0.10000000E+01 0.13112157E+03</pdfrwt>
<pdfrwt beam="2">  1        2 0.25977262E-02 0.12730336E+03</pdfrwt>
<totfact> 0.43504897E+03</totfact>
</mgrwt>
</event>
<event>
 5    1  0.2847672E-003  0.3647581E+02  0.7818608E-02  0.1716675E+00
         11   -1    0    0    0    0  0.00000000000E+00  0.00000000000E+00  0.10000218017E+04  0.10000218017E+04  0.51100000000E-03 0.  1.
          2   -1    0    0  501    0 -0.00000000000E+00 -0.00000000000E+00 -0.85999371648E+01  0.85999375429E+01  0.25500000000E-02 0.  1.
         11    1    1    2    0    0 -0.44654525430E+02 -0.23657537713E+01  0.19574329194E+03  0.20078610453E+03  0.51100000000E-03 0.  1.
         22    1    1    2    0    0  0.10592018970E+02 -0.70020434858E+01  0.14026390260E+01  0.12774461831E+02  0.00000000000E+00 0.  1.
          2    1    1    2  501    0  0.34062506460E+02  0.93677972571E+01  0.79427593358E+03  0.79506117289E+03  0.25500000000E-02 0.  1.
<mgrwt>
<rscale>  0 0.21520716E+02</rscale>
<asrwt>0</asrwt>
<pdfrwt beam="1">  1       11 0.10000000E+01 0.36475805E+02</pdfrwt>
<pdfrwt beam="2">  1        2 0.13230961E-02 0.21520716E+02</pdfrwt>
<totfact> 0.80698121E+03</totfact>
</mgrwt>
</event>
<event>
 5    1  0.2847672E-003  0.7581247E+02  0.7818608E-02  0.1350998E+00
         11   -1    0    0    0    0  0.00000000000E+00  0.00000000000E+00  0.10002326951E+04  0.10002326951E+04  0.51100000000E-03 0. -1.
          2   -1    0    0  501    0 -0.00000000000E+00 -0.00000000000E+00 -0.78470730208E+01  0.78470734351E+01  0.25500000000E-02 0. -1.
         11    1    1    2    0    0 -0.15683886570E+02  0.58622921183E+02  0.20923105866E+03  0.21785377457E+03  0.51100000000E-03 0. -1.
         22    1    1    2    0    0 -0.61800362394E+01  0.10759128357E+02  0.19489465200E+02  0.23103916220E+02  0.00000000000E+00 0. -1.
          2    1    1    2  501    0  0.21863922809E+02 -0.69382049541E+02  0.76366509821E+03  0.76712207773E+03  0.25500000000E-02 0. -1.
<mgrwt>
<rscale>  0 0.72745446E+02</rscale>
<asrwt>0</asrwt>
<pdfrwt beam="1">  1       11 0.10000000E+01 0.75812471E+02</pdfrwt>
<pdfrwt beam="2">  1        2 0.12075229E-02 0.72745446E+02</pdfrwt>
<totfact> 0.11398738E+04</totfact>
</mgrwt>
</event>
<event>
 5    1  0.2847672E-003  0.4714579E+03  0.7818608E-02  0.1021510E+00
         11   -1    0    0    0    0  0.00000000000E+00  0.00000000000E+00  0.10000558411E+04  0.10000558411E+04  0.51100000000E-03 0.  1.
          2   -1    0    0  501    0 -0.00000000000E+00 -0.00000000000E+00 -0.66428127814E+03  0.66428127814E+03  0.25500000000E-02 0.  1.
         11    1    1    2    0    0  0.23278829785E+03 -0.40803404360E+03  0.84722067811E+03  0.96874405792E+03  0.51100000000E-03 0.  1.
         22    1    1    2    0    0 -0.14677232957E+00  0.11751374588E+02 -0.99176989354E+01  0.15377811905E+02  0.00000000000E+00 0.  1.
          2    1    1    2  501    0 -0.23264152552E+03  0.39628266901E+03 -0.50152841626E+03  0.68021524937E+03  0.25500000000E-02 0.  1.
<mgrwt>
<rscale>  0 0.47145793E+03</rscale>
<asrwt>0</asrwt>
<pdfrwt beam="1">  1       11 0.10000000E+01 0.46976821E+03</pdfrwt>
<pdfrwt beam="2">  1        2 0.10220282E+00 0.47145793E+03</pdfrwt>
<totfact> 0.54934076E+01</totfact>
</mgrwt>
</event>
<event>
 5    1  0.2847672E-003  0.6766020E+02  0.7818608E-02  0.1539076E+00
         11   -1    0    0    0    0  0.00000000000E+00  0.00000000000E+00  0.99988114997E+03  0.99988114997E+03  0.51100000000E-03 0.  1.
          2   -1    0    0  501    0 -0.00000000000E+00 -0.00000000000E+00 -0.10081161338E+02  0.10081161661E+02  0.25500000000E-02 0.  1.
         11    1    1    2    0    0 -0.49869895834E+02  0.42404189797E+02  0.16410294990E+03  0.17667738958E+03  0.51100000000E-03 0.  1.
         22    1    1    2    0    0  0.12105153784E+02  0.14976703498E+02  0.38025131374E+02  0.42623315355E+02  0.00000000000E+00 0. -1.
          2    1    1    2  501    0  0.37764742050E+02 -0.57380893295E+02  0.78767190735E+03  0.79066160669E+03  0.25500000000E-02 0.  1.
<mgrwt>
<rscale>  0 0.36096253E+02</rscale>
<asrwt>0</asrwt>
<pdfrwt beam="1">  1       11 0.10000000E+01 0.67660203E+02</pdfrwt>
<pdfrwt beam="2">  1        2 0.15507635E-02 0.36096253E+02</pdfrwt>
<totfact> 0.72560294E+03</totfact>
</mgrwt>
</event>
<event>
 5    1  0.2847672E-003  0.1164363E+03  0.7818608E-02  0.1325996E+00
         11   -1    0    0    0    0  0.00000000000E+00  0.00000000000E+00  0.10003752242E+04  0.10003752242E+04  0.51100000000E-03 0.  1.
          2   -1    0    0  501    0 -0.00000000000E+00 -0.00000000000E+00 -0.44898023445E+02  0.44898023518E+02  0.25500000000E-02 0.  1.
         11    1    1    2    0    0 -0.65108668834E+02  0.87547119102E+02  0.65414166685E+03  0.66317792268E+03  0.51100000000E-03 0.  1.
         22    1    1    2    0    0  0.12770109605E+02  0.55005912033E+02  0.15715224777E+02  0.58614796321E+02  0.00000000000E+00 0.  1.
          2    1    1    2  501    0  0.52338559228E+02 -0.14255303114E+03  0.28562030915E+03  0.32348052874E+03  0.25500000000E-02 0.  1.
<mgrwt>
<rscale>  0 0.81086480E+02</rscale>
<asrwt>0</asrwt>
<pdfrwt beam="1">  1       11 0.10000000E+01 0.11643627E+03</pdfrwt>
<pdfrwt beam="2">  1        2 0.69099798E-02 0.81086480E+02</pdfrwt>
<totfact> 0.11617212E+03</totfact>
</mgrwt>
</event>
<event>
 5    1  0.2847672E-003  0.2041762E+03  0.7818608E-02  0.1292808E+00
         11   -1    0    0    0    0  0.00000000000E+00  0.00000000000E+00  0.10002421716E+04  0.10002421716E+04  0.51100000000E-03 0. -1.
          2   -1    0    0  501    0 -0.00000000000E+00 -0.00000000000E+00 -0.48474946598E+03  0.48474946598E+03  0.25500000000E-02 0. -1.
         11    1    1    2    0    0  0.20481914939E+03  0.18891322118E+02  0.95478450004E+03  0.97668890008E+03  0.51100000000E-03 0. -1.
         22    1    1    2    0    0 -0.36140147512E+02  0.24271168964E+02 -0.23890912567E+03  0.24284309798E+03  0.00000000000E+00 0. -1.
          2    1    1    2  501    0 -0.16867900187E+03 -0.43162491082E+02 -0.20038266871E+03  0.26545963956E+03  0.25500000000E-02 0. -1.
<mgrwt>
<rscale>  0 0.94279290E+02</rscale>
<asrwt>0</asrwt>
<pdfrwt beam="1">  1       11 0.10000000E+01 0.20417619E+03</pdfrwt>
<pdfrwt beam="2">  1        2 0.74594899E-01 0.94279290E+02</pdfrwt>
<totfact> 0.81438002E+01</totfact>
</mgrwt>
</event>
<event>
 5    1  0.2847672E-003  0.2812551E+03  0.7818608E-02  0.1095005E+00
         11   -1    0    0    0    0  0.00000000000E+00  0.00000000000E+00  0.10002691615E+04  0.10002691615E+04  0.51100000000E-03 0. -1.
          2   -1    0    0  501    0 -0.00000000000E+00 -0.00000000000E+00 -0.15634992711E+03  0.15634992713E+03  0.25500000000E-02 0. -1.
         11    1    1    2    0    0  0.17295724789E+03 -0.21760496653E+03  0.82967785389E+03  0.87500369845E+03  0.51100000000E-03 0. -1.
         22    1    1    2    0    0 -0.77607217650E+01  0.12533386367E+02 -0.89786592139E+01  0.17260674883E+02  0.00000000000E+00 0. -1.
          2    1    1    2  501    0 -0.16519652613E+03  0.20507158017E+03  0.23220039686E+02  0.26435471527E+03  0.25500000000E-02 0. -1.
<mgrwt>
<rscale>  0 0.28125506E+03</rscale>
<asrwt>0</asrwt>
<pdfrwt beam="1">  1       11 0.10000000E+01 0.27796786E+03</pdfrwt>
<pdfrwt beam="2">  1        2 0.24060309E-01 0.28125506E+03</pdfrwt>
<totfact> 0.27793701E+02</totfact>
</mgrwt>
</event>
<event>
 5    1  0.2847672E-003  0.4326072E+03  0.7818608E-02  0.1352995E+00
         11   -1    0    0    0    0  0.00000000000E+00  0.00000000000E+00  0.10001549285E+04  0.10001549285E+04  0.51100000000E-03 0. -1.
          2   -1    0    0  501    0 -0.00000000000E+00 -0.00000000000E+00 -0.23585290538E+03  0.23585290540E+03  0.25500000000E-02 0. -1.
         11    1    1    2    0    0 -0.38084057245E+03 -0.20696334293E+03  0.63868025011E+03  0.77187164012E+03  0.51100000000E-03 0. -1.
         22    1    1    2    0    0  0.81080699452E+01 -0.88824190861E+01 -0.64190158535E+01  0.13632385396E+02  0.00000000000E+00 0.  1.
          2    1    1    2  501    0  0.37273250251E+03  0.21584576202E+03  0.13204078881E+03  0.45050380833E+03  0.25500000000E-02 0. -1.
<mgrwt>
<rscale>  0 0.72130275E+02</rscale>
<asrwt>0</asrwt>
<pdfrwt beam="1">  1       11 0.10000000E+01 0.43260718E+03</pdfrwt>
<pdfrwt beam="2">  1        2 0.36290683E-01 0.72130275E+02</pdfrwt>
<totfact> 0.17316545E+02</totfact>
</mgrwt>
</event>
<event>
 5    1  0.2847672E-003  0.5662274E+02  0.7818608E-02  0.1589159E+00
         11   -1    0    0    0    0  0.00000000000E+00  0.00000000000E+00  0.10000792105E+04  0.10000792105E+04  0.51100000000E-03 0.  1.
          2   -1    0    0  501    0 -0.00000000000E+00 -0.00000000000E+00 -0.71110934483E+01  0.71110939055E+01  0.25500000000E-02 0.  1.
         11    1    1    2    0    0 -0.44141079674E+01  0.68061089815E+02  0.27127975659E+03  0.27972218831E+03  0.51100000000E-03 0.  1.
         22    1    1    2    0    0 -0.67315902795E+01 -0.15369969690E+02  0.36565179717E+02  0.40231363931E+02  0.00000000000E+00 0. -1.
          2    1    1    2  501    0  0.11145698247E+02 -0.52691120125E+02  0.68512318077E+03  0.68723675219E+03  0.25500000000E-02 0.  1.
<mgrwt>
<rscale>  0 0.30823668E+02</rscale>
<asrwt>0</asrwt>
<pdfrwt beam="1">  1       11 0.10000000E+01 0.56622737E+02</pdfrwt>
<pdfrwt beam="2">  1        2 0.10941010E-02 0.30823668E+02</pdfrwt>
<totfact> 0.11143030E+04</totfact>
</mgrwt>
</event>
<event>
 5    1  0.1065230E-002  0.2021388E+03  0.7818608E-02  0.1147947E+00
         11   -1    0    0    0    0  0.00000000000E+00  0.00000000000E+00  0.10011207633E+04  0.10011207633E+04  0.51100000000E-03 0. -1.
          2   -1    0    0  501    0 -0.00000000000E+00 -0.00000000000E+00 -0.12727816740E+04  0.12727816740E+04  0.25500000000E-02 0. -1.
         11    1    1    2    0    0  0.79898679528E+02  0.16952350367E+03  0.98419681854E+03  0.10018809285E+04  0.51100000000E-03 0. -1.
         22    1    1    2    0    0 -0.34130337000E+02 -0.20369910215E+02 -0.14851099817E+03  0.15373786041E+03  0.00000000000E+00 0.  1.
          2    1    1    2  501    0 -0.45768342528E+02 -0.14915359346E+03 -0.11073467310E+04  0.11182836484E+04  0.25500000000E-02 0. -1.
<mgrwt>
<rscale>  0 0.20213877E+03</rscale>
<asrwt>0</asrwt>
<pdfrwt beam="1">  1       11 0.10000000E+01 0.18740869E+03</pdfrwt>
<pdfrwt beam="2">  1        2 0.19603202E+00 0.20213877E+03</pdfrwt>
<totfact> 0.23151170E+01</totfact>
</mgrwt>
</event>
<event>
 5    1  0.2847672E-003  0.4127395E+03  0.7818608E-02  0.1263117E+00
         11   -1    0    0    0    0  0.00000000000E+00  0.00000000000E+00  0.99968083872E+03  0.99968083872E+03  0.51100000000E-03 0. -1.
          2   -1    0    0  501    0 -0.00000000000E+00 -0.00000000000E+00 -0.67869588169E+03  0.67869588169E+03  0.25500000000E-02 0. -1.
         11    1    1    2    0    0  0.38739244052E+03 -0.14342155009E+03  0.87549384909E+03  0.96805584746E+03  0.51100000000E-03 0. -1.
         22    1    1    2    0    0 -0.14143411212E+02 -0.24851024065E+02 -0.72259072523E+02  0.77710893957E+02  0.00000000000E+00 0.  1.
          2    1    1    2  501    0 -0.37324902930E+03  0.16827257415E+03 -0.48224981953E+03  0.63260997900E+03  0.25500000000E-02 0. -1.
<mgrwt>
<rscale>  0 0.10863618E+03</rscale>
<asrwt>0</asrwt>
<pdfrwt beam="1">  1       11 0.10000000E+01 0.41273945E+03</pdfrwt>
<pdfrwt beam="2">  1        2 0.10438142E+00 0.10863618E+03</pdfrwt>
<totfact> 0.55818836E+01</totfact>
</mgrwt>
</event>
<event>
 5    1  0.2847672E-003  0.2162952E+03  0.7818608E-02  0.1290702E+00
         11   -1    0    0    0    0  0.00000000000E+00  0.00000000000E+00  0.10004938134E+04  0.10004938134E+04  0.51100000000E-03 0. -1.
         -2   -1    0    0    0  501 -0.00000000000E+00 -0.00000000000E+00 -0.26287843392E+03  0.26287843393E+03  0.25500000000E-02 0.  1.
         11    1    1    2    0    0 -0.22190275070E+03  0.98829509558E+01  0.78912636480E+03  0.81979199991E+03  0.51100000000E-03 0. -1.
         22    1    1    2    0    0  0.12669251038E+03 -0.10224673508E+02 -0.21767742637E+03  0.25206943108E+03  0.00000000000E+00 0.  1.
         -2    1    1    2    0  501  0.95210240322E+02  0.34172255211E+00  0.16616644101E+03  0.19151081631E+03  0.25500000000E-02 0.  1.
<mgrwt>
<rscale>  0 0.95210854E+02</rscale>
<asrwt>0</asrwt>
<pdfrwt beam="1">  1       11 0.10000000E+01 0.21629517E+03</pdfrwt>
<pdfrwt beam="2">  1       -2 0.40462806E-01 0.95210854E+02</pdfrwt>
<totfact> 0.46829714E+01</totfact>
</mgrwt>
</event>
<event>
 5    1  0.2847672E-003  0.8007563E+02  0.7818608E-02  0.1547288E+00
         11   -1    0    0    0    0  0.00000000000E+00  0.00000000000E+00  0.10000331891E+04  0.10000331891E+04  0.51100000000E-03 0.  1.
          2   -1    0    0  501    0 -0.00000000000E+00 -0.00000000000E+00 -0.25906851841E+02  0.25906851967E+02  0.25500000000E-02 0.  1.
         11    1    1    2    0    0 -0.17452141673E+02  0.67966423489E+02  0.14328102313E+03  0.15954141644E+03  0.51100000000E-03 0.  1.
         22    1    1    2    0    0 -0.12487959662E+02  0.90593182643E+01 -0.11979040027E+02  0.19532480229E+02  0.00000000000E+00 0.  1.
          2    1    1    2  501    0  0.29940101334E+02 -0.77025741753E+02  0.84282435414E+03  0.84686614438E+03  0.25500000000E-02 0.  1.
<mgrwt>
<rscale>  0 0.35148242E+02</rscale>
<asrwt>0</asrwt>
<pdfrwt beam="1">  1       11 0.10000000E+01 0.80075630E+02</pdfrwt>
<pdfrwt beam="2">  1        2 0.39858017E-02 0.35148242E+02</pdfrwt>
<totfact> 0.21324677E+03</totfact>
</mgrwt>
</event>
<event>
 5    1  0.2847672E-003  0.3131535E+02  0.7818608E-02  0.1737628E+00
         11   -1    0    0    0    0  0.00000000000E+00  0.00000000000E+00  0.10003270855E+04  0.10003270855E+04  0.51100000000E-03 0.  1.
         -2   -1    0    0    0  501 -0.00000000000E+00 -0.00000000000E+00 -0.33948040989E+01  0.33948050566E+01  0.25500000000E-02 0.  1.
         11    1    1    2    0    0  0.20851928765E+02 -0.43715786550E+01  0.10660610530E+03  0.10871419098E+03  0.51100000000E-03 0.  1.
         22    1    1    2    0    0  0.13108538273E+02 -0.21267805300E+01  0.20075318355E+02  0.24070217659E+02  0.00000000000E+00 0.  1.
         -2    1    1    2    0  501 -0.33960467038E+02  0.64983591850E+01  0.87025085773E+03  0.87093748190E+03  0.25500000000E-02 0.  1.
<mgrwt>
<rscale>  0 0.20392792E+02</rscale>
<asrwt>0</asrwt>
<pdfrwt beam="1">  1       11 0.10000000E+01 0.31315349E+02</pdfrwt>
<pdfrwt beam="2">  1       -2 0.52244844E-03 0.20392792E+02</pdfrwt>
<totfact> 0.25853707E+04</totfact>
</mgrwt>
</event>
<event>
 5    1  0.2847672E-003  0.4321159E+03  0.7818608E-02  0.1033194E+00
         11   -1    0    0    0    0  0.00000000000E+00  0.00000000000E+00  0.10002572622E+04  0.10002572622E+04  0.51100000000E-03 0. -1.
          2   -1    0    0  501    0 -0.00000000000E+00 -0.00000000000E+00 -0.20270193840E+03  0.20270193842E+03  0.25500000000E-02 0. -1.
         11    1    1    2    0    0 -0.36013611470E+03  0.21522740655E+03  0.19802947210E+03  0.46393591094E+03  0.51100000000E-03 0. -1.
         22    1    1    2    0    0  0.66976212539E+02  0.22301422845E+01  0.98699073038E+02  0.11929917686E+03  0.00000000000E+00 0. -1.
          2    1    1    2  501    0  0.29315990216E+03 -0.21745754883E+03  0.50082677865E+03  0.61972411281E+03  0.25500000000E-02 0. -1.
<mgrwt>
<rscale>  0 0.43211593E+03</rscale>
<asrwt>0</asrwt>
<pdfrwt beam="1">  1       11 0.10000000E+01 0.41954861E+03</pdfrwt>
<pdfrwt beam="2">  1        2 0.31192935E-01 0.43211593E+03</pdfrwt>
<totfact> 0.20910909E+02</totfact>
</mgrwt>
</event>
<event>
 5    1  0.2847672E-003  0.1495446E+03  0.7818608E-02  0.1378685E+00
         11   -1    0    0    0    0  0.00000000000E+00  0.00000000000E+00  0.10001900677E+04  0.10001900677E+04  0.51100000000E-03 0. -1.
          2   -1    0    0  501    0 -0.00000000000E+00 -0.00000000000E+00 -0.46062486638E+02  0.46062486709E+02  0.25500000000E-02 0. -1.
         11    1    1    2    0    0  0.62614609425E+02  0.15691532112E+03  0.28312029887E+03  0.32969699869E+03  0.51100000000E-03 0. -1.
         22    1    1    2    0    0  0.29145839541E+00 -0.28086699608E+02 -0.22733683664E+01  0.28180061153E+02  0.00000000000E+00 0. -1.
          2    1    1    2  501    0 -0.62906067821E+02 -0.12882862151E+03  0.67328065060E+03  0.68837549460E+03  0.25500000000E-02 0. -1.
<mgrwt>
<rscale>  0 0.64810781E+02</rscale>
<asrwt>0</asrwt>
<pdfrwt beam="1">  1       11 0.10000000E+01 0.14954457E+03</pdfrwt>
<pdfrwt beam="2">  1        2 0.70878831E-02 0.64810781E+02</pdfrwt>
<totfact> 0.11049851E+03</totfact>
</mgrwt>
</event>
<event>
 5    1  0.2847672E-003  0.1500433E+03  0.7818608E-02  0.1304998E+00
         11   -1    0    0    0    0  0.00000000000E+00  0.00000000000E+00  0.10002752588E+04  0.10002752588E+04  0.51100000000E-03 0. -1.
          2   -1    0    0  501    0 -0.00000000000E+00 -0.00000000000E+00 -0.61275140002E+02  0.61275140055E+02  0.25500000000E-02 0. -1.
         11    1    1    2    0    0  0.81537527943E+02  0.12380719810E+03  0.76870510133E+03  0.78286916121E+03  0.51100000000E-03 0. -1.
         22    1    1    2    0    0 -0.37669100341E+02  0.37188526228E+02  0.31192154487E+02  0.61440199422E+02  0.00000000000E+00 0. -1.
          2    1    1    2  501    0 -0.43868427602E+02 -0.16099572433E+03  0.13910286300E+03  0.21724103824E+03  0.25500000000E-02 0. -1.
<mgrwt>
<rscale>  0 0.89119609E+02</rscale>
<asrwt>0</asrwt>
<pdfrwt beam="1">  1       11 0.10000000E+01 0.15004328E+03</pdfrwt>
<pdfrwt beam="2">  1        2 0.94295392E-02 0.89119609E+02</pdfrwt>
<totfact> 0.79659455E+02</totfact>
</mgrwt>
</event>
<event>
 5    1  0.3494962E-003  0.1706753E+03  0.7818608E-02  0.1478044E+00
         11   -1    0    0    0    0  0.00000000000E+00  0.00000000000E+00  0.10000980235E+04  0.10000980235E+04  0.51100000000E-03 0. -1.
         -2   -1    0    0    0  501 -0.00000000000E+00 -0.00000000000E+00 -0.17829307761E+03  0.17829307763E+03  0.25500000000E-02 0.  1.
         11    1    1    2    0    0 -0.64186287017E+02 -0.15787862545E+03  0.93586801309E+03  0.95125941664E+03  0.51100000000E-03 0. -1.
         22    1    1    2    0    0 -0.11550778852E+02 -0.37318718746E+00 -0.30874580966E+02  0.32966642392E+02  0.00000000000E+00 0. -1.
         -2    1    1    2    0  501  0.75737065869E+02  0.15825181264E+03 -0.83188486189E+02  0.19416504214E+03  0.25500000000E-02 0.  1.
<mgrwt>
<rscale>  0 0.44412403E+02</rscale>
<asrwt>0</asrwt>
<pdfrwt beam="1">  1       11 0.10000000E+01 0.17067532E+03</pdfrwt>
<pdfrwt beam="2">  1       -2 0.27432392E-01 0.44412403E+02</pdfrwt>
<totfact> 0.92691928E+01</totfact>
</mgrwt>
</event>
<event>
 5    1  0.2847672E-003  0.5328095E+02  0.7818608E-02  0.1479896E+00
         11   -1    0    0    0    0  0.00000000000E+00  0.00000000000E+00  0.10004311803E+04  0.10004311803E+04  0.51100000000E-03 0. -1.
          2   -1    0    0  501    0 -0.00000000000E+00 -0.00000000000E+00 -0.12289944665E+02  0.12289944929E+02  0.25500000000E-02 0. -1.
         11    1    1    2    0    0  0.24467901140E+02  0.63040338938E+02  0.27571856958E+03  0.28388992960E+03  0.51100000000E-03 0. -1.
         22    1    1    2    0    0 -0.34422447406E+02 -0.12252736485E+02  0.39071627900E+02  0.53494172987E+02  0.00000000000E+00 0. -1.
          2    1    1    2  501    0  0.99545462662E+01 -0.50787602453E+02  0.67335103813E+03  0.67533702261E+03  0.25500000000E-02 0. -1.
<mgrwt>
<rscale>  0 0.44122387E+02</rscale>
<asrwt>0</asrwt>
<pdfrwt beam="1">  1       11 0.10000000E+01 0.53280952E+02</pdfrwt>
<pdfrwt beam="2">  1        2 0.18915759E-02 0.44122387E+02</pdfrwt>
<totfact> 0.57772515E+03</totfact>
</mgrwt>
</event>
<event>
 5    1  0.2847672E-003  0.2878209E+02  0.7818608E-02  0.1637305E+00
         11   -1    0    0    0    0  0.00000000000E+00  0.00000000000E+00  0.99998207584E+03  0.99998207584E+03  0.51100000000E-03 0. -1.
          2   -1    0    0  501    0 -0.00000000000E+00 -0.00000000000E+00 -0.30745475230E+01  0.30745485805E+01  0.25500000000E-02 0. -1.
         11    1    1    2    0    0  0.14513238930E+02  0.11614190785E+02  0.45595838101E+02  0.49239252474E+02  0.51100000000E-03 0. -1.
         22    1    1    2    0    0  0.10379995424E+01  0.10128626918E+02  0.23381039345E+02  0.25501755374E+02  0.00000000000E+00 0. -1.
          2    1    1    2  501    0 -0.15551238472E+02 -0.21742817704E+02  0.92793065087E+03  0.92831561657E+03  0.25500000000E-02 0. -1.
<mgrwt>
<rscale>  0 0.26731838E+02</rscale>
<asrwt>0</asrwt>
<pdfrwt beam="1">  1       11 0.10000000E+01 0.28782089E+02</pdfrwt>
<pdfrwt beam="2">  1        2 0.47299890E-03 0.26731838E+02</pdfrwt>
<totfact> 0.32625201E+04</totfact>
</mgrwt>
</event>
<event>
 5    1  0.2847672E-003  0.6324693E+02  0.7818608E-02  0.1609590E+00
         11   -1    0    0    0    0  0.00000000000E+00  0.00000000000E+00  0.10000294723E+04  0.10000294723E+04  0.51100000000E-03 0. -1.
          2   -1    0    0  501    0 -0.00000000000E+00 -0.00000000000E+00 -0.15404010457E+02  0.15404010668E+02  0.25500000000E-02 0. -1.
         11    1    1    2    0    0  0.61709036046E+02  0.22636489744E+01  0.75365434607E+02  0.97432427713E+02  0.51100000000E-03 0. -1.
         22    1    1    2    0    0 -0.11555030104E+00  0.13282591277E+02  0.10324277527E+02  0.16823533795E+02  0.00000000000E+00 0. -1.
          2    1    1    2  501    0 -0.61593485745E+02 -0.15546240251E+02  0.89893574972E+03  0.90117752147E+03  0.25500000000E-02 0. -1.
<mgrwt>
<rscale>  0 0.28984729E+02</rscale>
<asrwt>0</asrwt>
<pdfrwt beam="1">  1       11 0.10000000E+01 0.63246931E+02</pdfrwt>
<pdfrwt beam="2">  1        2 0.23699176E-02 0.28984729E+02</pdfrwt>
<totfact> 0.40250052E+03</totfact>
</mgrwt>
</event>
<event>
 5    1  0.2847672E-003  0.6085020E+02  0.7818608E-02  0.1394298E+00
         11   -1    0    0    0    0  0.00000000000E+00  0.00000000000E+00  0.10001256098E+04  0.10001256098E+04  0.51100000000E-03 0. -1.
         -2   -1    0    0    0  501 -0.00000000000E+00 -0.00000000000E+00 -0.56965307129E+02  0.56965307186E+02  0.25500000000E-02 0. -1.
         11    1    1    2    0    0 -0.95874075024E+01  0.47953901378E+02  0.28524334615E+03  0.28940501302E+03  0.51100000000E-03 0. -1.
         22    1    1    2    0    0  0.28283529203E+02  0.52819486249E+02 -0.33546603820E+02  0.68667538034E+02  0.00000000000E+00 0. -1.
         -2    1    1    2    0  501 -0.18696121701E+02 -0.10077338763E+03  0.69146356039E+03  0.69901836597E+03  0.25500000000E-02 0. -1.
<mgrwt>
<rscale>  0 0.60850202E+02</rscale>
<asrwt>0</asrwt>
<pdfrwt beam="1">  1       11 0.10000000E+01 0.48902914E+02</pdfrwt>
<pdfrwt beam="2">  1       -2 0.87649940E-02 0.60850202E+02</pdfrwt>
<totfact> 0.59107664E+02</totfact>
</mgrwt>
</event>
<event>
 5    1  0.2847672E-003  0.9491115E+02  0.7818608E-02  0.1296956E+00
         11   -1    0    0    0    0  0.00000000000E+00  0.00000000000E+00  0.10001062026E+04  0.10001062026E+04  0.51100000000E-03 0. -1.
          2   -1    0    0  501    0 -0.00000000000E+00 -0.00000000000E+00 -0.10335843472E+02  0.10335843786E+02  0.25500000000E-02 0. -1.
         11    1    1    2    0    0 -0.35623054942E+02 -0.71546178784E+02  0.28068893288E+03  0.29184608064E+03  0.51100000000E-03 0. -1.
         22    1    1    2    0    0 -0.27282493285E+01 -0.12606470213E+02  0.23515428590E+02  0.26820548418E+02  0.00000000000E+00 0.  1.
          2    1    1    2  501    0  0.38351304270E+02  0.84152648997E+02  0.68556599764E+03  0.69177541732E+03  0.25500000000E-02 0. -1.
<mgrwt>
<rscale>  0 0.92479678E+02</rscale>
<asrwt>0</asrwt>
<pdfrwt beam="1">  1       11 0.10000000E+01 0.94911153E+02</pdfrwt>
<pdfrwt beam="2">  1        2 0.15902986E-02 0.92479678E+02</pdfrwt>
<totfact> 0.81301711E+03</totfact>
</mgrwt>
</event>
<event>
 5    1  0.2847672E-003  0.1851812E+03  0.7818608E-02  0.1407201E+00
         11   -1    0    0    0    0  0.00000000000E+00  0.00000000000E+00  0.10003206282E+04  0.10003206282E+04  0.51100000000E-03 0. -1.
          2   -1    0    0  501    0 -0.00000000000E+00 -0.00000000000E+00 -0.97236005984E+02  0.97236006018E+02  0.25500000000E-02 0. -1.
         11    1    1    2    0    0  0.90331472269E+02 -0.16298412823E+03  0.86726110322E+03  0.88705435126E+03  0.51100000000E-03 0. -1.
         22    1    1    2    0    0  0.92871970808E+01  0.15483620714E+02 -0.17041824587E+02  0.24827773265E+02  0.00000000000E+00 0. -1.
          2    1    1    2  501    0 -0.99618669349E+02  0.14750050752E+03  0.52865343628E+02  0.18567450973E+03  0.25500000000E-02 0. -1.
<mgrwt>
<rscale>  0 0.57823051E+02</rscale>
<asrwt>0</asrwt>
<pdfrwt beam="1">  1       11 0.10000000E+01 0.18518118E+03</pdfrwt>
<pdfrwt beam="2">  1        2 0.14964182E-01 0.57823051E+02</pdfrwt>
<totfact> 0.45007544E+02</totfact>
</mgrwt>
</event>
<event>
 5    1  0.2847672E-003  0.4974046E+03  0.7818608E-02  0.1282663E+00
         11   -1    0    0    0    0  0.00000000000E+00  0.00000000000E+00  0.99975626024E+03  0.99975626024E+03  0.51100000000E-03 0. -1.
          2   -1    0    0  501    0 -0.00000000000E+00 -0.00000000000E+00 -0.41541596331E+03  0.41541596331E+03  0.25500000000E-02 0. -1.
         11    1    1    2    0    0 -0.46406802014E+02 -0.49948005961E+03  0.69623887289E+03  0.85812731535E+03  0.51100000000E-03 0. -1.
         22    1    1    2    0    0  0.94311853999E+01  0.17247411100E+02 -0.68716433599E+02  0.71472852849E+02  0.00000000000E+00 0. -1.
          2    1    1    2  501    0  0.36975616614E+02  0.48223264851E+03 -0.43182142358E+02  0.48557205536E+03  0.25500000000E-02 0. -1.
<mgrwt>
<rscale>  0 0.98882611E+02</rscale>
<asrwt>0</asrwt>
<pdfrwt beam="1">  1       11 0.10000000E+01 0.49740460E+03</pdfrwt>
<pdfrwt beam="2">  1        2 0.63894569E-01 0.98882611E+02</pdfrwt>
<totfact> 0.96035650E+01</totfact>
</mgrwt>
</event>
<event>
 5    1  0.2847672E-003  0.2106546E+03  0.7818608E-02  0.1435814E+00
         11   -1    0    0    0    0  0.00000000000E+00  0.00000000000E+00  0.10001147085E+04  0.10001147085E+04  0.51100000000E-03 0. -1.
          2   -1    0    0  501    0 -0.00000000000E+00 -0.00000000000E+00 -0.55637888372E+02  0.55637888430E+02  0.25500000000E-02 0. -1.
         11    1    1    2    0    0  0.56639674901E+02 -0.20866133424E+03  0.43399965319E+03  0.48487452413E+03  0.51100000000E-03 0. -1.
         22    1    1    2    0    0 -0.10265096112E+02  0.75502710832E+01 -0.64428442889E+01  0.14278971747E+02  0.00000000000E+00 0. -1.
          2    1    1    2  501    0 -0.46374578789E+02  0.20111106316E+03  0.51692001122E+03  0.55659910105E+03  0.25500000000E-02 0. -1.
<mgrwt>
<rscale>  0 0.51810493E+02</rscale>
<asrwt>0</asrwt>
<pdfrwt beam="1">  1       11 0.10000000E+01 0.21065463E+03</pdfrwt>
<pdfrwt beam="2">  1        2 0.85606568E-02 0.51810493E+02</pdfrwt>
<totfact> 0.86089244E+02</totfact>
</mgrwt>
</event>
<event>
 5    1  0.2847672E-003  0.1550194E+03  0.7818608E-02  0.1194437E+00
         11   -1    0    0    0    0  0.00000000000E+00  0.00000000000E+00  0.10003849238E+04  0.10003849238E+04  0.51100000000E-03 0. -1.
          2   -1    0    0  501    0 -0.00000000000E+00 -0.00000000000E+00 -0.31519410943E+02  0.31519411046E+02  0.25500000000E-02 0. -1.
         11    1    1    2    0    0 -0.69484311156E+02  0.13710894208E+03  0.73789462903E+03  0.75373431330E+03  0.51100000000E-03 0. -1.
         22    1    1    2    0    0  0.35523393059E+01 -0.96837962063E+01  0.81126548533E+01  0.13122888107E+02  0.00000000000E+00 0.  1.
          2    1    1    2  501    0  0.65931971850E+02 -0.12742514587E+03  0.22285822894E+03  0.26504713341E+03  0.25500000000E-02 0. -1.
<mgrwt>
<rscale>  0 0.15501939E+03</rscale>
<asrwt>0</asrwt>
<pdfrwt beam="1">  1       11 0.10000000E+01 0.15371054E+03</pdfrwt>
<pdfrwt beam="2">  1        2 0.48510066E-02 0.15501939E+03</pdfrwt>
<totfact> 0.19273814E+03</totfact>
</mgrwt>
</event>
