<event>
 5    1  0.1851087E-003  0.5335761E+02  0.7818608E-02  0.1595136E+00
         11   -1    0    0    0    0  0.00000000000E+00  0.00000000000E+00  0.10003850314E+04  0.10003850314E+04  0.51100000000E-03 0. -1.
          2   -1    0    0  501    0 -0.00000000000E+00 -0.00000000000E+00 -0.69585528293E+01  0.69585532965E+01  0.25500000000E-02 0. -1.
         11    1    1    2    0    0  0.51982239761E+02  0.48080272331E+02  0.29134641064E+03  0.29982761186E+03  0.51100000000E-03 0. -1.
         22    1    1    2    0    0 -0.40120867744E+02 -0.20232332494E+02  0.22307265658E+03  0.22755316174E+03  0.00000000000E+00 0. -1.
          2    1    1    2  501    0 -0.11861372017E+02 -0.27847939837E+02  0.47900741130E+03  0.47996281105E+03  0.25500000000E-02 0. -1.
<mgrwt>
<rscale>  0 0.30268794E+02</rscale>
<asrwt>0</asrwt>
<pdfrwt beam="1">  1       11 0.10000000E+01 0.53357608E+02</pdfrwt>
<pdfrwt beam="2">  1        2 0.10709588E-02 0.30268794E+02</pdfrwt>
<totfact> 0.11418723E+04</totfact>
</mgrwt>
</event>
<event>
 5    1  0.1851087E-003  0.1245212E+03  0.7818608E-02  0.1377650E+00
         11   -1    0    0    0    0  0.00000000000E+00  0.00000000000E+00  0.10003219047E+04  0.10003219047E+04  0.51100000000E-03 0. -1.
          2   -1    0    0  501    0 -0.00000000000E+00 -0.00000000000E+00 -0.31042711373E+02  0.31042711478E+02  0.25500000000E-02 0. -1.
         11    1    1    2    0    0 -0.12065414425E+03 -0.82901876774E+02  0.36403598412E+03  0.39236761008E+03  0.51100000000E-03 0. -1.
         22    1    1    2    0    0  0.17887691227E+02  0.28936770809E+02  0.14537840984E+02  0.36995337852E+02  0.00000000000E+00 0. -1.
          2    1    1    2  501    0  0.10276645303E+03  0.53965105965E+02  0.59070536823E+03  0.60200166826E+03  0.25500000000E-02 0. -1.
<mgrwt>
<rscale>  0 0.65085414E+02</rscale>
<asrwt>0</asrwt>
<pdfrwt beam="1">  1       11 0.10000000E+01 0.12452124E+03</pdfrwt>
<pdfrwt beam="2">  1        2 0.47773390E-02 0.65085414E+02</pdfrwt>
<totfact> 0.18175248E+03</totfact>
</mgrwt>
</event>
<event>
 5    1  0.1851087E-003  0.3720815E+03  0.7818608E-02  0.1241213E+00
         11   -1    0    0    0    0  0.00000000000E+00  0.00000000000E+00  0.10004203196E+04  0.10004203196E+04  0.51100000000E-03 0. -1.
          2   -1    0    0  501    0 -0.00000000000E+00 -0.00000000000E+00 -0.45924402099E+03  0.45924402100E+03  0.25500000000E-02 0. -1.
         11    1    1    2    0    0 -0.34618907160E+03  0.14658745893E+03  0.86941695967E+03  0.94721729617E+03  0.51100000000E-03 0. -1.
         22    1    1    2    0    0  0.27806933502E+02 -0.27978180528E+02 -0.87690554937E+02  0.96154238397E+02  0.00000000000E+00 0.  1.
          2    1    1    2  501    0  0.31838213809E+03 -0.11860927840E+03 -0.24055010613E+03  0.41629280602E+03  0.25500000000E-02 0. -1.
<mgrwt>
<rscale>  0 0.12114952E+03</rscale>
<asrwt>0</asrwt>
<pdfrwt beam="1">  1       11 0.10000000E+01 0.37208147E+03</pdfrwt>
<pdfrwt beam="2">  1        2 0.70682621E-01 0.12114952E+03</pdfrwt>
<totfact> 0.86056080E+01</totfact>
</mgrwt>
</event>
<event>
 5    1  0.1851087E-003  0.2455905E+03  0.7818608E-02  0.1116124E+00
         11   -1    0    0    0    0  0.00000000000E+00  0.00000000000E+00  0.10005750394E+04  0.10005750394E+04  0.51100000000E-03 0. -1.
          2   -1    0    0  501    0 -0.00000000000E+00 -0.00000000000E+00 -0.31515358027E+03  0.31515358028E+03  0.25500000000E-02 0. -1.
         11    1    1    2    0    0 -0.16763568766E+03  0.17265257357E+03  0.93506433615E+03  0.96553402202E+03  0.51100000000E-03 0. -1.
         22    1    1    2    0    0  0.24176951919E+02 -0.11749409889E+02 -0.12281218767E+02  0.29553374955E+02  0.00000000000E+00 0. -1.
          2    1    1    2  501    0  0.14345873575E+03 -0.16090316368E+03 -0.23736165820E+03  0.32064122276E+03  0.25500000000E-02 0. -1.
<mgrwt>
<rscale>  0 0.24559049E+03</rscale>
<asrwt>0</asrwt>
<pdfrwt beam="1">  1       11 0.10000000E+01 0.24064629E+03</pdfrwt>
<pdfrwt beam="2">  1        2 0.48513046E-01 0.24559049E+03</pdfrwt>
<totfact> 0.12858044E+02</totfact>
</mgrwt>
</event>
<event>
 5    1  0.1851087E-003  0.6212488E+02  0.7818608E-02  0.1510670E+00
         11   -1    0    0    0    0  0.00000000000E+00  0.00000000000E+00  0.99971706040E+03  0.99971706040E+03  0.51100000000E-03 0. -1.
          2   -1    0    0  501    0 -0.00000000000E+00 -0.00000000000E+00 -0.91374220625E+01  0.91374224183E+01  0.25500000000E-02 0. -1.
         11    1    1    2    0    0  0.21126421271E+02  0.69205701486E+02  0.42812301954E+03  0.43419474278E+03  0.51100000000E-03 0. -1.
         22    1    1    2    0    0  0.12552937222E+02 -0.48247740585E+02  0.11365310888E+03  0.12410660684E+03  0.00000000000E+00 0. -1.
          2    1    1    2  501    0 -0.33679358493E+02 -0.20957960901E+02  0.44880350992E+03  0.45055313320E+03  0.25500000000E-02 0. -1.
<mgrwt>
<rscale>  0 0.39667812E+02</rscale>
<asrwt>0</asrwt>
<pdfrwt beam="1">  1       11 0.10000000E+01 0.62124880E+02</pdfrwt>
<pdfrwt beam="2">  1        2 0.14053595E-02 0.39667812E+02</pdfrwt>
<totfact> 0.84012294E+03</totfact>
</mgrwt>
</event>
<event>
 5    1  0.1851087E-003  0.2956590E+03  0.7818608E-02  0.1280893E+00
         11   -1    0    0    0    0  0.00000000000E+00  0.00000000000E+00  0.99987650866E+03  0.99987650866E+03  0.51100000000E-03 0. -1.
         -2   -1    0    0    0  501 -0.00000000000E+00 -0.00000000000E+00 -0.84946351969E+03  0.84946351969E+03  0.25500000000E-02 0.  1.
         11    1    1    2    0    0  0.11781417170E+03 -0.27080481435E+03  0.94118551947E+03  0.98643074191E+03  0.51100000000E-03 0. -1.
         22    1    1    2    0    0 -0.24184932536E+02 -0.23370020559E+02 -0.48717032569E+02  0.59198125689E+02  0.00000000000E+00 0. -1.
         -2    1    1    2    0  501 -0.93629239161E+02  0.29417483491E+03 -0.74205549792E+03  0.80371116076E+03  0.25500000000E-02 0.  1.
<mgrwt>
<rscale>  0 0.99716677E+02</rscale>
<asrwt>0</asrwt>
<pdfrwt beam="1">  1       11 0.10000000E+01 0.29565898E+03</pdfrwt>
<pdfrwt beam="2">  1       -2 0.13067055E+00 0.99716677E+02</pdfrwt>
<totfact> 0.38137616E+00</totfact>
</mgrwt>
</event>
<event>
 5    1  0.1851087E-003  0.1205133E+03  0.7818608E-02  0.1494283E+00
         11   -1    0    0    0    0  0.00000000000E+00  0.00000000000E+00  0.10003680995E+04  0.10003680995E+04  0.51100000000E-03 0.  1.
          2   -1    0    0  501    0 -0.00000000000E+00 -0.00000000000E+00 -0.18510162826E+02  0.18510163001E+02  0.25500000000E-02 0.  1.
         11    1    1    2    0    0  0.76321560259E+02 -0.98055090031E+02  0.64077794952E+03  0.65271445659E+03  0.51100000000E-03 0.  1.
         22    1    1    2    0    0  0.21344665464E+01  0.14450868776E+02  0.17070219033E+02  0.22467219091E+02  0.00000000000E+00 0. -1.
          2    1    1    2  501    0 -0.78456026805E+02  0.83604221254E+02  0.32400976815E+03  0.34369658685E+03  0.25500000000E-02 0.  1.
<mgrwt>
<rscale>  0 0.41957321E+02</rscale>
<asrwt>0</asrwt>
<pdfrwt beam="1">  1       11 0.10000000E+01 0.12051332E+03</pdfrwt>
<pdfrwt beam="2">  1        2 0.28487655E-02 0.41957321E+02</pdfrwt>
<totfact> 0.33574281E+03</totfact>
</mgrwt>
</event>
<event>
 5    1  0.1851087E-003  0.1676994E+03  0.7818608E-02  0.1253768E+00
         11   -1    0    0    0    0  0.00000000000E+00  0.00000000000E+00  0.10003633426E+04  0.10003633426E+04  0.51100000000E-03 0. -1.
         -2   -1    0    0    0  501 -0.00000000000E+00 -0.00000000000E+00 -0.18315974185E+03  0.18315974186E+03  0.25500000000E-02 0.  1.
         11    1    1    2    0    0 -0.15268684435E+03 -0.40299512707E+02  0.73742489928E+03  0.75414375635E+03  0.51100000000E-03 0. -1.
         22    1    1    2    0    0 -0.76796633018E+02 -0.75246991256E+01 -0.10541380992E+03  0.13063849074E+03  0.00000000000E+00 0.  1.
         -2    1    1    2    0  501  0.22948347737E+03  0.47824211833E+02  0.18519251136E+03  0.29874083734E+03  0.25500000000E-02 0.  1.
<mgrwt>
<rscale>  0 0.11375598E+03</rscale>
<asrwt>0</asrwt>
<pdfrwt beam="1">  1       11 0.10000000E+01 0.16769941E+03</pdfrwt>
<pdfrwt beam="2">  1       -2 0.28188659E-01 0.11375598E+03</pdfrwt>
<totfact> 0.90855314E+01</totfact>
</mgrwt>
</event>
<event>
 5    1  0.1851087E-003  0.1233778E+03  0.7818608E-02  0.1237626E+00
         11   -1    0    0    0    0  0.00000000000E+00  0.00000000000E+00  0.10000767696E+04  0.10000767696E+04  0.51100000000E-03 0.  1.
          2   -1    0    0  501    0 -0.00000000000E+00 -0.00000000000E+00 -0.14600840563E+02  0.14600840785E+02  0.25500000000E-02 0. -1.
         11    1    1    2    0    0 -0.11757592112E+03  0.15237792261E+01  0.44201788460E+03  0.45739067484E+03  0.51100000000E-03 0.  1.
         22    1    1    2    0    0  0.39466108655E+02  0.56109870611E+01  0.11510956981E+03  0.12181654227E+03  0.00000000000E+00 0.  1.
          2    1    1    2  501    0  0.78109812465E+02 -0.71347662872E+01  0.42834847463E+03  0.43547039328E+03  0.25500000000E-02 0. -1.
<mgrwt>
<rscale>  0 0.12337780E+03</rscale>
<asrwt>0</asrwt>
<pdfrwt beam="1">  1       11 0.10000000E+01 0.11758585E+03</pdfrwt>
<pdfrwt beam="2">  1        2 0.22464556E-02 0.12337780E+03</pdfrwt>
<totfact> 0.52766903E+03</totfact>
</mgrwt>
</event>
<event>
 5    1  0.1851087E-003  0.1038217E+03  0.7818608E-02  0.1272459E+00
         11   -1    0    0    0    0  0.00000000000E+00  0.00000000000E+00  0.10002755753E+04  0.10002755753E+04  0.51100000000E-03 0.  1.
          2   -1    0    0  501    0 -0.00000000000E+00 -0.00000000000E+00 -0.10718536849E+02  0.10718537152E+02  0.25500000000E-02 0.  1.
         11    1    1    2    0    0 -0.79352946855E+02 -0.60645962352E+02  0.39438073063E+03  0.40683041137E+03  0.51100000000E-03 0.  1.
         22    1    1    2    0    0  0.14638974346E+02 -0.10205202304E+00  0.66925457103E+02  0.68507859352E+02  0.00000000000E+00 0.  1.
          2    1    1    2  501    0  0.64713972509E+02  0.60748014375E+02  0.52825085077E+03  0.53565584178E+03  0.25500000000E-02 0.  1.
<mgrwt>
<rscale>  0 0.10382168E+03</rscale>
<asrwt>0</asrwt>
<pdfrwt beam="1">  1       11 0.10000000E+01 0.99874085E+02</pdfrwt>
<pdfrwt beam="2">  1        2 0.16494601E-02 0.10382168E+03</pdfrwt>
<totfact> 0.78585484E+03</totfact>
</mgrwt>
</event>
<event>
 5    1  0.1851087E-003  0.1698460E+03  0.7818608E-02  0.1335346E+00
         11   -1    0    0    0    0  0.00000000000E+00  0.00000000000E+00  0.10003857440E+04  0.10003857440E+04  0.51100000000E-03 0.  1.
          2   -1    0    0  501    0 -0.00000000000E+00 -0.00000000000E+00 -0.12430240358E+04  0.12430240358E+04  0.25500000000E-02 0.  1.
         11    1    1    2    0    0 -0.15819313947E+03 -0.61775090510E+02  0.97940597220E+03  0.99402076918E+03  0.51100000000E-03 0.  1.
         22    1    1    2    0    0 -0.15788779214E+02  0.31972241451E+02 -0.37431907337E+02  0.51697751009E+02  0.00000000000E+00 0.  1.
          2    1    1    2  501    0  0.17398191869E+03  0.29802849059E+02 -0.11846123566E+04  0.11976912596E+04  0.25500000000E-02 0.  1.
<mgrwt>
<rscale>  0 0.77822923E+02</rscale>
<asrwt>0</asrwt>
<pdfrwt beam="1">  1       11 0.10000000E+01 0.16984596E+03</pdfrwt>
<pdfrwt beam="2">  1        2 0.19130823E+00 0.77822923E+02</pdfrwt>
<totfact> 0.25608864E+01</totfact>
</mgrwt>
</event>
<event>
 5    1  0.1851087E-003  0.2171837E+03  0.7818608E-02  0.1266370E+00
         11   -1    0    0    0    0  0.00000000000E+00  0.00000000000E+00  0.10002607596E+04  0.10002607596E+04  0.51100000000E-03 0. -1.
         -2   -1    0    0    0  501 -0.00000000000E+00 -0.00000000000E+00 -0.10327260546E+03  0.10327260549E+03  0.25500000000E-02 0.  1.
         11    1    1    2    0    0 -0.20784272349E+03  0.78797659410E+02  0.80827182135E+03  0.83827859690E+03  0.51100000000E-03 0. -1.
         22    1    1    2    0    0  0.12586505251E+02 -0.51116650649E+02  0.22166632689E+02  0.57119976302E+02  0.00000000000E+00 0.  1.
         -2    1    1    2    0  501  0.19525621824E+03 -0.27681008762E+02  0.66549700110E+02  0.20813479189E+03  0.25500000000E-02 0.  1.
<mgrwt>
<rscale>  0 0.10692659E+03</rscale>
<asrwt>0</asrwt>
<pdfrwt beam="1">  1       11 0.10000000E+01 0.21718367E+03</pdfrwt>
<pdfrwt beam="2">  1       -2 0.15892236E-01 0.10692659E+03</pdfrwt>
<totfact> 0.24005552E+02</totfact>
</mgrwt>
</event>
<event>
 5    1  0.1851087E-003  0.1931157E+03  0.7818608E-02  0.1155681E+00
         11   -1    0    0    0    0  0.00000000000E+00  0.00000000000E+00  0.10003032943E+04  0.10003032943E+04  0.51100000000E-03 0.  1.
         -2   -1    0    0    0  501 -0.00000000000E+00 -0.00000000000E+00 -0.49016110238E+03  0.49016110238E+03  0.25500000000E-02 0. -1.
         11    1    1    2    0    0  0.96658424107E+02  0.14440355404E+03  0.97328359869E+03  0.98867396084E+03  0.51100000000E-03 0.  1.
         22    1    1    2    0    0 -0.53720235505E+02 -0.14332680524E+02 -0.11723791849E+03  0.12975368575E+03  0.00000000000E+00 0.  1.
         -2    1    1    2    0  501 -0.42938188602E+02 -0.13007087351E+03 -0.34590348830E+03  0.37203675007E+03  0.25500000000E-02 0. -1.
<mgrwt>
<rscale>  0 0.19311571E+03</rscale>
<asrwt>0</asrwt>
<pdfrwt beam="1">  1       11 0.10000000E+01 0.17376777E+03</pdfrwt>
<pdfrwt beam="2">  1       -2 0.75432269E-01 0.19311571E+03</pdfrwt>
<totfact> 0.13249870E+01</totfact>
</mgrwt>
</event>
<event>
 5    1  0.1851087E-003  0.1651560E+03  0.7818608E-02  0.1182996E+00
         11   -1    0    0    0    0  0.00000000000E+00  0.00000000000E+00  0.99985475310E+03  0.99985475310E+03  0.51100000000E-03 0. -1.
          2   -1    0    0  501    0 -0.00000000000E+00 -0.00000000000E+00 -0.32829122939E+02  0.32829123038E+02  0.25500000000E-02 0. -1.
         11    1    1    2    0    0  0.54836213447E+02 -0.15167106085E+03  0.70296200497E+03  0.72122583248E+03  0.51100000000E-03 0. -1.
         22    1    1    2    0    0 -0.10241395857E+02  0.22559028637E+02  0.20292376312E+02  0.32024623316E+02  0.00000000000E+00 0.  1.
          2    1    1    2  501    0 -0.44594817590E+02  0.12911203221E+03  0.24377124888E+03  0.27943342034E+03  0.25500000000E-02 0. -1.
<mgrwt>
<rscale>  0 0.16515603E+03</rscale>
<asrwt>0</asrwt>
<pdfrwt beam="1">  1       11 0.10000000E+01 0.16127964E+03</pdfrwt>
<pdfrwt beam="2">  1        2 0.50499006E-02 0.16515603E+03</pdfrwt>
<totfact> 0.18375773E+03</totfact>
</mgrwt>
</event>
<event>
 5    1  0.1851087E-003  0.2167390E+03  0.7818608E-02  0.1136338E+00
         11   -1    0    0    0    0  0.00000000000E+00  0.00000000000E+00  0.10003161965E+04  0.10003161965E+04  0.51100000000E-03 0. -1.
         -2   -1    0    0    0  501 -0.00000000000E+00 -0.00000000000E+00 -0.24448252758E+03  0.24448252759E+03  0.25500000000E-02 0.  1.
         11    1    1    2    0    0 -0.19343017766E+03 -0.76560509943E+02  0.93854369730E+03  0.96132253539E+03  0.51100000000E-03 0. -1.
         22    1    1    2    0    0  0.42220955277E+02 -0.85891113621E+01 -0.32675104502E+02  0.54074433448E+02  0.00000000000E+00 0. -1.
         -2    1    1    2    0  501  0.15120922238E+03  0.85149621305E+02 -0.15003492385E+03  0.22940175527E+03  0.25500000000E-02 0.  1.
<mgrwt>
<rscale>  0 0.21673900E+03</rscale>
<asrwt>0</asrwt>
<pdfrwt beam="1">  1       11 0.10000000E+01 0.20803064E+03</pdfrwt>
<pdfrwt beam="2">  1       -2 0.37624588E-01 0.21673900E+03</pdfrwt>
<totfact> 0.54055053E+01</totfact>
</mgrwt>
</event>
<event>
 5    1  0.1851087E-003  0.1251630E+03  0.7818608E-02  0.1234815E+00
         11   -1    0    0    0    0  0.00000000000E+00  0.00000000000E+00  0.10001064909E+04  0.10001064909E+04  0.51100000000E-03 0. -1.
          2   -1    0    0  501    0 -0.00000000000E+00 -0.00000000000E+00 -0.18193596057E+02  0.18193596236E+02  0.25500000000E-02 0. -1.
         11    1    1    2    0    0  0.11019003776E+03  0.46206337179E+02  0.69613371022E+03  0.70631367856E+03  0.51100000000E-03 0. -1.
         22    1    1    2    0    0 -0.33523847502E+02 -0.59663567932E+01  0.47347835781E+02  0.58320350804E+02  0.00000000000E+00 0. -1.
          2    1    1    2  501    0 -0.76666190254E+02 -0.40239980385E+02  0.23843134886E+03  0.25366605779E+03  0.25500000000E-02 0. -1.
<mgrwt>
<rscale>  0 0.12516300E+03</rscale>
<asrwt>0</asrwt>
<pdfrwt beam="1">  1       11 0.10000000E+01 0.11948586E+03</pdfrwt>
<pdfrwt beam="2">  1        2 0.27993128E-02 0.12516300E+03</pdfrwt>
<totfact> 0.39265198E+03</totfact>
</mgrwt>
</event>
<event>
 5    1  0.1851087E-003  0.1758366E+03  0.7818608E-02  0.1610782E+00
         11   -1    0    0    0    0  0.00000000000E+00  0.00000000000E+00  0.10004459893E+04  0.10004459893E+04  0.51100000000E-03 0. -1.
          2   -1    0    0  501    0 -0.00000000000E+00 -0.00000000000E+00 -0.17434694580E+03  0.17434694582E+03  0.25500000000E-02 0. -1.
         11    1    1    2    0    0  0.17681632826E+02  0.17599510566E+03  0.91783822234E+03  0.93472665509E+03  0.51100000000E-03 0. -1.
         22    1    1    2    0    0 -0.35429720816E+02 -0.15320923212E+03 -0.12140383142E+03  0.19866359557E+03  0.00000000000E+00 0. -1.
          2    1    1    2  501    0  0.17748087990E+02 -0.22785873541E+02  0.29664652548E+02  0.41402684425E+02  0.25500000000E-02 0. -1.
<mgrwt>
<rscale>  0 0.28882359E+02</rscale>
<asrwt>0</asrwt>
<pdfrwt beam="1">  1       11 0.10000000E+01 0.17583661E+03</pdfrwt>
<pdfrwt beam="2">  1        2 0.26834569E-01 0.28882359E+02</pdfrwt>
<totfact> 0.23071321E+02</totfact>
</mgrwt>
</event>
<event>
 5    1  0.3045181E-003  0.2456471E+03  0.7818608E-02  0.1116087E+00
         11   -1    0    0    0    0  0.00000000000E+00  0.00000000000E+00  0.10000332904E+04  0.10000332904E+04  0.51100000000E-03 0. -1.
          2   -1    0    0  501    0 -0.00000000000E+00 -0.00000000000E+00 -0.50668353380E+03  0.50668353381E+03  0.25500000000E-02 0. -1.
         11    1    1    2    0    0  0.23579859387E+03  0.65394293959E+02  0.95388095989E+03  0.98476711775E+03  0.51100000000E-03 0. -1.
         22    1    1    2    0    0 -0.11003775805E+02 -0.44342608516E+01 -0.14220597000E+02  0.18519479753E+02  0.00000000000E+00 0. -1.
          2    1    1    2  501    0 -0.22479481807E+03 -0.60960033107E+02 -0.44631060629E+03  0.50343022671E+03  0.25500000000E-02 0. -1.
<mgrwt>
<rscale>  0 0.24564712E+03</rscale>
<asrwt>0</asrwt>
<pdfrwt beam="1">  1       11 0.10000000E+01 0.24469857E+03</pdfrwt>
<pdfrwt beam="2">  1        2 0.77953906E-01 0.24564712E+03</pdfrwt>
<totfact> 0.76505485E+01</totfact>
</mgrwt>
</event>
<event>
 5    1  0.1851087E-003  0.2581646E+03  0.7818608E-02  0.1343646E+00
         11   -1    0    0    0    0  0.00000000000E+00  0.00000000000E+00  0.10005098071E+04  0.10005098071E+04  0.51100000000E-03 0. -1.
          2   -1    0    0  501    0 -0.00000000000E+00 -0.00000000000E+00 -0.12675136148E+03  0.12675136151E+03  0.25500000000E-02 0. -1.
         11    1    1    2    0    0  0.11540690047E+02 -0.26260298626E+03  0.70950012500E+03  0.75662668688E+03  0.51100000000E-03 0. -1.
         22    1    1    2    0    0 -0.81468901399E+02  0.23529082398E+03  0.89241591689E+02  0.26450522761E+03  0.00000000000E+00 0. -1.
          2    1    1    2  501    0  0.69928211352E+02  0.27312162280E+02  0.75016728894E+02  0.10612925408E+03  0.25500000000E-02 0. -1.
<mgrwt>
<rscale>  0 0.75072691E+02</rscale>
<asrwt>0</asrwt>
<pdfrwt beam="1">  1       11 0.10000000E+01 0.25816460E+03</pdfrwt>
<pdfrwt beam="2">  1        2 0.19510150E-01 0.75072691E+02</pdfrwt>
<totfact> 0.33805301E+02</totfact>
</mgrwt>
</event>
<event>
 5    1  0.1851087E-003  0.1467089E+03  0.7818608E-02  0.1257275E+00
         11   -1    0    0    0    0  0.00000000000E+00  0.00000000000E+00  0.10000928598E+04  0.10000928598E+04  0.51100000000E-03 0. -1.
          2   -1    0    0  501    0 -0.00000000000E+00 -0.00000000000E+00 -0.64313289856E+02  0.64313289907E+02  0.25500000000E-02 0. -1.
         11    1    1    2    0    0 -0.15004390485E+03 -0.81293586591E+02  0.76104470861E+03  0.77994286272E+03  0.51100000000E-03 0. -1.
         22    1    1    2    0    0  0.38674464758E+02  0.75910987316E+02  0.10335449235E+02  0.85819658183E+02  0.00000000000E+00 0. -1.
          2    1    1    2  501    0  0.11136944009E+03  0.53825992744E+01  0.16439941211E+03  0.19864362882E+03  0.25500000000E-02 0. -1.
<mgrwt>
<rscale>  0 0.11179834E+03</rscale>
<asrwt>0</asrwt>
<pdfrwt beam="1">  1       11 0.10000000E+01 0.14670890E+03</pdfrwt>
<pdfrwt beam="2">  1        2 0.98952708E-02 0.11179834E+03</pdfrwt>
<totfact> 0.76189051E+02</totfact>
</mgrwt>
</event>
<event>
 5    1  0.1851087E-003  0.1849121E+03  0.7818608E-02  0.1240252E+00
         11   -1    0    0    0    0  0.00000000000E+00  0.00000000000E+00  0.10003281836E+04  0.10003281836E+04  0.51100000000E-03 0.  1.
          2   -1    0    0  501    0 -0.00000000000E+00 -0.00000000000E+00 -0.22015590985E+03  0.22015590987E+03  0.25500000000E-02 0.  1.
         11    1    1    2    0    0 -0.17075912869E+03  0.73499506829E+02  0.90402485019E+03  0.92294191978E+03  0.51100000000E-03 0.  1.
         22    1    1    2    0    0  0.48492583341E+02  0.63817188378E+02 -0.87578094759E+01  0.80627931875E+02  0.00000000000E+00 0.  1.
          2    1    1    2  501    0  0.12226654534E+03 -0.13731669521E+03 -0.11509476699E+03  0.21691424178E+03  0.25500000000E-02 0.  1.
<mgrwt>
<rscale>  0 0.12174098E+03</rscale>
<asrwt>0</asrwt>
<pdfrwt beam="1">  1       11 0.10000000E+01 0.18491208E+03</pdfrwt>
<pdfrwt beam="2">  1        2 0.33881255E-01 0.12174098E+03</pdfrwt>
<totfact> 0.18788357E+02</totfact>
</mgrwt>
</event>
<event>
 5    1  0.1851087E-003  0.7176636E+02  0.7818608E-02  0.1354187E+00
         11   -1    0    0    0    0  0.00000000000E+00  0.00000000000E+00  0.99969951222E+03  0.99969951222E+03  0.51100000000E-03 0. -1.
          2   -1    0    0  501    0 -0.00000000000E+00 -0.00000000000E+00 -0.54886819896E+01  0.54886825820E+01  0.25500000000E-02 0. -1.
         11    1    1    2    0    0  0.66324758761E+02  0.17875652071E+02  0.32752351380E+03  0.33464931593E+03  0.51100000000E-03 0. -1.
         22    1    1    2    0    0 -0.69163888637E+01 -0.73208812955E+01  0.57970368818E+02  0.58838723633E+02  0.00000000000E+00 0.  1.
          2    1    1    2  501    0 -0.59408369897E+02 -0.10554770776E+02  0.60871694762E+03  0.61170015524E+03  0.25500000000E-02 0. -1.
<mgrwt>
<rscale>  0 0.71766358E+02</rscale>
<asrwt>0</asrwt>
<pdfrwt beam="1">  1       11 0.10000000E+01 0.68691464E+02</pdfrwt>
<pdfrwt beam="2">  1        2 0.84415890E-03 0.71766358E+02</pdfrwt>
<totfact> 0.18499227E+04</totfact>
</mgrwt>
</event>
<event>
 5    1  0.1851087E-003  0.9715671E+03  0.7818608E-02  0.9340291E-01
         11   -1    0    0    0    0  0.00000000000E+00  0.00000000000E+00  0.10006079130E+04  0.10006079130E+04  0.51100000000E-03 0.  1.
          2   -1    0    0  501    0 -0.00000000000E+00 -0.00000000000E+00 -0.16007470446E+04  0.16007470446E+04  0.25500000000E-02 0.  1.
         11    1    1    2    0    0 -0.55203573908E+03 -0.76721680195E+03  0.55175244635E+03  0.10944385960E+04  0.51100000000E-03 0.  1.
         22    1    1    2    0    0  0.16687287348E+03  0.83878611808E+02 -0.20501961437E+03  0.27733593293E+03  0.00000000000E+00 0. -1.
          2    1    1    2  501    0  0.38516286561E+03  0.68333819015E+03 -0.94687196359E+03  0.12295804287E+04  0.25500000000E-02 0.  1.
<mgrwt>
<rscale>  0 0.97156714E+03</rscale>
<asrwt>0</asrwt>
<pdfrwt beam="1">  1       11 0.10000000E+01 0.94517992E+03</pdfrwt>
<pdfrwt beam="2">  1        2 0.24641848E+00 0.97156714E+03</pdfrwt>
<totfact> 0.13719111E+01</totfact>
</mgrwt>
</event>
<event>
 5    1  0.1851087E-003  0.1188283E+03  0.7818608E-02  0.1268220E+00
         11   -1    0    0    0    0  0.00000000000E+00  0.00000000000E+00  0.10001228501E+04  0.10001228501E+04  0.51100000000E-03 0. -1.
          2   -1    0    0  501    0 -0.00000000000E+00 -0.00000000000E+00 -0.12904075546E+02  0.12904075798E+02  0.25500000000E-02 0. -1.
         11    1    1    2    0    0 -0.66705282794E+02 -0.37022537546E+02  0.26849372635E+03  0.27912209538E+03  0.51100000000E-03 0. -1.
         22    1    1    2    0    0 -0.40381977362E+01 -0.41876527788E+02  0.17933063590E+03  0.18419942343E+03  0.00000000000E+00 0.  1.
          2    1    1    2  501    0  0.70743480530E+02  0.78899065334E+02  0.53939441225E+03  0.54970540703E+03  0.25500000000E-02 0. -1.
<mgrwt>
<rscale>  0 0.10597029E+03</rscale>
<asrwt>0</asrwt>
<pdfrwt beam="1">  1       11 0.10000000E+01 0.11882832E+03</pdfrwt>
<pdfrwt beam="2">  1        2 0.19854862E-02 0.10597029E+03</pdfrwt>
<totfact> 0.61252672E+03</totfact>
</mgrwt>
</event>
<event>
 5    1  0.1851087E-003  0.1059842E+03  0.7818608E-02  0.1268193E+00
         11   -1    0    0    0    0  0.00000000000E+00  0.00000000000E+00  0.10004902902E+04  0.10004902902E+04  0.51100000000E-03 0.  1.
          2   -1    0    0  501    0 -0.00000000000E+00 -0.00000000000E+00 -0.11609292599E+02  0.11609292879E+02  0.25500000000E-02 0.  1.
         11    1    1    2    0    0 -0.10111156956E+03  0.68344846462E+01  0.34581888132E+03  0.36036225990E+03  0.51100000000E-03 0.  1.
         22    1    1    2    0    0  0.50059724555E+02 -0.10940550895E+02  0.23824513632E+03  0.24369328398E+03  0.00000000000E+00 0. -1.
          2    1    1    2  501    0  0.51051845006E+02  0.41060662486E+01  0.40481698000E+03  0.40804403924E+03  0.25500000000E-02 0.  1.
<mgrwt>
<rscale>  0 0.10598421E+03</rscale>
<asrwt>0</asrwt>
<pdfrwt beam="1">  1       11 0.10000000E+01 0.10134234E+03</pdfrwt>
<pdfrwt beam="2">  1        2 0.17869207E-02 0.10598421E+03</pdfrwt>
<totfact> 0.70670239E+03</totfact>
</mgrwt>
</event>
<event>
 5    1  0.1851087E-003  0.1947258E+03  0.7818608E-02  0.1154267E+00
         11   -1    0    0    0    0  0.00000000000E+00  0.00000000000E+00  0.10001704391E+04  0.10001704391E+04  0.51100000000E-03 0.  1.
          2   -1    0    0  501    0 -0.00000000000E+00 -0.00000000000E+00 -0.25599399055E+03  0.25599399056E+03  0.25500000000E-02 0.  1.
         11    1    1    2    0    0 -0.40556163366E+02  0.18580521517E+03  0.95232633976E+03  0.97113018580E+03  0.51100000000E-03 0.  1.
         22    1    1    2    0    0 -0.87415390558E+01 -0.24945360507E+02 -0.30486829365E+02  0.40350121197E+02  0.00000000000E+00 0.  1.
          2    1    1    2  501    0  0.49297702422E+02 -0.16085985466E+03 -0.17766306188E+03  0.24468412263E+03  0.25500000000E-02 0.  1.
<mgrwt>
<rscale>  0 0.19472581E+03</rscale>
<asrwt>0</asrwt>
<pdfrwt beam="1">  1       11 0.10000000E+01 0.19017986E+03</pdfrwt>
<pdfrwt beam="2">  1        2 0.39390402E-01 0.19472581E+03</pdfrwt>
<totfact> 0.16074531E+02</totfact>
</mgrwt>
</event>
<event>
 5    1  0.1851087E-003  0.2327389E+03  0.7818608E-02  0.1124727E+00
         11   -1    0    0    0    0  0.00000000000E+00  0.00000000000E+00  0.10001758484E+04  0.10001758484E+04  0.51100000000E-03 0. -1.
          2   -1    0    0  501    0 -0.00000000000E+00 -0.00000000000E+00 -0.67190870775E+02  0.67190870824E+02  0.25500000000E-02 0. -1.
         11    1    1    2    0    0 -0.13930949672E+03  0.14823369001E+03  0.73237755651E+03  0.76010344560E+03  0.51100000000E-03 0. -1.
         22    1    1    2    0    0  0.10179043944E+03 -0.27531693919E+02  0.10469279539E+03  0.14859296463E+03  0.00000000000E+00 0. -1.
          2    1    1    2  501    0  0.37519057278E+02 -0.12070199609E+03  0.95914625686E+02  0.15867030896E+03  0.25500000000E-02 0. -1.
<mgrwt>
<rscale>  0 0.23273887E+03</rscale>
<asrwt>0</asrwt>
<pdfrwt beam="1">  1       11 0.10000000E+01 0.20342164E+03</pdfrwt>
<pdfrwt beam="2">  1        2 0.10338875E-01 0.23273887E+03</pdfrwt>
<totfact> 0.75089492E+02</totfact>
</mgrwt>
</event>
<event>
 5    1  0.1851087E-003  0.1662184E+03  0.7818608E-02  0.1181850E+00
         11   -1    0    0    0    0  0.00000000000E+00  0.00000000000E+00  0.10003794365E+04  0.10003794365E+04  0.51100000000E-03 0.  1.
          2   -1    0    0  501    0 -0.00000000000E+00 -0.00000000000E+00 -0.31205219080E+02  0.31205219184E+02  0.25500000000E-02 0. -1.
         11    1    1    2    0    0  0.31801356596E+02  0.15417435298E+03  0.68054953803E+03  0.69851895544E+03  0.51100000000E-03 0.  1.
         22    1    1    2    0    0  0.98005035229E+01 -0.34118529631E+02  0.37559748868E+02  0.51680350894E+02  0.00000000000E+00 0. -1.
          2    1    1    2  501    0 -0.41601860118E+02 -0.12005582335E+03  0.25106493054E+03  0.28138534937E+03  0.25500000000E-02 0. -1.
<mgrwt>
<rscale>  0 0.16621840E+03</rscale>
<asrwt>0</asrwt>
<pdfrwt beam="1">  1       11 0.10000000E+01 0.15742000E+03</pdfrwt>
<pdfrwt beam="2">  1        2 0.48026244E-02 0.16621840E+03</pdfrwt>
<totfact> 0.19639005E+03</totfact>
</mgrwt>
</event>
<event>
 5    1  0.1851087E-003  0.8752746E+02  0.7818608E-02  0.1393968E+00
         11   -1    0    0    0    0  0.00000000000E+00  0.00000000000E+00  0.10004550374E+04  0.10004550374E+04  0.51100000000E-03 0. -1.
          2   -1    0    0  501    0 -0.00000000000E+00 -0.00000000000E+00 -0.18363767539E+02  0.18363767716E+02  0.25500000000E-02 0. -1.
         11    1    1    2    0    0 -0.10334221056E+03 -0.70228082162E+02  0.36655580373E+03  0.38726573985E+03  0.51100000000E-03 0. -1.
         22    1    1    2    0    0  0.46424787394E+02  0.48481172672E+02  0.18648446240E+03  0.19819722426E+03  0.00000000000E+00 0. -1.
          2    1    1    2  501    0  0.56917423163E+02  0.21746909491E+02  0.42905100376E+03  0.43335584105E+03  0.25500000000E-02 0. -1.
<mgrwt>
<rscale>  0 0.60930461E+02</rscale>
<asrwt>0</asrwt>
<pdfrwt beam="1">  1       11 0.10000000E+01 0.87527460E+02</pdfrwt>
<pdfrwt beam="2">  1        2 0.28264805E-02 0.60930461E+02</pdfrwt>
<totfact> 0.35649545E+03</totfact>
</mgrwt>
</event>
<event>
 5    1  0.1851087E-003  0.6207543E+02  0.7818608E-02  0.1389323E+00
         11   -1    0    0    0    0  0.00000000000E+00  0.00000000000E+00  0.10002568437E+04  0.10002568437E+04  0.51100000000E-03 0. -1.
          2   -1    0    0  501    0 -0.00000000000E+00 -0.00000000000E+00 -0.35801064299E+02  0.35801064390E+02  0.25500000000E-02 0. -1.
         11    1    1    2    0    0 -0.15880504353E+02  0.59924529968E+02 -0.55943169970E+01  0.62244968417E+02  0.51100000000E-03 0. -1.
         22    1    1    2    0    0  0.13601383013E+02  0.62934817387E+01  0.87066782977E+02  0.88347214049E+02  0.00000000000E+00 0.  1.
          2    1    1    2  501    0  0.22791213401E+01 -0.66218011706E+02  0.88298331339E+03  0.88546572559E+03  0.25500000000E-02 0. -1.
<mgrwt>
<rscale>  0 0.62075433E+02</rscale>
<asrwt>0</asrwt>
<pdfrwt beam="1">  1       11 0.10000000E+01 0.14986845E+02</pdfrwt>
<pdfrwt beam="2">  1        2 0.55092706E-02 0.62075433E+02</pdfrwt>
<totfact> 0.15091262E+03</totfact>
</mgrwt>
</event>
<event>
 5    1  0.1851087E-003  0.1510717E+03  0.7818608E-02  0.1199162E+00
         11   -1    0    0    0    0  0.00000000000E+00  0.00000000000E+00  0.10002508710E+04  0.10002508710E+04  0.51100000000E-03 0.  1.
          2   -1    0    0  501    0 -0.00000000000E+00 -0.00000000000E+00 -0.24018738673E+02  0.24018738809E+02  0.25500000000E-02 0.  1.
         11    1    1    2    0    0  0.46682351465E+02  0.14162005574E+03  0.61295599532E+03  0.63083320642E+03  0.51100000000E-03 0.  1.
         22    1    1    2    0    0 -0.64448884507E+01 -0.17142003636E+02  0.27140978295E+02  0.32741679533E+02  0.00000000000E+00 0.  1.
          2    1    1    2  501    0 -0.40237463014E+02 -0.12447805211E+03  0.33613515870E+03  0.36069472385E+03  0.25500000000E-02 0.  1.
<mgrwt>
<rscale>  0 0.15107168E+03</rscale>
<asrwt>0</asrwt>
<pdfrwt beam="1">  1       11 0.10000000E+01 0.14911567E+03</pdfrwt>
<pdfrwt beam="2">  1        2 0.36961175E-02 0.15107168E+03</pdfrwt>
<totfact> 0.27564757E+03</totfact>
</mgrwt>
</event>
<event>
 5    1  0.1851087E-003  0.1875196E+03  0.7818608E-02  0.1160718E+00
         11   -1    0    0    0    0  0.00000000000E+00  0.00000000000E+00  0.10002742352E+04  0.10002742352E+04  0.51100000000E-03 0.  1.
          2   -1    0    0  501    0 -0.00000000000E+00 -0.00000000000E+00 -0.27552604137E+03  0.27552604138E+03  0.25500000000E-02 0.  1.
         11    1    1    2    0    0  0.99633667060E+02  0.14772795533E+03  0.95918385151E+03  0.97559421759E+03  0.51100000000E-03 0.  1.
         22    1    1    2    0    0 -0.36316674612E+02 -0.80906044299E+02 -0.15518020967E+03  0.17873328267E+03  0.00000000000E+00 0. -1.
          2    1    1    2  501    0 -0.63316992448E+02 -0.66821911031E+02 -0.79255448043E+02  0.12147277628E+03  0.25500000000E-02 0.  1.
<mgrwt>
<rscale>  0 0.18751960E+03</rscale>
<asrwt>0</asrwt>
<pdfrwt beam="1">  1       11 0.10000000E+01 0.17818647E+03</pdfrwt>
<pdfrwt beam="2">  1        2 0.42400245E-01 0.18751960E+03</pdfrwt>
<totfact> 0.14849363E+02</totfact>
</mgrwt>
</event>
<event>
 5    1  0.1851087E-003  0.2974705E+03  0.7818608E-02  0.1350273E+00
         11   -1    0    0    0    0  0.00000000000E+00  0.00000000000E+00  0.10002112912E+04  0.10002112912E+04  0.51100000000E-03 0. -1.
          2   -1    0    0  501    0 -0.00000000000E+00 -0.00000000000E+00 -0.20128276834E+03  0.20128276836E+03  0.25500000000E-02 0. -1.
         11    1    1    2    0    0  0.23406408920E+03 -0.18713526848E+03  0.83707495944E+03  0.88910072224E+03  0.51100000000E-03 0. -1.
         22    1    1    2    0    0 -0.57540026118E+01  0.16949910882E+02 -0.20313720672E+02  0.27074993490E+02  0.00000000000E+00 0. -1.
          2    1    1    2  501    0 -0.22831008658E+03  0.17018535760E+03 -0.17832715887E+02  0.28531834385E+03  0.25500000000E-02 0. -1.
<mgrwt>
<rscale>  0 0.72970578E+02</rscale>
<asrwt>0</asrwt>
<pdfrwt beam="1">  1       11 0.10000000E+01 0.29747048E+03</pdfrwt>
<pdfrwt beam="2">  1        2 0.30973122E-01 0.72970578E+02</pdfrwt>
<totfact> 0.20462251E+02</totfact>
</mgrwt>
</event>
<event>
 5    1  0.1851087E-003  0.3244922E+03  0.7818608E-02  0.1073600E+00
         11   -1    0    0    0    0  0.00000000000E+00  0.00000000000E+00  0.10001858237E+04  0.10001858237E+04  0.51100000000E-03 0.  1.
          2   -1    0    0  501    0 -0.00000000000E+00 -0.00000000000E+00 -0.25751390664E+03  0.25751390666E+03  0.25500000000E-02 0.  1.
         11    1    1    2    0    0 -0.31661655333E+03  0.54723641694E+02  0.85573876058E+03  0.91407305242E+03  0.51100000000E-03 0.  1.
         22    1    1    2    0    0  0.27674236061E+02 -0.17052920668E+02 -0.52269765676E+01  0.32923953726E+02  0.00000000000E+00 0.  1.
          2    1    1    2  501    0  0.28894231726E+03 -0.37670721025E+02 -0.10783986695E+03  0.31070272422E+03  0.25500000000E-02 0.  1.
<mgrwt>
<rscale>  0 0.32449219E+03</rscale>
<asrwt>0</asrwt>
<pdfrwt beam="1">  1       11 0.10000000E+01 0.32131094E+03</pdfrwt>
<pdfrwt beam="2">  1        2 0.39624885E-01 0.32449219E+03</pdfrwt>
<totfact> 0.16025430E+02</totfact>
</mgrwt>
</event>
<event>
 5    1  0.1851087E-003  0.1607111E+03  0.7818608E-02  0.1461773E+00
         11   -1    0    0    0    0  0.00000000000E+00  0.00000000000E+00  0.99987746951E+03  0.99987746951E+03  0.51100000000E-03 0. -1.
          2   -1    0    0  501    0 -0.00000000000E+00 -0.00000000000E+00 -0.91069157371E+02  0.91069157406E+02  0.25500000000E-02 0. -1.
         11    1    1    2    0    0  0.51775503199E+02  0.15275258500E+03  0.90808345288E+03  0.92229583776E+03  0.51100000000E-03 0. -1.
         22    1    1    2    0    0  0.90954731908E+01 -0.10365920974E+02  0.46026340104E+00  0.13798253245E+02  0.00000000000E+00 0. -1.
          2    1    1    2  501    0 -0.60870976390E+02 -0.14238666403E+03  0.26459585850E+00  0.15485253591E+03  0.25500000000E-02 0. -1.
<mgrwt>
<rscale>  0 0.47077583E+02</rscale>
<asrwt>0</asrwt>
<pdfrwt beam="1">  1       11 0.10000000E+01 0.16071113E+03</pdfrwt>
<pdfrwt beam="2">  1        2 0.14008922E-01 0.47077583E+02</pdfrwt>
<totfact> 0.47940265E+02</totfact>
</mgrwt>
</event>
<event>
 5    1  0.1851087E-003  0.1814540E+03  0.7818608E-02  0.1166403E+00
         11   -1    0    0    0    0  0.00000000000E+00  0.00000000000E+00  0.10002998487E+04  0.10002998487E+04  0.51100000000E-03 0. -1.
          2   -1    0    0  501    0 -0.00000000000E+00 -0.00000000000E+00 -0.10629730910E+03  0.10629730913E+03  0.25500000000E-02 0. -1.
         11    1    1    2    0    0  0.13686773088E+03  0.10308743692E+03  0.90854492265E+03  0.92456134024E+03  0.51100000000E-03 0. -1.
         22    1    1    2    0    0 -0.18986068592E+02 -0.47348041751E+02 -0.59291132665E+01  0.51356228856E+02  0.00000000000E+00 0.  1.
          2    1    1    2  501    0 -0.11788166229E+03 -0.55739395167E+02 -0.86132698116E+01  0.13067958869E+03  0.25500000000E-02 0. -1.
<mgrwt>
<rscale>  0 0.18145401E+03</rscale>
<asrwt>0</asrwt>
<pdfrwt beam="1">  1       11 0.10000000E+01 0.17134700E+03</pdfrwt>
<pdfrwt beam="2">  1        2 0.16358335E-01 0.18145401E+03</pdfrwt>
<totfact> 0.42755067E+02</totfact>
</mgrwt>
</event>
<event>
 5    1  0.1851087E-003  0.1566181E+03  0.7818608E-02  0.1192569E+00
         11   -1    0    0    0    0  0.00000000000E+00  0.00000000000E+00  0.10004169073E+04  0.10004169073E+04  0.51100000000E-03 0.  1.
          2   -1    0    0  501    0 -0.00000000000E+00 -0.00000000000E+00 -0.70217138459E+02  0.70217138505E+02  0.25500000000E-02 0.  1.
         11    1    1    2    0    0 -0.99865800030E+02  0.11106467024E+03  0.89851322465E+03  0.91084277121E+03  0.51100000000E-03 0.  1.
         22    1    1    2    0    0 -0.88446340685E+00 -0.21131979799E+02  0.35028679459E+00  0.21153381446E+02  0.00000000000E+00 0. -1.
          2    1    1    2  501    0  0.10075026344E+03 -0.89932690443E+02  0.31336257441E+02  0.13863789320E+03  0.25500000000E-02 0.  1.
<mgrwt>
<rscale>  0 0.15661805E+03</rscale>
<asrwt>0</asrwt>
<pdfrwt beam="1">  1       11 0.10000000E+01 0.14936043E+03</pdfrwt>
<pdfrwt beam="2">  1        2 0.10807140E-01 0.15661805E+03</pdfrwt>
<totfact> 0.69712097E+02</totfact>
</mgrwt>
</event>
<event>
 5    1  0.1851087E-003  0.1048566E+03  0.7818608E-02  0.1270402E+00
         11   -1    0    0    0    0  0.00000000000E+00  0.00000000000E+00  0.10002580394E+04  0.10002580394E+04  0.51100000000E-03 0. -1.
          2   -1    0    0  501    0 -0.00000000000E+00 -0.00000000000E+00 -0.12934699034E+02  0.12934699285E+02  0.25500000000E-02 0. -1.
         11    1    1    2    0    0  0.74999484764E+01  0.10123071094E+03  0.27389621146E+03  0.29210107963E+03  0.51100000000E-03 0. -1.
         22    1    1    2    0    0 -0.91239606265E+01 -0.45906988140E+02  0.24731841126E+03  0.25170835259E+03  0.00000000000E+00 0. -1.
          2    1    1    2  501    0  0.16240121501E+01 -0.55323722798E+02  0.46610871766E+03  0.46938330648E+03  0.25500000000E-02 0. -1.
<mgrwt>
<rscale>  0 0.10485663E+03</rscale>
<asrwt>0</asrwt>
<pdfrwt beam="1">  1       11 0.10000000E+01 0.10150821E+03</pdfrwt>
<pdfrwt beam="2">  1        2 0.19904671E-02 0.10485663E+03</pdfrwt>
<totfact> 0.60964002E+03</totfact>
</mgrwt>
</event>
<event>
 5    1  0.1851087E-003  0.1677856E+03  0.7818608E-02  0.1226924E+00
         11   -1    0    0    0    0  0.00000000000E+00  0.00000000000E+00  0.99998352141E+03  0.99998352141E+03  0.51100000000E-03 0.  1.
          2   -1    0    0  501    0 -0.00000000000E+00 -0.00000000000E+00 -0.81699580729E+03  0.81699580730E+03  0.25500000000E-02 0.  1.
         11    1    1    2    0    0 -0.13174251775E+03 -0.10127458689E+03  0.93784199699E+03  0.95244960195E+03  0.51100000000E-03 0.  1.
         22    1    1    2    0    0 -0.99812190544E+02  0.17186048170E+02 -0.49968892324E+03  0.50984983441E+03  0.00000000000E+00 0.  1.
          2    1    1    2  501    0  0.23155470829E+03  0.84088538721E+02 -0.25516535963E+03  0.35467989235E+03  0.25500000000E-02 0.  1.
<mgrwt>
<rscale>  0 0.13035908E+03</rscale>
<asrwt>0</asrwt>
<pdfrwt beam="1">  1       11 0.10000000E+01 0.16778564E+03</pdfrwt>
<pdfrwt beam="2">  1        2 0.12568959E+00 0.13035908E+03</pdfrwt>
<totfact> 0.44346476E+01</totfact>
</mgrwt>
</event>
<event>
 5    1  0.1851087E-003  0.9890739E+02  0.7818608E-02  0.1282610E+00
         11   -1    0    0    0    0  0.00000000000E+00  0.00000000000E+00  0.10001936238E+04  0.10001936238E+04  0.51100000000E-03 0.  1.
          2   -1    0    0  501    0 -0.00000000000E+00 -0.00000000000E+00 -0.96697441736E+01  0.96697445099E+01  0.25500000000E-02 0.  1.
         11    1    1    2    0    0 -0.19838125014E+02  0.94233265718E+02  0.55061666720E+03  0.55897421565E+03  0.51100000000E-03 0.  1.
         22    1    1    2    0    0  0.17041219848E+02 -0.29771465890E+02  0.14410792806E+03  0.14813452766E+03  0.00000000000E+00 0. -1.
          2    1    1    2  501    0  0.27969051652E+01 -0.64461799828E+02  0.29579928433E+03  0.30275462495E+03  0.25500000000E-02 0.  1.
<mgrwt>
<rscale>  0 0.98907393E+02</rscale>
<asrwt>0</asrwt>
<pdfrwt beam="1">  1       11 0.10000000E+01 0.96298804E+02</pdfrwt>
<pdfrwt beam="2">  1        2 0.14879410E-02 0.98907393E+02</pdfrwt>
<totfact> 0.89831879E+03</totfact>
</mgrwt>
</event>
<event>
 5    1  0.1851087E-003  0.2414627E+03  0.7818608E-02  0.1118822E+00
         11   -1    0    0    0    0  0.00000000000E+00  0.00000000000E+00  0.10002048950E+04  0.10002048950E+04  0.51100000000E-03 0. -1.
          2   -1    0    0  501    0 -0.00000000000E+00 -0.00000000000E+00 -0.14948761315E+03  0.14948761317E+03  0.25500000000E-02 0. -1.
         11    1    1    2    0    0  0.19142114250E+03 -0.12742070650E+03  0.87714648096E+03  0.90678775869E+03  0.51100000000E-03 0. -1.
         22    1    1    2    0    0 -0.56163772142E+02  0.18830466793E+02 -0.35770873936E+02  0.69199069380E+02  0.00000000000E+00 0. -1.
          2    1    1    2  501    0 -0.13525737036E+03  0.10859023971E+03  0.93416747954E+01  0.17370568008E+03  0.25500000000E-02 0. -1.
<mgrwt>
<rscale>  0 0.24146266E+03</rscale>
<asrwt>0</asrwt>
<pdfrwt beam="1">  1       11 0.10000000E+01 0.22995237E+03</pdfrwt>
<pdfrwt beam="2">  1        2 0.23002806E-01 0.24146266E+03</pdfrwt>
<totfact> 0.29144704E+02</totfact>
</mgrwt>
</event>
<event>
 5    1  0.1851087E-003  0.3403741E+03  0.7818608E-02  0.1143649E+00
         11   -1    0    0    0    0  0.00000000000E+00  0.00000000000E+00  0.10002599402E+04  0.10002599402E+04  0.51100000000E-03 0.  1.
          2   -1    0    0  501    0 -0.00000000000E+00 -0.00000000000E+00 -0.20270248110E+03  0.20270248112E+03  0.25500000000E-02 0.  1.
         11    1    1    2    0    0 -0.20099213981E+03  0.28631868258E+03  0.61636764271E+03  0.70872088952E+03  0.51100000000E-03 0.  1.
         22    1    1    2    0    0  0.12072124710E+03  0.37340563387E+02  0.49080085731E+02  0.13556102682E+03  0.00000000000E+00 0.  1.
          2    1    1    2  501    0  0.80270892701E+02 -0.32365924596E+03  0.13210973066E+03  0.35868050498E+03  0.25500000000E-02 0.  1.
<mgrwt>
<rscale>  0 0.20739126E+03</rscale>
<asrwt>0</asrwt>
<pdfrwt beam="1">  1       11 0.10000000E+01 0.34037408E+03</pdfrwt>
<pdfrwt beam="2">  1        2 0.31193102E-01 0.20739126E+03</pdfrwt>
<totfact> 0.20715996E+02</totfact>
</mgrwt>
</event>
<event>
 5    1  0.1851087E-003  0.1618106E+03  0.7818608E-02  0.1186668E+00
         11   -1    0    0    0    0  0.00000000000E+00  0.00000000000E+00  0.10001156527E+04  0.10001156527E+04  0.51100000000E-03 0. -1.
          2   -1    0    0  501    0 -0.00000000000E+00 -0.00000000000E+00 -0.55376895521E+02  0.55376895579E+02  0.25500000000E-02 0. -1.
         11    1    1    2    0    0 -0.95276769017E+01 -0.15729046029E+03  0.85711531270E+03  0.87148019185E+03  0.51100000000E-03 0. -1.
         22    1    1    2    0    0 -0.81176836543E+01  0.25538123738E+02  0.26558214152E+02  0.37728388396E+02  0.00000000000E+00 0. -1.
          2    1    1    2  501    0  0.17645360556E+02  0.13175233656E+03  0.61065230302E+02  0.14628396801E+03  0.25500000000E-02 0. -1.
<mgrwt>
<rscale>  0 0.16181063E+03</rscale>
<asrwt>0</asrwt>
<pdfrwt beam="1">  1       11 0.10000000E+01 0.15757876E+03</pdfrwt>
<pdfrwt beam="2">  1        2 0.85205075E-02 0.16181063E+03</pdfrwt>
<totfact> 0.93732843E+02</totfact>
</mgrwt>
</event>
<event>
 5    1  0.1851087E-003  0.1669564E+03  0.7818608E-02  0.1181060E+00
         11   -1    0    0    0    0  0.00000000000E+00  0.00000000000E+00  0.10001885287E+04  0.10001885287E+04  0.51100000000E-03 0. -1.
          2   -1    0    0  501    0 -0.00000000000E+00 -0.00000000000E+00 -0.54714109621E+02  0.54714109680E+02  0.25500000000E-02 0. -1.
         11    1    1    2    0    0 -0.38019467591E+02 -0.11381382990E+02  0.21813667720E+03  0.22171744572E+03  0.51100000000E-03 0. -1.
         22    1    1    2    0    0  0.15857724643E+03 -0.70223520655E+02  0.12572095104E+03  0.21420514342E+03  0.00000000000E+00 0. -1.
          2    1    1    2  501    0 -0.12055777884E+03  0.81604903645E+02  0.60161679085E+03  0.61898004926E+03  0.25500000000E-02 0. -1.
<mgrwt>
<rscale>  0 0.16695637E+03</rscale>
<asrwt>0</asrwt>
<pdfrwt beam="1">  1       11 0.10000000E+01 0.39686469E+02</pdfrwt>
<pdfrwt beam="2">  1        2 0.84191420E-02 0.16695637E+03</pdfrwt>
<totfact> 0.95326618E+02</totfact>
</mgrwt>
</event>
<event>
 5    1  0.1851087E-003  0.1883555E+03  0.7818608E-02  0.1159953E+00
         11   -1    0    0    0    0  0.00000000000E+00  0.00000000000E+00  0.99986655824E+03  0.99986655824E+03  0.51100000000E-03 0. -1.
          2   -1    0    0  501    0 -0.00000000000E+00 -0.00000000000E+00 -0.34409633646E+03  0.34409633647E+03  0.25500000000E-02 0. -1.
         11    1    1    2    0    0  0.13011061381E+03 -0.12023850835E+03  0.96541186456E+03  0.98153254605E+03  0.51100000000E-03 0. -1.
         22    1    1    2    0    0 -0.17774066245E+02  0.38101909460E+02 -0.35648770976E+02  0.55122661470E+02  0.00000000000E+00 0. -1.
          2    1    1    2  501    0 -0.11233654756E+03  0.82136598894E+02 -0.27399287181E+03  0.30730768719E+03  0.25500000000E-02 0. -1.
<mgrwt>
<rscale>  0 0.18835554E+03</rscale>
<asrwt>0</asrwt>
<pdfrwt beam="1">  1       11 0.10000000E+01 0.17716114E+03</pdfrwt>
<pdfrwt beam="2">  1        2 0.52930832E-01 0.18835554E+03</pdfrwt>
<totfact> 0.11708798E+02</totfact>
</mgrwt>
</event>
<event>
 5    1  0.1851087E-003  0.3664795E+03  0.7818608E-02  0.1056047E+00
         11   -1    0    0    0    0  0.00000000000E+00  0.00000000000E+00  0.10002731750E+04  0.10002731750E+04  0.51100000000E-03 0. -1.
          2   -1    0    0  501    0 -0.00000000000E+00 -0.00000000000E+00 -0.49014634355E+03  0.49014634356E+03  0.25500000000E-02 0. -1.
         11    1    1    2    0    0 -0.35799018362E+03 -0.21786290412E+02  0.89184198267E+03  0.96125633214E+03  0.51100000000E-03 0. -1.
         22    1    1    2    0    0  0.83497812572E+02 -0.14301836912E+02 -0.12889542269E+03  0.15424155482E+03  0.00000000000E+00 0. -1.
          2    1    1    2  501    0  0.27449237105E+03  0.36088127324E+02 -0.25281972853E+03  0.37492163160E+03  0.25500000000E-02 0. -1.
<mgrwt>
<rscale>  0 0.36647950E+03</rscale>
<asrwt>0</asrwt>
<pdfrwt beam="1">  1       11 0.10000000E+01 0.35865250E+03</pdfrwt>
<pdfrwt beam="2">  1        2 0.75427727E-01 0.36647950E+03</pdfrwt>
<totfact> 0.78893262E+01</totfact>
</mgrwt>
</event>
<event>
 5    1  0.1851087E-003  0.1121755E+03  0.7818608E-02  0.1256593E+00
         11   -1    0    0    0    0  0.00000000000E+00  0.00000000000E+00  0.10004906367E+04  0.10004906367E+04  0.51100000000E-03 0. -1.
          2   -1    0    0  501    0 -0.00000000000E+00 -0.00000000000E+00 -0.11537487085E+02  0.11537487367E+02  0.25500000000E-02 0. -1.
         11    1    1    2    0    0 -0.12754061853E+02  0.10119311394E+03  0.43010009236E+03  0.44202805550E+03  0.51100000000E-03 0. -1.
         22    1    1    2    0    0  0.21351008053E+02 -0.16406906632E+02  0.12883730096E+03  0.13162105549E+03  0.00000000000E+00 0. -1.
          2    1    1    2  501    0 -0.85969462000E+01 -0.84786207308E+02  0.43001575627E+03  0.43837901304E+03  0.25500000000E-02 0. -1.
<mgrwt>
<rscale>  0 0.11217548E+03</rscale>
<asrwt>0</asrwt>
<pdfrwt beam="1">  1       11 0.10000000E+01 0.10199374E+03</pdfrwt>
<pdfrwt beam="2">  1        2 0.17758689E-02 0.11217548E+03</pdfrwt>
<totfact> 0.71792225E+03</totfact>
</mgrwt>
</event>
<event>
 5    1  0.1851087E-003  0.6650751E+02  0.7818608E-02  0.1519234E+00
         11   -1    0    0    0    0  0.00000000000E+00  0.00000000000E+00  0.10001629845E+04  0.10001629845E+04  0.51100000000E-03 0. -1.
          2   -1    0    0  501    0 -0.00000000000E+00 -0.00000000000E+00 -0.26784866792E+02  0.26784866913E+02  0.25500000000E-02 0. -1.
         11    1    1    2    0    0 -0.79041574102E+02  0.18029242444E+02  0.51541952463E+02  0.96068709180E+02  0.51100000000E-03 0. -1.
         22    1    1    2    0    0  0.13227594624E+02 -0.17995561049E+02  0.34452941242E+02  0.41058673105E+02  0.00000000000E+00 0.  1.
          2    1    1    2  501    0  0.65813979478E+02 -0.33681395061E-01  0.88738322403E+03  0.88982046916E+03  0.25500000000E-02 0. -1.
<mgrwt>
<rscale>  0 0.38540639E+02</rscale>
<asrwt>0</asrwt>
<pdfrwt beam="1">  1       11 0.10000000E+01 0.66507511E+02</pdfrwt>
<pdfrwt beam="2">  1        2 0.41214202E-02 0.38540639E+02</pdfrwt>
<totfact> 0.20679662E+03</totfact>
</mgrwt>
</event>
<event>
 5    1  0.1851087E-003  0.1428931E+03  0.7818608E-02  0.1209488E+00
         11   -1    0    0    0    0  0.00000000000E+00  0.00000000000E+00  0.10002536303E+04  0.10002536303E+04  0.51100000000E-03 0. -1.
          2   -1    0    0  501    0 -0.00000000000E+00 -0.00000000000E+00 -0.20083764224E+02  0.20083764386E+02  0.25500000000E-02 0. -1.
         11    1    1    2    0    0  0.12422691615E+03  0.60055678460E+02  0.55053797121E+03  0.56756591595E+03  0.51100000000E-03 0. -1.
         22    1    1    2    0    0 -0.93270516634E+02 -0.56660547380E+02  0.29375989870E+03  0.31337626742E+03  0.00000000000E+00 0. -1.
          2    1    1    2  501    0 -0.30956399512E+02 -0.33951310803E+01  0.13587199622E+03  0.13939521135E+03  0.25500000000E-02 0. -1.
<mgrwt>
<rscale>  0 0.14289313E+03</rscale>
<asrwt>0</asrwt>
<pdfrwt beam="1">  1       11 0.10000000E+01 0.13798192E+03</pdfrwt>
<pdfrwt beam="2">  1        2 0.30905935E-02 0.14289313E+03</pdfrwt>
<totfact> 0.34843669E+03</totfact>
</mgrwt>
</event>
<event>
 5    1  0.1851087E-003  0.1331849E+03  0.7818608E-02  0.1222805E+00
         11   -1    0    0    0    0  0.00000000000E+00  0.00000000000E+00  0.10001783305E+04  0.10001783305E+04  0.51100000000E-03 0. -1.
          2   -1    0    0  501    0 -0.00000000000E+00 -0.00000000000E+00 -0.16869221671E+02  0.16869221864E+02  0.25500000000E-02 0. -1.
         11    1    1    2    0    0 -0.23283115514E+02  0.12316068989E+03  0.52687058737E+03  0.54157481001E+03  0.51100000000E-03 0. -1.
         22    1    1    2    0    0  0.11285848104E+02 -0.30741235029E+02  0.61366249375E+02  0.69557245926E+02  0.00000000000E+00 0. -1.
          2    1    1    2  501    0  0.11997267410E+02 -0.92419454866E+02  0.39507227209E+03  0.40591549644E+03  0.25500000000E-02 0. -1.
<mgrwt>
<rscale>  0 0.13318485E+03</rscale>
<asrwt>0</asrwt>
<pdfrwt beam="1">  1       11 0.10000000E+01 0.12534217E+03</pdfrwt>
<pdfrwt beam="2">  1        2 0.25957276E-02 0.13318485E+03</pdfrwt>
<totfact> 0.43765708E+03</totfact>
</mgrwt>
</event>
<event>
 5    1  0.1851087E-003  0.1524135E+03  0.7818608E-02  0.1197538E+00
         11   -1    0    0    0    0  0.00000000000E+00  0.00000000000E+00  0.10000382521E+04  0.10000382521E+04  0.51100000000E-03 0. -1.
          2   -1    0    0  501    0 -0.00000000000E+00 -0.00000000000E+00 -0.23354156058E+02  0.23354156197E+02  0.25500000000E-02 0. -1.
         11    1    1    2    0    0  0.44724012098E+02  0.13895088608E+03  0.36743533991E+03  0.39536858122E+03  0.51100000000E-03 0. -1.
         22    1    1    2    0    0 -0.40698899887E+01 -0.53882236821E+02  0.15661713863E+03  0.16567675625E+03  0.00000000000E+00 0. -1.
          2    1    1    2  501    0 -0.40654122110E+02 -0.85068649264E+02  0.45263161755E+03  0.46234707088E+03  0.25500000000E-02 0. -1.
<mgrwt>
<rscale>  0 0.15241352E+03</rscale>
<asrwt>0</asrwt>
<pdfrwt beam="1">  1       11 0.10000000E+01 0.14597126E+03</pdfrwt>
<pdfrwt beam="2">  1        2 0.35930844E-02 0.15241352E+03</pdfrwt>
<totfact> 0.28648772E+03</totfact>
</mgrwt>
</event>
<event>
 5    1  0.1851087E-003  0.1154758E+03  0.7818608E-02  0.1250753E+00
         11   -1    0    0    0    0  0.00000000000E+00  0.00000000000E+00  0.99994943062E+03  0.99994943062E+03  0.51100000000E-03 0. -1.
         -2   -1    0    0    0  501 -0.00000000000E+00 -0.00000000000E+00 -0.13151847673E+02  0.13151847920E+02  0.25500000000E-02 0. -1.
         11    1    1    2    0    0 -0.77106949780E+02 -0.83540949318E+02  0.51044145894E+03  0.52294842473E+03  0.51100000000E-03 0. -1.
         22    1    1    2    0    0  0.14341108243E+02  0.11762028059E+02  0.51782549436E+02  0.55004046359E+02  0.00000000000E+00 0. -1.
         -2    1    1    2    0  501  0.62765841537E+02  0.71778921259E+02  0.42457357457E+03  0.43514880745E+03  0.25500000000E-02 0. -1.
<mgrwt>
<rscale>  0 0.11547581E+03</rscale>
<asrwt>0</asrwt>
<pdfrwt beam="1">  1       11 0.10000000E+01 0.11368629E+03</pdfrwt>
<pdfrwt beam="2">  1       -2 0.20232588E-02 0.11547581E+03</pdfrwt>
<totfact> 0.54950632E+03</totfact>
</mgrwt>
</event>
<event>
 5    1  0.1851087E-003  0.1154624E+03  0.7818608E-02  0.1340690E+00
         11   -1    0    0    0    0  0.00000000000E+00  0.00000000000E+00  0.10004490397E+04  0.10004490397E+04  0.51100000000E-03 0.  1.
          2   -1    0    0  501    0 -0.00000000000E+00 -0.00000000000E+00 -0.29119336224E+02  0.29119336336E+02  0.25500000000E-02 0.  1.
         11    1    1    2    0    0  0.14719020755E+02 -0.13488834680E+03  0.72056922262E+03  0.73323360552E+03  0.51100000000E-03 0.  1.
         22    1    1    2    0    0  0.29579774160E+02  0.73088495272E+02  0.98737657356E+02  0.12635670208E+03  0.00000000000E+00 0.  1.
          2    1    1    2  501    0 -0.44298794914E+02  0.61799851525E+02  0.15202282354E+03  0.16997806847E+03  0.25500000000E-02 0.  1.
<mgrwt>
<rscale>  0 0.76036865E+02</rscale>
<asrwt>0</asrwt>
<pdfrwt beam="1">  1       11 0.10000000E+01 0.11546236E+03</pdfrwt>
<pdfrwt beam="2">  1        2 0.44819094E-02 0.76036865E+02</pdfrwt>
<totfact> 0.20041686E+03</totfact>
</mgrwt>
</event>
<event>
 5    1  0.1851087E-003  0.9067948E+02  0.7818608E-02  0.1439301E+00
         11   -1    0    0    0    0  0.00000000000E+00  0.00000000000E+00  0.10000519129E+04  0.10000519129E+04  0.51100000000E-03 0. -1.
          2   -1    0    0  501    0 -0.00000000000E+00 -0.00000000000E+00 -0.38092864703E+02  0.38092864788E+02  0.25500000000E-02 0. -1.
         11    1    1    2    0    0 -0.86753952994E+02  0.13285437131E+02  0.45113856602E+03  0.45959629780E+03  0.51100000000E-03 0. -1.
         22    1    1    2    0    0  0.11722611977E+03  0.27781508474E+02  0.79800841662E+02  0.14450588119E+03  0.00000000000E+00 0. -1.
          2    1    1    2  501    0 -0.30472166772E+02 -0.41066945605E+02  0.43101964047E+03  0.43404259866E+03  0.25500000000E-02 0. -1.
<mgrwt>
<rscale>  0 0.51137530E+02</rscale>
<asrwt>0</asrwt>
<pdfrwt beam="1">  1       11 0.10000000E+01 0.90679478E+02</pdfrwt>
<pdfrwt beam="2">  1        2 0.58607448E-02 0.51137530E+02</pdfrwt>
<totfact> 0.13701182E+03</totfact>
</mgrwt>
</event>
<event>
 5    1  0.1851087E-003  0.1213180E+03  0.7818608E-02  0.1240938E+00
         11   -1    0    0    0    0  0.00000000000E+00  0.00000000000E+00  0.10001605937E+04  0.10001605937E+04  0.51100000000E-03 0. -1.
         -2   -1    0    0    0  501 -0.00000000000E+00 -0.00000000000E+00 -0.16223348946E+02  0.16223349146E+02  0.25500000000E-02 0.  1.
         11    1    1    2    0    0  0.23402079818E+02  0.11153119824E+03  0.67368249835E+03  0.68325322838E+03  0.51100000000E-03 0. -1.
         22    1    1    2    0    0 -0.95588685812E+01 -0.93049392582E+02  0.27905789195E+03  0.29431763197E+03  0.00000000000E+00 0.  1.
         -2    1    1    2    0  501 -0.13843211236E+02 -0.18481805654E+02  0.31196854430E+02  0.38813082464E+02  0.25500000000E-02 0.  1.
<mgrwt>
<rscale>  0 0.12131803E+03</rscale>
<asrwt>0</asrwt>
<pdfrwt beam="1">  1       11 0.10000000E+01 0.11395993E+03</pdfrwt>
<pdfrwt beam="2">  1       -2 0.24963006E-02 0.12131803E+03</pdfrwt>
<totfact> 0.40750906E+03</totfact>
</mgrwt>
</event>
<event>
 5    1  0.1851087E-003  0.1970552E+03  0.7818608E-02  0.1152248E+00
         11   -1    0    0    0    0  0.00000000000E+00  0.00000000000E+00  0.10003871504E+04  0.10003871504E+04  0.51100000000E-03 0. -1.
          2   -1    0    0  501    0 -0.00000000000E+00 -0.00000000000E+00 -0.10602244770E+03  0.10602244773E+03  0.25500000000E-02 0. -1.
         11    1    1    2    0    0  0.18573576278E+03  0.18362141635E+02  0.88994402422E+03  0.90930484881E+03  0.51100000000E-03 0. -1.
         22    1    1    2    0    0 -0.46601494990E+02 -0.44395472452E+01  0.29091997233E+02  0.55115816405E+02  0.00000000000E+00 0.  1.
          2    1    1    2  501    0 -0.13913426779E+03 -0.13922594390E+02 -0.24671318706E+02  0.14198893296E+03  0.25500000000E-02 0. -1.
<mgrwt>
<rscale>  0 0.19705517E+03</rscale>
<asrwt>0</asrwt>
<pdfrwt beam="1">  1       11 0.10000000E+01 0.18664121E+03</pdfrwt>
<pdfrwt beam="2">  1        2 0.16317460E-01 0.19705517E+03</pdfrwt>
<totfact> 0.43008230E+02</totfact>
</mgrwt>
</event>
<event>
 5    1  0.1851087E-003  0.1384647E+03  0.7818608E-02  0.1215410E+00
         11   -1    0    0    0    0  0.00000000000E+00  0.00000000000E+00  0.10003014016E+04  0.10003014016E+04  0.51100000000E-03 0.  1.
         -2   -1    0    0    0  501 -0.00000000000E+00 -0.00000000000E+00 -0.26504301895E+02  0.26504302018E+02  0.25500000000E-02 0. -1.
         11    1    1    2    0    0 -0.13241662589E+03 -0.34002979988E+02  0.75922794178E+03  0.77143854781E+03  0.51100000000E-03 0.  1.
         22    1    1    2    0    0  0.11127489130E+03  0.29301837267E+02  0.16386367689E+03  0.20022987716E+03  0.00000000000E+00 0. -1.
         -2    1    1    2    0  501  0.21141734593E+02  0.47011427207E+01  0.50705481026E+02  0.55137278651E+02  0.25500000000E-02 0. -1.
<mgrwt>
<rscale>  0 0.13846466E+03</rscale>
<asrwt>0</asrwt>
<pdfrwt beam="1">  1       11 0.10000000E+01 0.13671271E+03</pdfrwt>
<pdfrwt beam="2">  1       -2 0.40788138E-02 0.13846466E+03</pdfrwt>
<totfact> 0.20063889E+03</totfact>
</mgrwt>
</event>
<event>
 5    1  0.1851087E-003  0.2032827E+03  0.7818608E-02  0.1146999E+00
         11   -1    0    0    0    0  0.00000000000E+00  0.00000000000E+00  0.10004086759E+04  0.10004086759E+04  0.51100000000E-03 0.  1.
          2   -1    0    0  501    0 -0.00000000000E+00 -0.00000000000E+00 -0.43268849420E+03  0.43268849421E+03  0.25500000000E-02 0.  1.
         11    1    1    2    0    0 -0.19345462590E+03 -0.47581313498E+02  0.96579135728E+03  0.98612454562E+03  0.51100000000E-03 0.  1.
         22    1    1    2    0    0  0.65709163922E+02  0.29352422700E+02 -0.17578993657E+03  0.18995094298E+03  0.00000000000E+00 0. -1.
          2    1    1    2  501    0  0.12774546198E+03  0.18228890798E+02 -0.22228123904E+03  0.25702168148E+03  0.25500000000E-02 0.  1.
<mgrwt>
<rscale>  0 0.20328272E+03</rscale>
<asrwt>0</asrwt>
<pdfrwt beam="1">  1       11 0.10000000E+01 0.19922016E+03</pdfrwt>
<pdfrwt beam="2">  1        2 0.66594663E-01 0.20328272E+03</pdfrwt>
<totfact> 0.91310596E+01</totfact>
</mgrwt>
</event>
<event>
 5    1  0.1851087E-003  0.1908701E+03  0.7818608E-02  0.1283418E+00
         11   -1    0    0    0    0  0.00000000000E+00  0.00000000000E+00  0.10002698548E+04  0.10002698548E+04  0.51100000000E-03 0. -1.
          2   -1    0    0  501    0 -0.00000000000E+00 -0.00000000000E+00 -0.52858955393E+02  0.52858955455E+02  0.25500000000E-02 0. -1.
         11    1    1    2    0    0 -0.13893616640E+03 -0.11820906952E+03  0.24074598670E+03  0.30205177133E+03  0.51100000000E-03 0. -1.
         22    1    1    2    0    0  0.26255856661E+02 -0.43561615197E+02  0.86666666253E+02  0.10048927986E+03  0.00000000000E+00 0. -1.
          2    1    1    2  501    0  0.11268030974E+03  0.16177068471E+03  0.61999824644E+03  0.65058775905E+03  0.25500000000E-02 0. -1.
<mgrwt>
<rscale>  0 0.98529735E+02</rscale>
<asrwt>0</asrwt>
<pdfrwt beam="1">  1       11 0.10000000E+01 0.19087012E+03</pdfrwt>
<pdfrwt beam="2">  1        2 0.81343413E-02 0.98529735E+02</pdfrwt>
<totfact> 0.96184801E+02</totfact>
</mgrwt>
</event>
<event>
 5    1  0.1851087E-003  0.2712020E+03  0.7818608E-02  0.1203294E+00
         11   -1    0    0    0    0  0.00000000000E+00  0.00000000000E+00  0.10002059585E+04  0.10002059585E+04  0.51100000000E-03 0.  1.
          2   -1    0    0  501    0 -0.00000000000E+00 -0.00000000000E+00 -0.49664532196E+03  0.49664532197E+03  0.25500000000E-02 0.  1.
         11    1    1    2    0    0 -0.89333881961E+02 -0.26407073031E+03  0.89864378547E+03  0.94089029448E+03  0.51100000000E-03 0.  1.
         22    1    1    2    0    0 -0.24020198038E+02  0.76800493782E+02 -0.31136263086E+03  0.32159286941E+03  0.00000000000E+00 0.  1.
          2    1    1    2  501    0  0.11335408000E+03  0.18727023653E+03 -0.83720518040E+02  0.23436811662E+03  0.25500000000E-02 0.  1.
<mgrwt>
<rscale>  0 0.14772745E+03</rscale>
<asrwt>0</asrwt>
<pdfrwt beam="1">  1       11 0.10000000E+01 0.27120202E+03</pdfrwt>
<pdfrwt beam="2">  1        2 0.76422707E-01 0.14772745E+03</pdfrwt>
<totfact> 0.78834182E+01</totfact>
</mgrwt>
</event>
<event>
 5    1  0.1851087E-003  0.1567630E+03  0.7818608E-02  0.1192401E+00
         11   -1    0    0    0    0  0.00000000000E+00  0.00000000000E+00  0.10002752548E+04  0.10002752548E+04  0.51100000000E-03 0. -1.
          2   -1    0    0  501    0 -0.00000000000E+00 -0.00000000000E+00 -0.28650474241E+02  0.28650474355E+02  0.25500000000E-02 0.  1.
         11    1    1    2    0    0 -0.15437359928E+03  0.55932456535E+01  0.68531258777E+03  0.70250682239E+03  0.51100000000E-03 0. -1.
         22    1    1    2    0    0  0.14890364925E+02 -0.53036841843E+01  0.44989779583E+02  0.47685766224E+02  0.00000000000E+00 0. -1.
          2    1    1    2  501    0  0.13948323435E+03 -0.28956146928E+00  0.24132241320E+03  0.27873314053E+03  0.25500000000E-02 0.  1.
<mgrwt>
<rscale>  0 0.15676298E+03</rscale>
<asrwt>0</asrwt>
<pdfrwt beam="1">  1       11 0.10000000E+01 0.15447489E+03</pdfrwt>
<pdfrwt beam="2">  1        2 0.44089784E-02 0.15676298E+03</pdfrwt>
<totfact> 0.21879867E+03</totfact>
</mgrwt>
</event>
<event>
 5    1  0.3047863E-003  0.2860012E+03  0.7818608E-02  0.1092456E+00
         11   -1    0    0    0    0  0.00000000000E+00  0.00000000000E+00  0.10000195597E+04  0.10000195597E+04  0.51100000000E-03 0. -1.
          2   -1    0    0  501    0 -0.00000000000E+00 -0.00000000000E+00 -0.48801951105E+03  0.48801951106E+03  0.25500000000E-02 0. -1.
         11    1    1    2    0    0  0.27900336606E+03  0.38624109986E+02  0.93551633873E+03  0.97699821912E+03  0.51100000000E-03 0. -1.
         22    1    1    2    0    0 -0.11242291278E+02 -0.20848949810E+01 -0.41870205601E+02  0.43403341085E+02  0.00000000000E+00 0.  1.
          2    1    1    2  501    0 -0.26776107478E+03 -0.36539215005E+02 -0.38164608452E+03  0.46763751051E+03  0.25500000000E-02 0. -1.
<mgrwt>
<rscale>  0 0.28600123E+03</rscale>
<asrwt>0</asrwt>
<pdfrwt beam="1">  1       11 0.10000000E+01 0.28166416E+03</pdfrwt>
<pdfrwt beam="2">  1        2 0.75081391E-01 0.28600123E+03</pdfrwt>
<totfact> 0.79610318E+01</totfact>
</mgrwt>
</event>
<event>
 5    1  0.1851087E-003  0.5693199E+02  0.7818608E-02  0.1634309E+00
         11   -1    0    0    0    0  0.00000000000E+00  0.00000000000E+00  0.10002353605E+04  0.10002353605E+04  0.51100000000E-03 0.  1.
          2   -1    0    0  501    0 -0.00000000000E+00 -0.00000000000E+00 -0.71239017358E+01  0.71239021922E+01  0.25500000000E-02 0.  1.
         11    1    1    2    0    0  0.51077858201E+02 -0.43498230287E+02  0.26888510063E+03  0.27712856398E+03  0.51100000000E-03 0.  1.
         22    1    1    2    0    0 -0.91370900149E+01  0.89206548771E+01  0.18879847410E+02  0.22792830794E+02  0.00000000000E+00 0.  1.
          2    1    1    2  501    0 -0.41940768186E+02  0.34577575410E+02  0.70534651070E+03  0.70743786789E+03  0.25500000000E-02 0.  1.
<mgrwt>
<rscale>  0 0.26962981E+02</rscale>
<asrwt>0</asrwt>
<pdfrwt beam="1">  1       11 0.10000000E+01 0.56931986E+02</pdfrwt>
<pdfrwt beam="2">  1        2 0.10962428E-02 0.26962981E+02</pdfrwt>
<totfact> 0.10810605E+04</totfact>
</mgrwt>
</event>
<event>
 5    1  0.1851087E-003  0.2240411E+03  0.7818608E-02  0.1130906E+00
         11   -1    0    0    0    0  0.00000000000E+00  0.00000000000E+00  0.10005391705E+04  0.10005391705E+04  0.51100000000E-03 0.  1.
          2   -1    0    0  501    0 -0.00000000000E+00 -0.00000000000E+00 -0.12204738596E+03  0.12204738598E+03  0.25500000000E-02 0.  1.
         11    1    1    2    0    0  0.34565707230E+02  0.21988560963E+03  0.87038859153E+03  0.89839900362E+03  0.51100000000E-03 0.  1.
         22    1    1    2    0    0  0.38330496520E+01 -0.11692598870E+02  0.13061271998E+01  0.12373968896E+02  0.00000000000E+00 0. -1.
          2    1    1    2  501    0 -0.38398756882E+02 -0.20819301076E+03  0.67970658566E+01  0.21181358401E+03  0.25500000000E-02 0.  1.
<mgrwt>
<rscale>  0 0.22404106E+03</rscale>
<asrwt>0</asrwt>
<pdfrwt beam="1">  1       11 0.10000000E+01 0.22258587E+03</pdfrwt>
<pdfrwt beam="2">  1        2 0.18786644E-01 0.22404106E+03</pdfrwt>
<totfact> 0.36658441E+02</totfact>
</mgrwt>
</event>
<event>
 5    1  0.1851087E-003  0.1848423E+03  0.7818608E-02  0.1615603E+00
         11   -1    0    0    0    0  0.00000000000E+00  0.00000000000E+00  0.10001811739E+04  0.10001811739E+04  0.51100000000E-03 0.  1.
          2   -1    0    0  501    0 -0.00000000000E+00 -0.00000000000E+00 -0.78724192914E+03  0.78724192914E+03  0.25500000000E-02 0.  1.
         11    1    1    2    0    0 -0.43867924406E+02 -0.17976011404E+03  0.97697980233E+03  0.99434784032E+03  0.51100000000E-03 0.  1.
         22    1    1    2    0    0  0.17442199128E+02  0.16915744622E+03 -0.72546433125E+03  0.74512882634E+03  0.00000000000E+00 0.  1.
          2    1    1    2  501    0  0.26425725277E+02  0.10602667816E+02 -0.38576226293E+02  0.47946436393E+02  0.25500000000E-02 0.  1.
<mgrwt>
<rscale>  0 0.28473418E+02</rscale>
<asrwt>0</asrwt>
<pdfrwt beam="1">  1       11 0.10000000E+01 0.18484232E+03</pdfrwt>
<pdfrwt beam="2">  1        2 0.12113608E+00 0.28473418E+02</pdfrwt>
<totfact> 0.49099519E+01</totfact>
</mgrwt>
</event>
<event>
 5    1  0.1851087E-003  0.4193306E+03  0.7818608E-02  0.1037284E+00
         11   -1    0    0    0    0  0.00000000000E+00  0.00000000000E+00  0.10002633259E+04  0.10002633259E+04  0.51100000000E-03 0. -1.
          2   -1    0    0  501    0 -0.00000000000E+00 -0.00000000000E+00 -0.88371965258E+03  0.88371965258E+03  0.25500000000E-02 0. -1.
         11    1    1    2    0    0 -0.52762131894E+03 -0.15580249698E+03  0.71349741557E+03  0.90096461434E+03  0.51100000000E-03 0. -1.
         22    1    1    2    0    0  0.19368576188E+03 -0.85010261851E+02  0.48900693199E+02  0.21709950892E+03  0.00000000000E+00 0. -1.
          2    1    1    2  501    0  0.33393555705E+03  0.24081275883E+03 -0.64585443542E+03  0.76591885526E+03  0.25500000000E-02 0. -1.
<mgrwt>
<rscale>  0 0.41933061E+03</rscale>
<asrwt>0</asrwt>
<pdfrwt beam="1">  1       11 0.10000000E+01 0.21152049E+03</pdfrwt>
<pdfrwt beam="2">  1        2 0.13599267E+00 0.41933061E+03</pdfrwt>
<totfact> 0.38221306E+01</totfact>
</mgrwt>
</event>
<event>
 5    1  0.1851087E-003  0.2268192E+03  0.7818608E-02  0.1218774E+00
         11   -1    0    0    0    0  0.00000000000E+00  0.00000000000E+00  0.10002035413E+04  0.10002035413E+04  0.51100000000E-03 0. -1.
          2   -1    0    0  501    0 -0.00000000000E+00 -0.00000000000E+00 -0.15510708235E+03  0.15510708237E+03  0.25500000000E-02 0. -1.
         11    1    1    2    0    0 -0.69258356059E+02 -0.23147690500E+03  0.73410275588E+03  0.77284224368E+03  0.51100000000E-03 0. -1.
         22    1    1    2    0    0  0.75530080589E+02  0.30830160296E+02 -0.73510815518E+02  0.10981407859E+03  0.00000000000E+00 0. -1.
          2    1    1    2  501    0 -0.62717245301E+01  0.20064674470E+03  0.18450451859E+03  0.27265430140E+03  0.25500000000E-02 0. -1.
<mgrwt>
<rscale>  0 0.13602905E+03</rscale>
<asrwt>0</asrwt>
<pdfrwt beam="1">  1       11 0.10000000E+01 0.22681918E+03</pdfrwt>
<pdfrwt beam="2">  1        2 0.23867484E-01 0.13602905E+03</pdfrwt>
<totfact> 0.27567856E+02</totfact>
</mgrwt>
</event>
<event>
 5    1  0.1851087E-003  0.2088563E+03  0.7818608E-02  0.1142475E+00
         11   -1    0    0    0    0  0.00000000000E+00  0.00000000000E+00  0.10004696113E+04  0.10004696113E+04  0.51100000000E-03 0.  1.
          2   -1    0    0  501    0 -0.00000000000E+00 -0.00000000000E+00 -0.80265091982E+02  0.80265092023E+02  0.25500000000E-02 0.  1.
         11    1    1    2    0    0  0.13604360811E+03  0.13567803328E+03  0.83220434647E+03  0.85409628632E+03  0.51100000000E-03 0.  1.
         22    1    1    2    0    0 -0.27380668644E+02 -0.62049644098E+02 -0.13828213663E+01  0.67836358562E+02  0.00000000000E+00 0.  1.
          2    1    1    2  501    0 -0.10866293946E+03 -0.73628389180E+02  0.89382994231E+02  0.15880205846E+03  0.25500000000E-02 0.  1.
<mgrwt>
<rscale>  0 0.20885627E+03</rscale>
<asrwt>0</asrwt>
<pdfrwt beam="1">  1       11 0.10000000E+01 0.19213639E+03</pdfrwt>
<pdfrwt beam="2">  1        2 0.12354274E-01 0.20885627E+03</pdfrwt>
<totfact> 0.60052821E+02</totfact>
</mgrwt>
</event>
<event>
 5    1  0.1851087E-003  0.2648456E+03  0.7818608E-02  0.1104266E+00
         11   -1    0    0    0    0  0.00000000000E+00  0.00000000000E+00  0.10000535775E+04  0.10000535775E+04  0.51100000000E-03 0. -1.
         -2   -1    0    0    0  501 -0.00000000000E+00 -0.00000000000E+00 -0.13876023648E+03  0.13876023650E+03  0.25500000000E-02 0.  1.
         11    1    1    2    0    0  0.21243950714E+02 -0.24401401850E+03  0.83786622851E+03  0.87293411180E+03  0.51100000000E-03 0. -1.
         22    1    1    2    0    0  0.40549786288E+02  0.10422007321E+03  0.14639349658E+02  0.11278483669E+03  0.00000000000E+00 0. -1.
         -2    1    1    2    0  501 -0.61793737001E+02  0.13979394529E+03  0.87877628779E+01  0.15309486554E+03  0.25500000000E-02 0.  1.
<mgrwt>
<rscale>  0 0.26484559E+03</rscale>
<asrwt>0</asrwt>
<pdfrwt beam="1">  1       11 0.10000000E+01 0.24493703E+03</pdfrwt>
<pdfrwt beam="2">  1       -2 0.21348872E-01 0.26484559E+03</pdfrwt>
<totfact> 0.15075533E+02</totfact>
</mgrwt>
</event>
<event>
 5    1  0.1851087E-003  0.1730973E+03  0.7818608E-02  0.1174656E+00
         11   -1    0    0    0    0  0.00000000000E+00  0.00000000000E+00  0.10000288170E+04  0.10000288170E+04  0.51100000000E-03 0. -1.
          2   -1    0    0  501    0 -0.00000000000E+00 -0.00000000000E+00 -0.52820705498E+03  0.52820705498E+03  0.25500000000E-02 0.  1.
         11    1    1    2    0    0  0.61325488260E+02 -0.15897775565E+03  0.97828261051E+03  0.99301138379E+03  0.51100000000E-03 0. -1.
         22    1    1    2    0    0 -0.11813360912E+02  0.36565204680E+02 -0.15739534377E+03  0.16201809754E+03  0.00000000000E+00 0. -1.
          2    1    1    2  501    0 -0.49512127348E+02  0.12241255097E+03 -0.34906550475E+03  0.37320639063E+03  0.25500000000E-02 0.  1.
<mgrwt>
<rscale>  0 0.17309726E+03</rscale>
<asrwt>0</asrwt>
<pdfrwt beam="1">  1       11 0.10000000E+01 0.17039584E+03</pdfrwt>
<pdfrwt beam="2">  1        2 0.81264963E-01 0.17309726E+03</pdfrwt>
<totfact> 0.73452591E+01</totfact>
</mgrwt>
</event>
<event>
 5    1  0.1851087E-003  0.2214217E+03  0.7818608E-02  0.1270935E+00
         11   -1    0    0    0    0  0.00000000000E+00  0.00000000000E+00  0.10004262809E+04  0.10004262809E+04  0.51100000000E-03 0.  1.
          2   -1    0    0  501    0 -0.00000000000E+00 -0.00000000000E+00 -0.15908592940E+03  0.15908592942E+03  0.25500000000E-02 0.  1.
         11    1    1    2    0    0  0.53596307497E+02 -0.21409178998E+03  0.84366735468E+03  0.87205645692E+03  0.51100000000E-03 0.  1.
         22    1    1    2    0    0  0.49110108944E+02  0.53528775355E+01  0.20942383009E+02  0.53656681825E+02  0.00000000000E+00 0. -1.
          2    1    1    2  501    0 -0.10270641644E+03  0.20873891244E+03 -0.23269386161E+02  0.23379907160E+03  0.25500000000E-02 0.  1.
<mgrwt>
<rscale>  0 0.10458704E+03</rscale>
<asrwt>0</asrwt>
<pdfrwt beam="1">  1       11 0.10000000E+01 0.22142174E+03</pdfrwt>
<pdfrwt beam="2">  1        2 0.24485191E-01 0.10458704E+03</pdfrwt>
<totfact> 0.26606985E+02</totfact>
</mgrwt>
</event>
<event>
 5    1  0.1851087E-003  0.2483260E+03  0.7818608E-02  0.1114367E+00
         11   -1    0    0    0    0  0.00000000000E+00  0.00000000000E+00  0.10002822972E+04  0.10002822972E+04  0.51100000000E-03 0. -1.
          2   -1    0    0  501    0 -0.00000000000E+00 -0.00000000000E+00 -0.20033595154E+03  0.20033595155E+03  0.25500000000E-02 0. -1.
         11    1    1    2    0    0  0.16612934486E+03 -0.14483326034E+03  0.90465769266E+03  0.93111823815E+03  0.51100000000E-03 0. -1.
         22    1    1    2    0    0 -0.14879128155E+03  0.65517655043E+02 -0.44915086268E+02  0.16866764231E+03  0.00000000000E+00 0. -1.
          2    1    1    2  501    0 -0.17338063314E+02  0.79315605300E+02 -0.59796260760E+02  0.10083236827E+03  0.25500000000E-02 0. -1.
<mgrwt>
<rscale>  0 0.24832597E+03</rscale>
<asrwt>0</asrwt>
<pdfrwt beam="1">  1       11 0.10000000E+01 0.22039880E+03</pdfrwt>
<pdfrwt beam="2">  1        2 0.30829615E-01 0.24832597E+03</pdfrwt>
<totfact> 0.21039174E+02</totfact>
</mgrwt>
</event>
<event>
 5    1  0.1851087E-003  0.1298040E+03  0.7818608E-02  0.1335388E+00
         11   -1    0    0    0    0  0.00000000000E+00  0.00000000000E+00  0.10002883459E+04  0.10002883459E+04  0.51100000000E-03 0.  1.
          2   -1    0    0  501    0 -0.00000000000E+00 -0.00000000000E+00 -0.30802790895E+02  0.30802791001E+02  0.25500000000E-02 0.  1.
         11    1    1    2    0    0  0.10300156271E+03  0.99079169111E+02  0.45840283154E+03  0.48016576267E+03  0.51100000000E-03 0.  1.
         22    1    1    2    0    0  0.81909774138E+01 -0.45915881632E+02  0.32803263186E+02  0.57021174774E+02  0.00000000000E+00 0.  1.
          2    1    1    2  501    0 -0.11119254012E+03 -0.53163287479E+02  0.47827946028E+03  0.49390419946E+03  0.25500000000E-02 0.  1.
<mgrwt>
<rscale>  0 0.77808456E+02</rscale>
<asrwt>0</asrwt>
<pdfrwt beam="1">  1       11 0.10000000E+01 0.12980404E+03</pdfrwt>
<pdfrwt beam="2">  1        2 0.47402572E-02 0.77808456E+02</pdfrwt>
<totfact> 0.18686061E+03</totfact>
</mgrwt>
</event>
<event>
 5    1  0.1851087E-003  0.1101704E+03  0.7818608E-02  0.1260255E+00
         11   -1    0    0    0    0  0.00000000000E+00  0.00000000000E+00  0.10002581351E+04  0.10002581351E+04  0.51100000000E-03 0. -1.
         -2   -1    0    0    0  501 -0.00000000000E+00 -0.00000000000E+00 -0.12172690939E+02  0.12172691206E+02  0.25500000000E-02 0.  1.
         11    1    1    2    0    0  0.97897525636E+02 -0.31870585460E+02  0.60976208568E+03  0.61839264297E+03  0.51100000000E-03 0. -1.
         22    1    1    2    0    0 -0.58111391136E+02  0.49672466535E+01  0.15502752122E+03  0.16563556277E+03  0.00000000000E+00 0.  1.
         -2    1    1    2    0  501 -0.39786134501E+02  0.26903338807E+02  0.22329583724E+03  0.22840262054E+03  0.25500000000E-02 0.  1.
<mgrwt>
<rscale>  0 0.11017044E+03</rscale>
<asrwt>0</asrwt>
<pdfrwt beam="1">  1       11 0.10000000E+01 0.10295465E+03</pdfrwt>
<pdfrwt beam="2">  1       -2 0.18732051E-02 0.11017044E+03</pdfrwt>
<totfact> 0.61050325E+03</totfact>
</mgrwt>
</event>
<event>
 5    1  0.1851087E-003  0.1586811E+03  0.7818608E-02  0.1242215E+00
         11   -1    0    0    0    0  0.00000000000E+00  0.00000000000E+00  0.10006375298E+04  0.10006375298E+04  0.51100000000E-03 0. -1.
          2   -1    0    0  501    0 -0.00000000000E+00 -0.00000000000E+00 -0.43914570858E+03  0.43914570859E+03  0.25500000000E-02 0.  1.
         11    1    1    2    0    0  0.33105254307E+02 -0.15628580741E+03  0.95133640380E+03  0.96465650086E+03  0.51100000000E-03 0. -1.
         22    1    1    2    0    0  0.54490859039E+02  0.73580890699E+02 -0.31106267622E+02  0.96700574354E+02  0.00000000000E+00 0. -1.
          2    1    1    2  501    0 -0.87596113347E+02  0.82704916711E+02 -0.35873831498E+03  0.37842616315E+03  0.25500000000E-02 0.  1.
<mgrwt>
<rscale>  0 0.12053623E+03</rscale>
<asrwt>0</asrwt>
<pdfrwt beam="1">  1       11 0.10000000E+01 0.15868107E+03</pdfrwt>
<pdfrwt beam="2">  1        2 0.67603948E-01 0.12053623E+03</pdfrwt>
<totfact> 0.90288178E+01</totfact>
</mgrwt>
</event>
<event>
 5    1  0.1851087E-003  0.1632757E+03  0.7818608E-02  0.1284201E+00
         11   -1    0    0    0    0  0.00000000000E+00  0.00000000000E+00  0.10002695068E+04  0.10002695068E+04  0.51100000000E-03 0. -1.
          2   -1    0    0  501    0 -0.00000000000E+00 -0.00000000000E+00 -0.25354833254E+03  0.25354833255E+03  0.25500000000E-02 0. -1.
         11    1    1    2    0    0  0.36227921686E+01 -0.16726944016E+03  0.95736615999E+03  0.97187558593E+03  0.51100000000E-03 0. -1.
         22    1    1    2    0    0 -0.42820181495E+01  0.58864147756E+02 -0.14161826552E+03  0.15342443319E+03  0.00000000000E+00 0. -1.
          2    1    1    2  501    0  0.65922598092E+00  0.10840529241E+03 -0.69026720226E+02  0.12851782021E+03  0.25500000000E-02 0. -1.
<mgrwt>
<rscale>  0 0.98165585E+02</rscale>
<asrwt>0</asrwt>
<pdfrwt beam="1">  1       11 0.10000000E+01 0.16327572E+03</pdfrwt>
<pdfrwt beam="2">  1        2 0.39017947E-01 0.98165585E+02</pdfrwt>
<totfact> 0.16123729E+02</totfact>
</mgrwt>
</event>
<event>
 5    1  0.1851087E-003  0.1468415E+03  0.7818608E-02  0.1204409E+00
         11   -1    0    0    0    0  0.00000000000E+00  0.00000000000E+00  0.10002617016E+04  0.10002617016E+04  0.51100000000E-03 0.  1.
          2   -1    0    0  501    0 -0.00000000000E+00 -0.00000000000E+00 -0.21433596241E+02  0.21433596393E+02  0.25500000000E-02 0.  1.
         11    1    1    2    0    0  0.43042740163E+02  0.13780371985E+03  0.53915582730E+03  0.55815011314E+03  0.51100000000E-03 0.  1.
         22    1    1    2    0    0 -0.11011112084E+02 -0.12834471922E+02  0.36318518531E+02  0.40062489278E+02  0.00000000000E+00 0. -1.
          2    1    1    2  501    0 -0.32031628078E+02 -0.12496924792E+03  0.40335375957E+03  0.42348269562E+03  0.25500000000E-02 0.  1.
<mgrwt>
<rscale>  0 0.14684150E+03</rscale>
<asrwt>0</asrwt>
<pdfrwt beam="1">  1       11 0.10000000E+01 0.14436947E+03</pdfrwt>
<pdfrwt beam="2">  1        2 0.32983392E-02 0.14684150E+03</pdfrwt>
<totfact> 0.32014379E+03</totfact>
</mgrwt>
</event>
<event>
 5    1  0.1851087E-003  0.5278629E+02  0.7818608E-02  0.1474843E+00
         11   -1    0    0    0    0  0.00000000000E+00  0.00000000000E+00  0.10002344363E+04  0.10002344363E+04  0.51100000000E-03 0.  1.
         -2   -1    0    0    0  501 -0.00000000000E+00 -0.00000000000E+00 -0.91090021902E+01  0.91090025472E+01  0.25500000000E-02 0. -1.
         11    1    1    2    0    0 -0.18490384991E+02 -0.82649981191E+02  0.31803613949E+03  0.32911988659E+03  0.51100000000E-03 0.  1.
         22    1    1    2    0    0  0.41758146387E+01  0.37996948347E+02  0.14157255644E+03  0.14664240263E+03  0.00000000000E+00 0. -1.
         -2    1    1    2    0  501  0.14314570352E+02  0.44653032844E+02  0.53151673821E+03  0.53358114965E+03  0.25500000000E-02 0. -1.
<mgrwt>
<rscale>  0 0.44919849E+02</rscale>
<asrwt>0</asrwt>
<pdfrwt beam="1">  1       11 0.10000000E+01 0.52786289E+02</pdfrwt>
<pdfrwt beam="2">  1       -2 0.14017135E-02 0.44919849E+02</pdfrwt>
<totfact> 0.80311112E+03</totfact>
</mgrwt>
</event>
<event>
 5    1  0.1851087E-003  0.7877883E+02  0.7818608E-02  0.1332553E+00
         11   -1    0    0    0    0  0.00000000000E+00  0.00000000000E+00  0.10001741188E+04  0.10001741188E+04  0.51100000000E-03 0. -1.
          2   -1    0    0  501    0 -0.00000000000E+00 -0.00000000000E+00 -0.60034976714E+01  0.60034982130E+01  0.25500000000E-02 0. -1.
         11    1    1    2    0    0  0.72759968894E+02 -0.21147143849E+02  0.45009271670E+03  0.45642597252E+03  0.51100000000E-03 0. -1.
         22    1    1    2    0    0 -0.15863377654E+02  0.12330849744E+02  0.10396600485E+03  0.10588969152E+03  0.00000000000E+00 0.  1.
          2    1    1    2  501    0 -0.56896591240E+02  0.88162941058E+01  0.44011189955E+03  0.44386195294E+03  0.25500000000E-02 0. -1.
<mgrwt>
<rscale>  0 0.78778833E+02</rscale>
<asrwt>0</asrwt>
<pdfrwt beam="1">  1       11 0.10000000E+01 0.75770842E+02</pdfrwt>
<pdfrwt beam="2">  1        2 0.92377586E-03 0.78778833E+02</pdfrwt>
<totfact> 0.16623434E+04</totfact>
</mgrwt>
</event>
<event>
 5    1  0.1851087E-003  0.1604855E+03  0.7818608E-02  0.1188150E+00
         11   -1    0    0    0    0  0.00000000000E+00  0.00000000000E+00  0.10002480162E+04  0.10002480162E+04  0.51100000000E-03 0.  1.
          2   -1    0    0  501    0 -0.00000000000E+00 -0.00000000000E+00 -0.52860510746E+02  0.52860510808E+02  0.25500000000E-02 0.  1.
         11    1    1    2    0    0 -0.71473921241E+02  0.14094214651E+03  0.85175314943E+03  0.86628900354E+03  0.51100000000E-03 0.  1.
         22    1    1    2    0    0  0.66534012080E+02 -0.10814676270E+03  0.70735101007E+02  0.14534769197E+03  0.00000000000E+00 0.  1.
          2    1    1    2  501    0  0.49399091609E+01 -0.32795383816E+02  0.24899255031E+02  0.41471831521E+02  0.25500000000E-02 0.  1.
<mgrwt>
<rscale>  0 0.16048553E+03</rscale>
<asrwt>0</asrwt>
<pdfrwt beam="1">  1       11 0.10000000E+01 0.15802914E+03</pdfrwt>
<pdfrwt beam="2">  1        2 0.81344030E-02 0.16048553E+03</pdfrwt>
<totfact> 0.99308245E+02</totfact>
</mgrwt>
</event>
<event>
 5    1  0.1851087E-003  0.2208550E+03  0.7818608E-02  0.1250741E+00
         11   -1    0    0    0    0  0.00000000000E+00  0.00000000000E+00  0.10002647396E+04  0.10002647396E+04  0.51100000000E-03 0. -1.
          2   -1    0    0  501    0 -0.00000000000E+00 -0.00000000000E+00 -0.48767577281E+03  0.48767577282E+03  0.25500000000E-02 0.  1.
         11    1    1    2    0    0 -0.70643597567E+02 -0.21051237949E+03  0.95076331451E+03  0.97634873893E+03  0.51100000000E-03 0. -1.
         22    1    1    2    0    0  0.58992414046E+02  0.12890378950E+02 -0.15258255352E+03  0.16409662526E+03  0.00000000000E+00 0.  1.
          2    1    1    2  501    0  0.11651183521E+02  0.19762200054E+03 -0.28559179416E+03  0.34749514827E+03  0.25500000000E-02 0.  1.
<mgrwt>
<rscale>  0 0.11548237E+03</rscale>
<asrwt>0</asrwt>
<pdfrwt beam="1">  1       11 0.10000000E+01 0.22085495E+03</pdfrwt>
<pdfrwt beam="2">  1        2 0.75046902E-01 0.11548237E+03</pdfrwt>
<totfact> 0.80694810E+01</totfact>
</mgrwt>
</event>
<event>
 5    1  0.1851087E-003  0.6682394E+03  0.7818608E-02  0.9773144E-01
         11   -1    0    0    0    0  0.00000000000E+00  0.00000000000E+00  0.99981748292E+03  0.99981748292E+03  0.51100000000E-03 0.  1.
          2   -1    0    0  501    0 -0.00000000000E+00 -0.00000000000E+00 -0.54950286263E+03  0.54950286264E+03  0.25500000000E-02 0. -1.
         11    1    1    2    0    0 -0.34051609228E+03 -0.57133725080E+03  0.56329728979E+03  0.87159698251E+03  0.51100000000E-03 0.  1.
         22    1    1    2    0    0  0.19251179343E+01  0.25179939865E+02 -0.87545954192E+01  0.26727857969E+02  0.00000000000E+00 0.  1.
          2    1    1    2  501    0  0.33859097434E+03  0.54615731093E+03 -0.10422807409E+03  0.65099550507E+03  0.25500000000E-02 0. -1.
<mgrwt>
<rscale>  0 0.66823938E+03</rscale>
<asrwt>0</asrwt>
<pdfrwt beam="1">  1       11 0.10000000E+01 0.66511462E+03</pdfrwt>
<pdfrwt beam="2">  1        2 0.84523470E-01 0.66823938E+03</pdfrwt>
<totfact> 0.68418933E+01</totfact>
</mgrwt>
</event>
<event>
 5    1  0.1851087E-003  0.3414834E+03  0.7818608E-02  0.1199215E+00
         11   -1    0    0    0    0  0.00000000000E+00  0.00000000000E+00  0.10003657586E+04  0.10003657586E+04  0.51100000000E-03 0.  1.
          2   -1    0    0  501    0 -0.00000000000E+00 -0.00000000000E+00 -0.92983266123E+03  0.92983266123E+03  0.25500000000E-02 0.  1.
         11    1    1    2    0    0  0.41050605948E+02 -0.33901582053E+03  0.92201404379E+03  0.98322264812E+03  0.51100000000E-03 0.  1.
         22    1    1    2    0    0  0.66251611388E+02  0.85060535478E+01 -0.14626359510E+03  0.16079386869E+03  0.00000000000E+00 0. -1.
          2    1    1    2  501    0 -0.10730221734E+03  0.33050976699E+03 -0.70521735136E+03  0.78618190299E+03  0.25500000000E-02 0.  1.
<mgrwt>
<rscale>  0 0.15102823E+03</rscale>
<asrwt>0</asrwt>
<pdfrwt beam="1">  1       11 0.10000000E+01 0.34148335E+03</pdfrwt>
<pdfrwt beam="2">  1        2 0.14310350E+00 0.15102823E+03</pdfrwt>
<totfact> 0.37278881E+01</totfact>
</mgrwt>
</event>
<event>
 5    1  0.1851087E-003  0.1822613E+03  0.7818608E-02  0.1412629E+00
         11   -1    0    0    0    0  0.00000000000E+00  0.00000000000E+00  0.10001673183E+04  0.10001673183E+04  0.51100000000E-03 0. -1.
          2   -1    0    0  501    0 -0.00000000000E+00 -0.00000000000E+00 -0.22965696837E+03  0.22965696839E+03  0.25500000000E-02 0. -1.
         11    1    1    2    0    0  0.82213441343E+01  0.18253437079E+03  0.94974440950E+03  0.96716122254E+03  0.51100000000E-03 0. -1.
         22    1    1    2    0    0  0.12802850091E+02 -0.12053053959E+02 -0.56838607409E+01  0.18479592882E+02  0.00000000000E+00 0. -1.
          2    1    1    2  501    0 -0.21024194225E+02 -0.17048131683E+03 -0.17355019882E+03  0.24418347128E+03  0.25500000000E-02 0. -1.
<mgrwt>
<rscale>  0 0.56611322E+02</rscale>
<asrwt>0</asrwt>
<pdfrwt beam="1">  1       11 0.10000000E+01 0.18226133E+03</pdfrwt>
<pdfrwt beam="2">  1        2 0.35337752E-01 0.56611322E+02</pdfrwt>
<totfact> 0.17718741E+02</totfact>
</mgrwt>
</event>
<event>
 5    1  0.1851087E-003  0.1035416E+03  0.7818608E-02  0.1273020E+00
         11   -1    0    0    0    0  0.00000000000E+00  0.00000000000E+00  0.10001768741E+04  0.10001768741E+04  0.51100000000E-03 0.  1.
          2   -1    0    0  501    0 -0.00000000000E+00 -0.00000000000E+00 -0.10531670061E+02  0.10531670370E+02  0.25500000000E-02 0.  1.
         11    1    1    2    0    0  0.67388891730E+02  0.76074242051E+02  0.50558205846E+03  0.51569542452E+03  0.51100000000E-03 0.  1.
         22    1    1    2    0    0 -0.17028489371E+02 -0.82224356423E+01  0.79204388763E+02  0.81430418748E+02  0.00000000000E+00 0. -1.
          2    1    1    2  501    0 -0.50360402360E+02 -0.67851806409E+02  0.40485875683E+03  0.41358270122E+03  0.25500000000E-02 0.  1.
<mgrwt>
<rscale>  0 0.10354159E+03</rscale>
<asrwt>0</asrwt>
<pdfrwt beam="1">  1       11 0.10000000E+01 0.10162949E+03</pdfrwt>
<pdfrwt beam="2">  1        2 0.16205435E-02 0.10354159E+03</pdfrwt>
<totfact> 0.80471652E+03</totfact>
</mgrwt>
</event>
<event>
 5    1  0.1851087E-003  0.1074820E+03  0.7818608E-02  0.1265305E+00
         11   -1    0    0    0    0  0.00000000000E+00  0.00000000000E+00  0.10002294780E+04  0.10002294780E+04  0.51100000000E-03 0.  1.
          2   -1    0    0  501    0 -0.00000000000E+00 -0.00000000000E+00 -0.10949096950E+02  0.10949097247E+02  0.25500000000E-02 0.  1.
         11    1    1    2    0    0  0.70480446394E+02 -0.73469297919E+02  0.47679911871E+03  0.48754756759E+03  0.51100000000E-03 0.  1.
         22    1    1    2    0    0 -0.46553779243E+02  0.25172759835E+02  0.22496549484E+03  0.23110689317E+03  0.00000000000E+00 0.  1.
          2    1    1    2  501    0 -0.23926667151E+02  0.48296538084E+02  0.28751576748E+03  0.29252411447E+03  0.25500000000E-02 0.  1.
<mgrwt>
<rscale>  0 0.10748204E+03</rscale>
<asrwt>0</asrwt>
<pdfrwt beam="1">  1       11 0.10000000E+01 0.10180983E+03</pdfrwt>
<pdfrwt beam="2">  1        2 0.16848630E-02 0.10748204E+03</pdfrwt>
<totfact> 0.76698293E+03</totfact>
</mgrwt>
</event>
<event>
 5    1  0.1851087E-003  0.1557259E+03  0.7818608E-02  0.1193609E+00
         11   -1    0    0    0    0  0.00000000000E+00  0.00000000000E+00  0.10000844560E+04  0.10000844560E+04  0.51100000000E-03 0. -1.
          2   -1    0    0  501    0 -0.00000000000E+00 -0.00000000000E+00 -0.73018214477E+02  0.73018214522E+02  0.25500000000E-02 0. -1.
         11    1    1    2    0    0  0.79356287665E+02  0.13260920603E+03  0.90227717551E+03  0.91541614764E+03  0.51100000000E-03 0. -1.
         22    1    1    2    0    0 -0.89966757754E+01 -0.74270709291E+01  0.51391997019E+01  0.12748055976E+02  0.00000000000E+00 0. -1.
          2    1    1    2  501    0 -0.70359611890E+02 -0.12518213510E+03  0.19649866306E+02  0.14493846690E+03  0.25500000000E-02 0. -1.
<mgrwt>
<rscale>  0 0.15572585E+03</rscale>
<asrwt>0</asrwt>
<pdfrwt beam="1">  1       11 0.10000000E+01 0.15454003E+03</pdfrwt>
<pdfrwt beam="2">  1        2 0.11234520E-01 0.15572585E+03</pdfrwt>
<totfact> 0.66474033E+02</totfact>
</mgrwt>
</event>
<event>
 5    1  0.1851087E-003  0.1440352E+03  0.7818608E-02  0.1208000E+00
         11   -1    0    0    0    0  0.00000000000E+00  0.00000000000E+00  0.10000341860E+04  0.10000341860E+04  0.51100000000E-03 0. -1.
          2   -1    0    0  501    0 -0.00000000000E+00 -0.00000000000E+00 -0.23627171837E+02  0.23627171975E+02  0.25500000000E-02 0. -1.
         11    1    1    2    0    0  0.76939256587E+02 -0.11429404557E+03  0.27459903945E+03  0.30722534161E+03  0.51100000000E-03 0. -1.
         22    1    1    2    0    0 -0.86272468339E+01  0.45673323221E+02  0.19517186403E+03  0.20063035251E+03  0.00000000000E+00 0. -1.
          2    1    1    2  501    0 -0.68312009753E+02  0.68620722346E+02  0.50663611072E+03  0.51580566390E+03  0.25500000000E-02 0. -1.
<mgrwt>
<rscale>  0 0.14403518E+03</rscale>
<asrwt>0</asrwt>
<pdfrwt beam="1">  1       11 0.10000000E+01 0.13777807E+03</pdfrwt>
<pdfrwt beam="2">  1        2 0.36350737E-02 0.14403518E+03</pdfrwt>
<totfact> 0.28059997E+03</totfact>
</mgrwt>
</event>
<event>
 5    1  0.1851087E-003  0.2052360E+03  0.7818608E-02  0.1145395E+00
         11   -1    0    0    0    0  0.00000000000E+00  0.00000000000E+00  0.10002262816E+04  0.10002262816E+04  0.51100000000E-03 0.  1.
          2   -1    0    0  501    0 -0.00000000000E+00 -0.00000000000E+00 -0.10512715146E+03  0.10512715149E+03  0.25500000000E-02 0.  1.
         11    1    1    2    0    0 -0.20175650519E+03  0.31892392466E+00  0.87633644910E+03  0.89926156435E+03  0.51100000000E-03 0.  1.
         22    1    1    2    0    0  0.19963855021E+02 -0.11573095276E+02  0.12123961555E+01  0.23107616623E+02  0.00000000000E+00 0. -1.
          2    1    1    2  501    0  0.18179265017E+03  0.11254171351E+02  0.17550284918E+02  0.18298425215E+03  0.25500000000E-02 0.  1.
<mgrwt>
<rscale>  0 0.20523601E+03</rscale>
<asrwt>0</asrwt>
<pdfrwt beam="1">  1       11 0.10000000E+01 0.20175676E+03</pdfrwt>
<pdfrwt beam="2">  1        2 0.16177067E-01 0.20523601E+03</pdfrwt>
<totfact> 0.43507835E+02</totfact>
</mgrwt>
</event>
<event>
 5    1  0.1851087E-003  0.4614658E+02  0.7818608E-02  0.1530900E+00
         11   -1    0    0    0    0  0.00000000000E+00  0.00000000000E+00  0.10001358105E+04  0.10001358105E+04  0.51100000000E-03 0.  1.
          2   -1    0    0  501    0 -0.00000000000E+00 -0.00000000000E+00 -0.47695352396E+01  0.47695359213E+01  0.25500000000E-02 0.  1.
         11    1    1    2    0    0 -0.11866162727E+02 -0.54233845400E+02  0.29650921636E+03  0.30166178279E+03  0.51100000000E-03 0.  1.
         22    1    1    2    0    0  0.27233397049E+02  0.12070835691E+02  0.17987713599E+03  0.18232703322E+03  0.00000000000E+00 0. -1.
          2    1    1    2  501    0 -0.15367234322E+02  0.42163009709E+02  0.51897992291E+03  0.52091653043E+03  0.25500000000E-02 0.  1.
<mgrwt>
<rscale>  0 0.37076180E+02</rscale>
<asrwt>0</asrwt>
<pdfrwt beam="1">  1       11 0.10000000E+01 0.46146581E+02</pdfrwt>
<pdfrwt beam="2">  1        2 0.73387434E-03 0.37076180E+02</pdfrwt>
<totfact> 0.19661259E+04</totfact>
</mgrwt>
</event>
<event>
 5    1  0.1851087E-003  0.1300396E+03  0.7818608E-02  0.1227397E+00
         11   -1    0    0    0    0  0.00000000000E+00  0.00000000000E+00  0.10002504999E+04  0.10002504999E+04  0.51100000000E-03 0. -1.
          2   -1    0    0  501    0 -0.00000000000E+00 -0.00000000000E+00 -0.19270412501E+02  0.19270412670E+02  0.25500000000E-02 0.  1.
         11    1    1    2    0    0 -0.79009128282E+02 -0.10825338969E+03  0.55599177403E+03  0.57191615777E+03  0.51100000000E-03 0. -1.
         22    1    1    2    0    0 -0.32410378595E+01  0.10822529358E+02  0.58187968305E+02  0.59274540264E+02  0.00000000000E+00 0.  1.
          2    1    1    2  501    0  0.82250166141E+02  0.97430860330E+02  0.36680034508E+03  0.38833021455E+03  0.25500000000E-02 0.  1.
<mgrwt>
<rscale>  0 0.13003956E+03</rscale>
<asrwt>0</asrwt>
<pdfrwt beam="1">  1       11 0.10000000E+01 0.11297410E+02</pdfrwt>
<pdfrwt beam="2">  1        2 0.29654214E-02 0.13003956E+03</pdfrwt>
<totfact> 0.36485134E+03</totfact>
</mgrwt>
</event>
<event>
 5    1  0.1851087E-003  0.1350433E+03  0.7818608E-02  0.1243489E+00
         11   -1    0    0    0    0  0.00000000000E+00  0.00000000000E+00  0.10001584246E+04  0.10001584246E+04  0.51100000000E-03 0. -1.
          2   -1    0    0  501    0 -0.00000000000E+00 -0.00000000000E+00 -0.46153051623E+02  0.46153051693E+02  0.25500000000E-02 0. -1.
         11    1    1    2    0    0  0.59760019749E+02 -0.12395479873E+03  0.52385955679E+03  0.54163168974E+03  0.51100000000E-03 0. -1.
         22    1    1    2    0    0  0.84976243547E+02  0.63717756360E+02  0.19535447131E+03  0.22236070674E+03  0.00000000000E+00 0. -1.
          2    1    1    2  501    0 -0.14473626330E+03  0.60237042369E+02  0.23479134484E+03  0.28231907977E+03  0.25500000000E-02 0. -1.
<mgrwt>
<rscale>  0 0.11976298E+03</rscale>
<asrwt>0</asrwt>
<pdfrwt beam="1">  1       11 0.10000000E+01 0.13504330E+03</pdfrwt>
<pdfrwt beam="2">  1        2 0.71015942E-02 0.11976298E+03</pdfrwt>
<totfact> 0.11560267E+03</totfact>
</mgrwt>
</event>
<event>
 5    1  0.1851087E-003  0.2343191E+03  0.7818608E-02  0.1123636E+00
         11   -1    0    0    0    0  0.00000000000E+00  0.00000000000E+00  0.10003529084E+04  0.10003529084E+04  0.51100000000E-03 0.  1.
          2   -1    0    0  501    0 -0.00000000000E+00 -0.00000000000E+00 -0.70406289213E+03  0.70406289213E+03  0.25500000000E-02 0.  1.
         11    1    1    2    0    0 -0.12796293618E+03 -0.19227129942E+03  0.96687165639E+03  0.99407422537E+03  0.51100000000E-03 0.  1.
         22    1    1    2    0    0  0.23629852060E+02  0.16134944628E+02 -0.62868132948E+02  0.69073211066E+02  0.00000000000E+00 0.  1.
          2    1    1    2  501    0  0.10433308412E+03  0.17613635479E+03 -0.60771350720E+03  0.64126836407E+03  0.25500000000E-02 0.  1.
<mgrwt>
<rscale>  0 0.23431905E+03</rscale>
<asrwt>0</asrwt>
<pdfrwt beam="1">  1       11 0.10000000E+01 0.23096053E+03</pdfrwt>
<pdfrwt beam="2">  1        2 0.10835559E+00 0.23431905E+03</pdfrwt>
<totfact> 0.52196527E+01</totfact>
</mgrwt>
</event>
<event>
 5    1  0.1851087E-003  0.1485875E+03  0.7818608E-02  0.1445783E+00
         11   -1    0    0    0    0  0.00000000000E+00  0.00000000000E+00  0.10004043074E+04  0.10004043074E+04  0.51100000000E-03 0. -1.
         -2   -1    0    0    0  501 -0.00000000000E+00 -0.00000000000E+00 -0.45754851684E+02  0.45754851755E+02  0.25500000000E-02 0.  1.
         11    1    1    2    0    0  0.53859761668E+02  0.13795612109E+03  0.80818347148E+03  0.82164060808E+03  0.51100000000E-03 0. -1.
         22    1    1    2    0    0 -0.14407920126E+02  0.85818315462E+01  0.62340692267E+01  0.17891327904E+02  0.00000000000E+00 0. -1.
         -2    1    1    2    0  501 -0.39451841542E+02 -0.14653795264E+03  0.14023191503E+03  0.20662722319E+03  0.25500000000E-02 0.  1.
<mgrwt>
<rscale>  0 0.49918190E+02</rscale>
<asrwt>0</asrwt>
<pdfrwt beam="1">  1       11 0.10000000E+01 0.14858748E+03</pdfrwt>
<pdfrwt beam="2">  1       -2 0.70420538E-02 0.49918190E+02</pdfrwt>
<totfact> 0.80700113E+02</totfact>
</mgrwt>
</event>
<event>
 5    1  0.1851087E-003  0.2687070E+03  0.7818608E-02  0.1308376E+00
         11   -1    0    0    0    0  0.00000000000E+00  0.00000000000E+00  0.10003891916E+04  0.10003891916E+04  0.51100000000E-03 0. -1.
          2   -1    0    0  501    0 -0.00000000000E+00 -0.00000000000E+00 -0.10662272687E+03  0.10662272690E+03  0.25500000000E-02 0. -1.
         11    1    1    2    0    0  0.26587330167E+03  0.95416420913E+02  0.43939078389E+03  0.52235731725E+03  0.51100000000E-03 0. -1.
         22    1    1    2    0    0 -0.26231228957E+03 -0.77318124141E+01  0.40876296018E+03  0.48575166062E+03  0.00000000000E+00 0. -1.
          2    1    1    2  501    0 -0.35610121041E+01 -0.87684608499E+02  0.45612720675E+02  0.98902940647E+02  0.25500000000E-02 0. -1.
<mgrwt>
<rscale>  0 0.87756888E+02</rscale>
<asrwt>0</asrwt>
<pdfrwt beam="1">  1       11 0.10000000E+01 0.26870696E+03</pdfrwt>
<pdfrwt beam="2">  1        2 0.16409880E-01 0.87756888E+02</pdfrwt>
<totfact> 0.41366919E+02</totfact>
</mgrwt>
</event>
<event>
 5    1  0.1851087E-003  0.2553224E+03  0.7818608E-02  0.1117677E+00
         11   -1    0    0    0    0  0.00000000000E+00  0.00000000000E+00  0.10001278983E+04  0.10001278983E+04  0.51100000000E-03 0. -1.
         -2   -1    0    0    0  501 -0.00000000000E+00 -0.00000000000E+00 -0.76923402079E+02  0.76923402121E+02  0.25500000000E-02 0.  1.
         11    1    1    2    0    0  0.19402143715E+03 -0.93835535491E+02  0.66940946481E+03  0.70324850328E+03  0.51100000000E-03 0. -1.
         22    1    1    2    0    0  0.18649116084E+02 -0.24143288633E+02  0.37409766782E+02  0.48271923179E+02  0.00000000000E+00 0. -1.
         -2    1    1    2    0  501 -0.21267055323E+03  0.11797882412E+03  0.21638526467E+03  0.32553087400E+03  0.25500000000E-02 0.  1.
<mgrwt>
<rscale>  0 0.24320314E+03</rscale>
<asrwt>0</asrwt>
<pdfrwt beam="1">  1       11 0.10000000E+01 0.25532239E+03</pdfrwt>
<pdfrwt beam="2">  1       -2 0.11835883E-01 0.24320314E+03</pdfrwt>
<totfact> 0.40244748E+02</totfact>
</mgrwt>
</event>
<event>
 5    1  0.1851087E-003  0.1583263E+03  0.7818608E-02  0.1190599E+00
         11   -1    0    0    0    0  0.00000000000E+00  0.00000000000E+00  0.10002901804E+04  0.10002901804E+04  0.51100000000E-03 0. -1.
          2   -1    0    0  501    0 -0.00000000000E+00 -0.00000000000E+00 -0.24438135246E+02  0.24438135379E+02  0.25500000000E-02 0. -1.
         11    1    1    2    0    0  0.14508680336E+03 -0.22795657203E+02  0.58198869427E+03  0.60023384006E+03  0.51100000000E-03 0. -1.
         22    1    1    2    0    0 -0.96765627814E+02 -0.20334373767E+01  0.18632804778E+03  0.20996633774E+03  0.00000000000E+00 0. -1.
          2    1    1    2  501    0 -0.48321175545E+02  0.24829094580E+02  0.20753530312E+03  0.21452813800E+03  0.25500000000E-02 0. -1.
<mgrwt>
<rscale>  0 0.15832631E+03</rscale>
<asrwt>0</asrwt>
<pdfrwt beam="1">  1       11 0.10000000E+01 0.14686668E+03</pdfrwt>
<pdfrwt beam="2">  1        2 0.37608040E-02 0.15832631E+03</pdfrwt>
<totfact> 0.27049562E+03</totfact>
</mgrwt>
</event>
<event>
 5    1  0.1851087E-003  0.1172232E+03  0.7818608E-02  0.1247749E+00
         11   -1    0    0    0    0  0.00000000000E+00  0.00000000000E+00  0.10003892539E+04  0.10003892539E+04  0.51100000000E-03 0. -1.
          2   -1    0    0  501    0 -0.00000000000E+00 -0.00000000000E+00 -0.13673057855E+02  0.13673058093E+02  0.25500000000E-02 0. -1.
         11    1    1    2    0    0  0.18768042515E+02  0.11421028536E+03  0.53575082380E+03  0.54811054898E+03  0.51100000000E-03 0. -1.
         22    1    1    2    0    0 -0.89024337937E+01 -0.16174103105E+02  0.82413909860E+02  0.84456541944E+02  0.00000000000E+00 0. -1.
          2    1    1    2  501    0 -0.98656087211E+01 -0.98036182252E+02  0.36855146241E+03  0.38149522109E+03  0.25500000000E-02 0. -1.
<mgrwt>
<rscale>  0 0.11722320E+03</rscale>
<asrwt>0</asrwt>
<pdfrwt beam="1">  1       11 0.10000000E+01 0.11574208E+03</pdfrwt>
<pdfrwt beam="2">  1        2 0.21043661E-02 0.11722320E+03</pdfrwt>
<totfact> 0.57310618E+03</totfact>
</mgrwt>
</event>
<event>
 5    1  0.2249362E-003  0.1659578E+03  0.7818608E-02  0.1452950E+00
         11   -1    0    0    0    0  0.00000000000E+00  0.00000000000E+00  0.99992205924E+03  0.99992205924E+03  0.51100000000E-03 0. -1.
          2   -1    0    0  501    0 -0.00000000000E+00 -0.00000000000E+00 -0.79058072407E+03  0.79058072408E+03  0.25500000000E-02 0. -1.
         11    1    1    2    0    0 -0.10692807440E+03 -0.12702684278E+03  0.98246348782E+03  0.99639547208E+03  0.51100000000E-03 0. -1.
         22    1    1    2    0    0 -0.24784945248E+01  0.14024581241E+02 -0.18933599407E+02  0.23692045091E+02  0.00000000000E+00 0. -1.
          2    1    1    2  501    0  0.10940656893E+03  0.11300226154E+03 -0.75418855325E+03  0.77041526614E+03  0.25500000000E-02 0. -1.
<mgrwt>
<rscale>  0 0.48616403E+02</rscale>
<asrwt>0</asrwt>
<pdfrwt beam="1">  1       11 0.10000000E+01 0.16595778E+03</pdfrwt>
<pdfrwt beam="2">  1        2 0.12161832E+00 0.48616403E+02</pdfrwt>
<totfact> 0.47911484E+01</totfact>
</mgrwt>
</event>
<event>
 5    1  0.1851087E-003  0.3890805E+03  0.7818608E-02  0.1047628E+00
         11   -1    0    0    0    0  0.00000000000E+00  0.00000000000E+00  0.10004507618E+04  0.10004507618E+04  0.51100000000E-03 0. -1.
          2   -1    0    0  501    0 -0.00000000000E+00 -0.00000000000E+00 -0.26881405537E+03  0.26881405538E+03  0.25500000000E-02 0. -1.
         11    1    1    2    0    0 -0.19834355364E+02 -0.38026317246E+03  0.78890383801E+03  0.87599243582E+03  0.51100000000E-03 0. -1.
         22    1    1    2    0    0  0.39568936569E+02  0.21308401891E+03 -0.42046623617E+01  0.21676756916E+03  0.00000000000E+00 0. -1.
          2    1    1    2  501    0 -0.19734581205E+02  0.16717915355E+03 -0.53062469231E+02  0.17650481219E+03  0.25500000000E-02 0. -1.
<mgrwt>
<rscale>  0 0.38908051E+03</rscale>
<asrwt>0</asrwt>
<pdfrwt beam="1">  1       11 0.10000000E+01 0.38078010E+03</pdfrwt>
<pdfrwt beam="2">  1        2 0.41374649E-01 0.38908051E+03</pdfrwt>
<totfact> 0.15298310E+02</totfact>
</mgrwt>
</event>
<event>
 5    1  0.1851087E-003  0.2437686E+03  0.7818608E-02  0.1117307E+00
         11   -1    0    0    0    0  0.00000000000E+00  0.00000000000E+00  0.99998485044E+03  0.99998485044E+03  0.51100000000E-03 0. -1.
         -2   -1    0    0    0  501 -0.00000000000E+00 -0.00000000000E+00 -0.64685226710E+02  0.64685226760E+02  0.25500000000E-02 0.  1.
         11    1    1    2    0    0 -0.22183736047E+03 -0.95756705184E+02  0.62493911903E+03  0.67002243513E+03  0.51100000000E-03 0. -1.
         22    1    1    2    0    0  0.10615894089E+02  0.39187208883E+01  0.28409098973E+02  0.30579903289E+02  0.00000000000E+00 0. -1.
         -2    1    1    2    0  501  0.21122146638E+03  0.91837984296E+02  0.28195140573E+03  0.36406773878E+03  0.25500000000E-02 0.  1.
<mgrwt>
<rscale>  0 0.24376858E+03</rscale>
<asrwt>0</asrwt>
<pdfrwt beam="1">  1       11 0.10000000E+01 0.24162194E+03</pdfrwt>
<pdfrwt beam="2">  1       -2 0.99514223E-02 0.24376858E+03</pdfrwt>
<totfact> 0.53155256E+02</totfact>
</mgrwt>
</event>
<event>
 5    1  0.1851087E-003  0.1912996E+03  0.7818608E-02  0.1208361E+00
         11   -1    0    0    0    0  0.00000000000E+00  0.00000000000E+00  0.99986862480E+03  0.99986862480E+03  0.51100000000E-03 0. -1.
          2   -1    0    0  501    0 -0.00000000000E+00 -0.00000000000E+00 -0.15914679338E+03  0.15914679340E+03  0.25500000000E-02 0. -1.
         11    1    1    2    0    0 -0.31483700971E+02 -0.18424310734E+03  0.74074412289E+03  0.76396243470E+03  0.51100000000E-03 0. -1.
         22    1    1    2    0    0  0.87027233272E+02 -0.64006862162E+02  0.89769308461E+02  0.14046048012E+03  0.00000000000E+00 0.  1.
          2    1    1    2  501    0 -0.55543532301E+02  0.24824996950E+03  0.10208400073E+02  0.25459250338E+03  0.25500000000E-02 0. -1.
<mgrwt>
<rscale>  0 0.14375749E+03</rscale>
<asrwt>0</asrwt>
<pdfrwt beam="1">  1       11 0.10000000E+01 0.19129960E+03</pdfrwt>
<pdfrwt beam="2">  1        2 0.24480905E-01 0.14375749E+03</pdfrwt>
<totfact> 0.26841847E+02</totfact>
</mgrwt>
</event>
<event>
 5    1  0.1851087E-003  0.2008847E+03  0.7818608E-02  0.1148995E+00
         11   -1    0    0    0    0  0.00000000000E+00  0.00000000000E+00  0.10002613241E+04  0.10002613241E+04  0.51100000000E-03 0.  1.
         -2   -1    0    0    0  501 -0.00000000000E+00 -0.00000000000E+00 -0.63280693954E+02  0.63280694006E+02  0.25500000000E-02 0.  1.
         11    1    1    2    0    0  0.18366234856E+03  0.70298743679E+02  0.79136027484E+03  0.81542924662E+03  0.51100000000E-03 0.  1.
         22    1    1    2    0    0 -0.23872044331E+02 -0.17375913820E+02  0.38784573001E+02  0.48744640572E+02  0.00000000000E+00 0. -1.
         -2    1    1    2    0  501 -0.15979030423E+03 -0.52922829859E+02  0.10683578235E+03  0.19936813096E+03  0.25500000000E-02 0.  1.
<mgrwt>
<rscale>  0 0.20088469E+03</rscale>
<asrwt>0</asrwt>
<pdfrwt beam="1">  1       11 0.10000000E+01 0.19665648E+03</pdfrwt>
<pdfrwt beam="2">  1       -2 0.97380352E-02 0.20088469E+03</pdfrwt>
<totfact> 0.54450125E+02</totfact>
</mgrwt>
</event>
<event>
 5    1  0.1851087E-003  0.2407245E+03  0.7818608E-02  0.1119311E+00
         11   -1    0    0    0    0  0.00000000000E+00  0.00000000000E+00  0.10003731498E+04  0.10003731498E+04  0.51100000000E-03 0.  1.
          2   -1    0    0  501    0 -0.00000000000E+00 -0.00000000000E+00 -0.52519398659E+02  0.52519398721E+02  0.25500000000E-02 0.  1.
         11    1    1    2    0    0  0.12888084506E+03  0.17479856467E+03  0.42436867491E+03  0.47671121518E+03  0.51100000000E-03 0.  1.
         22    1    1    2    0    0 -0.73696242769E+02 -0.26493961317E+02  0.12597373607E+03  0.14833222294E+03  0.00000000000E+00 0.  1.
          2    1    1    2  501    0 -0.55184602289E+02 -0.14830460335E+03  0.39751134017E+03  0.42784911040E+03  0.25500000000E-02 0.  1.
<mgrwt>
<rscale>  0 0.24072454E+03</rscale>
<asrwt>0</asrwt>
<pdfrwt beam="1">  1       11 0.10000000E+01 0.21717472E+03</pdfrwt>
<pdfrwt beam="2">  1        2 0.80829223E-02 0.24072454E+03</pdfrwt>
<totfact> 0.10250580E+03</totfact>
</mgrwt>
</event>
<event>
 5    1  0.1851087E-003  0.1722177E+03  0.7818608E-02  0.1175555E+00
         11   -1    0    0    0    0  0.00000000000E+00  0.00000000000E+00  0.10004593673E+04  0.10004593673E+04  0.51100000000E-03 0. -1.
          2   -1    0    0  501    0 -0.00000000000E+00 -0.00000000000E+00 -0.29731847663E+02  0.29731847772E+02  0.25500000000E-02 0. -1.
         11    1    1    2    0    0  0.76688684659E+02  0.15211690313E+03  0.54297898763E+03  0.56907546738E+03  0.51100000000E-03 0. -1.
         22    1    1    2    0    0 -0.64473579744E+01 -0.10525293597E+02  0.17016972244E+02  0.21022073507E+02  0.00000000000E+00 0. -1.
          2    1    1    2  501    0 -0.70241326685E+02 -0.14159160953E+03  0.41073155980E+03  0.44009367421E+03  0.25500000000E-02 0. -1.
<mgrwt>
<rscale>  0 0.17221767E+03</rscale>
<asrwt>0</asrwt>
<pdfrwt beam="1">  1       11 0.10000000E+01 0.17035465E+03</pdfrwt>
<pdfrwt beam="2">  1        2 0.45762315E-02 0.17221767E+03</pdfrwt>
<totfact> 0.20990246E+03</totfact>
</mgrwt>
</event>
<event>
 5    1  0.2252954E-003  0.1872041E+03  0.7818608E-02  0.1161007E+00
         11   -1    0    0    0    0  0.00000000000E+00  0.00000000000E+00  0.99987827874E+03  0.99987827874E+03  0.51100000000E-03 0.  1.
         -2   -1    0    0    0  501 -0.00000000000E+00 -0.00000000000E+00 -0.37074748337E+03  0.37074748338E+03  0.25500000000E-02 0. -1.
         11    1    1    2    0    0 -0.47988176502E+02 -0.17861901505E+03  0.96690936298E+03  0.98443960396E+03  0.51100000000E-03 0.  1.
         22    1    1    2    0    0  0.21211085176E+00  0.14797484264E+02 -0.14979181437E+02  0.21056742580E+02  0.00000000000E+00 0. -1.
         -2    1    1    2    0  501  0.47776065650E+02  0.16382153079E+03 -0.32279938618E+03  0.36512941558E+03  0.25500000000E-02 0. -1.
<mgrwt>
<rscale>  0 0.18720413E+03</rscale>
<asrwt>0</asrwt>
<pdfrwt beam="1">  1       11 0.10000000E+01 0.18495301E+03</pdfrwt>
<pdfrwt beam="2">  1       -2 0.57031130E-01 0.18720413E+03</pdfrwt>
<totfact> 0.23892384E+01</totfact>
</mgrwt>
</event>
<event>
 5    1  0.1851087E-003  0.1810971E+03  0.7818608E-02  0.1477411E+00
         11   -1    0    0    0    0  0.00000000000E+00  0.00000000000E+00  0.10000259422E+04  0.10000259422E+04  0.51100000000E-03 0. -1.
          2   -1    0    0  501    0 -0.00000000000E+00 -0.00000000000E+00 -0.12121996908E+03  0.12121996911E+03  0.25500000000E-02 0. -1.
         11    1    1    2    0    0  0.14984212275E+03  0.10208535496E+03  0.91055602276E+03  0.92843220109E+03  0.51100000000E-03 0. -1.
         22    1    1    2    0    0 -0.82833344292E+01  0.71473374075E+01  0.11768561804E+01  0.11003774432E+02  0.00000000000E+00 0.  1.
          2    1    1    2  501    0 -0.14155878832E+03 -0.10923269236E+03 -0.32926905790E+02  0.18180993582E+03  0.25500000000E-02 0. -1.
<mgrwt>
<rscale>  0 0.44512044E+02</rscale>
<asrwt>0</asrwt>
<pdfrwt beam="1">  1       11 0.10000000E+01 0.18109711E+03</pdfrwt>
<pdfrwt beam="2">  1        2 0.18649709E-01 0.44512044E+02</pdfrwt>
<totfact> 0.34696136E+02</totfact>
</mgrwt>
</event>
<event>
 5    1  0.1851087E-003  0.9199175E+02  0.7818608E-02  0.1473363E+00
         11   -1    0    0    0    0  0.00000000000E+00  0.00000000000E+00  0.10002619684E+04  0.10002619684E+04  0.51100000000E-03 0. -1.
          2   -1    0    0  501    0 -0.00000000000E+00 -0.00000000000E+00 -0.11866814795E+02  0.11866815069E+02  0.25500000000E-02 0. -1.
         11    1    1    2    0    0 -0.27766796719E+02  0.91172932121E+02  0.57105286111E+03  0.57895152538E+03  0.51100000000E-03 0. -1.
         22    1    1    2    0    0  0.22041891226E+02 -0.23508928520E+01  0.42744153891E+02  0.48150123135E+02  0.00000000000E+00 0. -1.
          2    1    1    2  501    0  0.57249054927E+01 -0.88822039269E+02  0.37459813860E+03  0.38502713496E+03  0.25500000000E-02 0. -1.
<mgrwt>
<rscale>  0 0.45157196E+02</rscale>
<asrwt>0</asrwt>
<pdfrwt beam="1">  1       11 0.10000000E+01 0.91991751E+02</pdfrwt>
<pdfrwt beam="2">  1        2 0.18261420E-02 0.45157196E+02</pdfrwt>
<totfact> 0.60739943E+03</totfact>
</mgrwt>
</event>
<event>
 5    1  0.1851087E-003  0.1414567E+03  0.7818608E-02  0.1211382E+00
         11   -1    0    0    0    0  0.00000000000E+00  0.00000000000E+00  0.10005792967E+04  0.10005792967E+04  0.51100000000E-03 0.  1.
          2   -1    0    0  501    0 -0.00000000000E+00 -0.00000000000E+00 -0.21748862640E+02  0.21748862789E+02  0.25500000000E-02 0. -1.
         11    1    1    2    0    0  0.11739920737E+03 -0.76059736172E+02  0.64085067097E+03  0.65593996664E+03  0.51100000000E-03 0.  1.
         22    1    1    2    0    0 -0.17663488084E+02  0.33947048700E+01  0.46978415353E+02  0.50304019139E+02  0.00000000000E+00 0. -1.
          2    1    1    2  501    0 -0.99735719284E+02  0.72665031302E+02  0.29100134771E+03  0.31608417368E+03  0.25500000000E-02 0. -1.
<mgrwt>
<rscale>  0 0.14145666E+03</rscale>
<asrwt>0</asrwt>
<pdfrwt beam="1">  1       11 0.10000000E+01 0.13988444E+03</pdfrwt>
<pdfrwt beam="2">  1        2 0.33479171E-02 0.14145666E+03</pdfrwt>
<totfact> 0.31267971E+03</totfact>
</mgrwt>
</event>
<event>
 5    1  0.1851087E-003  0.2297169E+03  0.7818608E-02  0.1126839E+00
         11   -1    0    0    0    0  0.00000000000E+00  0.00000000000E+00  0.10004423075E+04  0.10004423075E+04  0.51100000000E-03 0. -1.
          2   -1    0    0  501    0 -0.00000000000E+00 -0.00000000000E+00 -0.49063572237E+02  0.49063572304E+02  0.25500000000E-02 0. -1.
         11    1    1    2    0    0  0.94093682324E+02 -0.19124540844E+03  0.44037602448E+03  0.48924377384E+03  0.51100000000E-03 0. -1.
         22    1    1    2    0    0 -0.94817591432E+02  0.98439360991E+02  0.29192325398E+03  0.32233502703E+03  0.00000000000E+00 0. -1.
          2    1    1    2  501    0  0.72390910808E+00  0.92806047453E+02  0.21907945676E+03  0.23792707889E+03  0.25500000000E-02 0. -1.
<mgrwt>
<rscale>  0 0.22971691E+03</rscale>
<asrwt>0</asrwt>
<pdfrwt beam="1">  1       11 0.10000000E+01 0.21313956E+03</pdfrwt>
<pdfrwt beam="2">  1        2 0.75515803E-02 0.22971691E+03</pdfrwt>
<totfact> 0.11150940E+03</totfact>
</mgrwt>
</event>
<event>
 5    1  0.1851087E-003  0.2103046E+03  0.7818608E-02  0.1347103E+00
         11   -1    0    0    0    0  0.00000000000E+00  0.00000000000E+00  0.10000403222E+04  0.10000403222E+04  0.51100000000E-03 0. -1.
         -2   -1    0    0    0  501 -0.00000000000E+00 -0.00000000000E+00 -0.12347724441E+03  0.12347724444E+03  0.25500000000E-02 0.  1.
         11    1    1    2    0    0  0.13081028513E+03  0.16300272376E+03  0.84226899971E+03  0.86781235675E+03  0.51100000000E-03 0. -1.
         22    1    1    2    0    0 -0.12317048731E+02  0.22913828190E+02 -0.14671176479E+02  0.29866312646E+02  0.00000000000E+00 0.  1.
         -2    1    1    2    0  501 -0.11849323640E+03 -0.18591655195E+03  0.48965254591E+02  0.22583889728E+03  0.25500000000E-02 0.  1.
<mgrwt>
<rscale>  0 0.73965967E+02</rscale>
<asrwt>0</asrwt>
<pdfrwt beam="1">  1       11 0.10000000E+01 0.21030457E+03</pdfrwt>
<pdfrwt beam="2">  1       -2 0.18997265E-01 0.73965967E+02</pdfrwt>
<totfact> 0.17600273E+02</totfact>
</mgrwt>
</event>
<event>
 5    1  0.1851087E-003  0.2075292E+03  0.7818608E-02  0.1143538E+00
         11   -1    0    0    0    0  0.00000000000E+00  0.00000000000E+00  0.10000789917E+04  0.10000789917E+04  0.51100000000E-03 0. -1.
          2   -1    0    0  501    0 -0.00000000000E+00 -0.00000000000E+00 -0.41855050963E+03  0.41855050964E+03  0.25500000000E-02 0. -1.
         11    1    1    2    0    0 -0.76909860523E+02 -0.18920379355E+03  0.96296851487E+03  0.98438892861E+03  0.51100000000E-03 0. -1.
         22    1    1    2    0    0  0.25448696002E+02  0.32692521894E+02 -0.58270833929E+02  0.71497742641E+02  0.00000000000E+00 0. -1.
          2    1    1    2  501    0  0.51461164521E+02  0.15651127165E+03 -0.32316919892E+03  0.36274283004E+03  0.25500000000E-02 0. -1.
<mgrwt>
<rscale>  0 0.20752922E+03</rscale>
<asrwt>0</asrwt>
<pdfrwt beam="1">  1       11 0.10000000E+01 0.20423810E+03</pdfrwt>
<pdfrwt beam="2">  1        2 0.64397471E-01 0.20752922E+03</pdfrwt>
<totfact> 0.94694890E+01</totfact>
</mgrwt>
</event>
<event>
 5    1  0.1851087E-003  0.6473501E+02  0.7818608E-02  0.1378971E+00
         11   -1    0    0    0    0  0.00000000000E+00  0.00000000000E+00  0.10002895424E+04  0.10002895424E+04  0.51100000000E-03 0.  1.
          2   -1    0    0  501    0 -0.00000000000E+00 -0.00000000000E+00 -0.24929773100E+02  0.24929773231E+02  0.25500000000E-02 0.  1.
         11    1    1    2    0    0  0.12526697759E+02  0.61284246899E+02  0.32450385797E+02  0.70467755842E+02  0.51100000000E-03 0.  1.
         22    1    1    2    0    0 -0.12040653731E+02  0.39060568807E+02  0.14824804124E+03  0.15377967066E+03  0.00000000000E+00 0. -1.
          2    1    1    2  501    0 -0.48604402759E+00 -0.10034481571E+03  0.79466134230E+03  0.80097188916E+03  0.25500000000E-02 0.  1.
<mgrwt>
<rscale>  0 0.64735009E+02</rscale>
<asrwt>0</asrwt>
<pdfrwt beam="1">  1       11 0.10000000E+01 0.40874263E+02</pdfrwt>
<pdfrwt beam="2">  1        2 0.38364601E-02 0.64735009E+02</pdfrwt>
<totfact> 0.24095898E+03</totfact>
</mgrwt>
</event>
<event>
 5    1  0.1851087E-003  0.1089921E+03  0.7818608E-02  0.1262448E+00
         11   -1    0    0    0    0  0.00000000000E+00  0.00000000000E+00  0.10003713445E+04  0.10003713445E+04  0.51100000000E-03 0. -1.
          2   -1    0    0  501    0 -0.00000000000E+00 -0.00000000000E+00 -0.12374461718E+02  0.12374461981E+02  0.25500000000E-02 0. -1.
         11    1    1    2    0    0  0.74375705680E+02  0.75839865302E+02  0.61674042784E+03  0.62582120937E+03  0.51100000000E-03 0. -1.
         22    1    1    2    0    0 -0.30334537743E+02 -0.43450398256E+02  0.21294960240E+03  0.21944396654E+03  0.00000000000E+00 0. -1.
          2    1    1    2  501    0 -0.44041167936E+02 -0.32389467046E+02  0.15830685258E+03  0.16748063060E+03  0.25500000000E-02 0. -1.
<mgrwt>
<rscale>  0 0.10899215E+03</rscale>
<asrwt>0</asrwt>
<pdfrwt beam="1">  1       11 0.10000000E+01 0.10622349E+03</pdfrwt>
<pdfrwt beam="2">  1        2 0.19044703E-02 0.10899215E+03</pdfrwt>
<totfact> 0.65044465E+03</totfact>
</mgrwt>
</event>
<event>
 5    1  0.1851087E-003  0.1112526E+03  0.7818608E-02  0.1350875E+00
         11   -1    0    0    0    0  0.00000000000E+00  0.00000000000E+00  0.10001831191E+04  0.10001831191E+04  0.51100000000E-03 0. -1.
          2   -1    0    0  501    0 -0.00000000000E+00 -0.00000000000E+00 -0.25703469186E+02  0.25703469312E+02  0.25500000000E-02 0. -1.
         11    1    1    2    0    0  0.41515317399E+02 -0.13149762413E+03  0.60759906157E+03  0.62305037224E+03  0.51100000000E-03 0. -1.
         22    1    1    2    0    0 -0.16829059201E+02  0.44543591034E+02  0.35621876931E+02  0.59466518747E+02  0.00000000000E+00 0.  1.
          2    1    1    2  501    0 -0.24686258198E+02  0.86954033092E+02  0.33125871138E+03  0.34336969739E+03  0.25500000000E-02 0. -1.
<mgrwt>
<rscale>  0 0.72783763E+02</rscale>
<asrwt>0</asrwt>
<pdfrwt beam="1">  1       11 0.10000000E+01 0.11125257E+03</pdfrwt>
<pdfrwt beam="2">  1        2 0.39551039E-02 0.72783763E+02</pdfrwt>
<totfact> 0.23459426E+03</totfact>
</mgrwt>
</event>
<event>
 5    1  0.1851087E-003  0.5021751E+02  0.7818608E-02  0.1519846E+00
         11   -1    0    0    0    0  0.00000000000E+00  0.00000000000E+00  0.10005070837E+04  0.10005070837E+04  0.51100000000E-03 0. -1.
          2   -1    0    0  501    0 -0.00000000000E+00 -0.00000000000E+00 -0.49930573487E+01  0.49930579998E+01  0.25500000000E-02 0. -1.
         11    1    1    2    0    0  0.32484420912E+02  0.40926907444E+02  0.27290250560E+03  0.27785972526E+03  0.51100000000E-03 0. -1.
         22    1    1    2    0    0  0.16766160051E+02 -0.24221289853E+02  0.16500887656E+03  0.16761773279E+03  0.00000000000E+00 0. -1.
          2    1    1    2  501    0 -0.49250580963E+02 -0.16705617590E+02  0.55760264416E+03  0.56002268361E+03  0.25500000000E-02 0. -1.
<mgrwt>
<rscale>  0 0.38461770E+02</rscale>
<asrwt>0</asrwt>
<pdfrwt beam="1">  1       11 0.10000000E+01 0.50217511E+02</pdfrwt>
<pdfrwt beam="2">  1        2 0.76855222E-03 0.38461770E+02</pdfrwt>
<totfact> 0.18630556E+04</totfact>
</mgrwt>
</event>
<event>
 5    1  0.1851087E-003  0.2357678E+03  0.7818608E-02  0.1224599E+00
         11   -1    0    0    0    0  0.00000000000E+00  0.00000000000E+00  0.10004894340E+04  0.10004894340E+04  0.51100000000E-03 0.  1.
         -2   -1    0    0    0  501 -0.00000000000E+00 -0.00000000000E+00 -0.17068040086E+03  0.17068040088E+03  0.25500000000E-02 0.  1.
         11    1    1    2    0    0  0.13175563316E+03  0.20981276076E+03  0.85481870332E+03  0.88999772864E+03  0.51100000000E-03 0.  1.
         22    1    1    2    0    0 -0.63575960598E+02 -0.37557566102E+02 -0.56860597380E+02  0.93196572211E+02  0.00000000000E+00 0.  1.
         -2    1    1    2    0  501 -0.68179672559E+02 -0.17225519466E+03  0.31850927242E+02  0.18797553407E+03  0.25500000000E-02 0.  1.
<mgrwt>
<rscale>  0 0.13194430E+03</rscale>
<asrwt>0</asrwt>
<pdfrwt beam="1">  1       11 0.10000000E+01 0.23576780E+03</pdfrwt>
<pdfrwt beam="2">  1       -2 0.26271374E-01 0.13194430E+03</pdfrwt>
<totfact> 0.10324356E+02</totfact>
</mgrwt>
</event>
<event>
 5    1  0.1851087E-003  0.1011010E+03  0.7818608E-02  0.1277998E+00
         11   -1    0    0    0    0  0.00000000000E+00  0.00000000000E+00  0.10001521689E+04  0.10001521689E+04  0.51100000000E-03 0.  1.
          2   -1    0    0  501    0 -0.00000000000E+00 -0.00000000000E+00 -0.96683895895E+01  0.96683899258E+01  0.25500000000E-02 0.  1.
         11    1    1    2    0    0 -0.94114169363E+02  0.50728284117E+01  0.53645316985E+03  0.54466982100E+03  0.51100000000E-03 0.  1.
         22    1    1    2    0    0  0.42309372628E+02 -0.20029957939E+02  0.23091486522E+03  0.23561187832E+03  0.00000000000E+00 0. -1.
          2    1    1    2  501    0  0.51804796735E+02  0.14957129527E+02  0.22311574421E+03  0.22953885948E+03  0.25500000000E-02 0.  1.
<mgrwt>
<rscale>  0 0.10110101E+03</rscale>
<asrwt>0</asrwt>
<pdfrwt beam="1">  1       11 0.10000000E+01 0.94250785E+02</pdfrwt>
<pdfrwt beam="2">  1        2 0.14876709E-02 0.10110101E+03</pdfrwt>
<totfact> 0.90127769E+03</totfact>
</mgrwt>
</event>
<event>
 5    1  0.1851087E-003  0.1272613E+03  0.7818608E-02  0.1231577E+00
         11   -1    0    0    0    0  0.00000000000E+00  0.00000000000E+00  0.99985829308E+03  0.99985829308E+03  0.51100000000E-03 0.  1.
          2   -1    0    0  501    0 -0.00000000000E+00 -0.00000000000E+00 -0.16911627073E+02  0.16911627265E+02  0.25500000000E-02 0.  1.
         11    1    1    2    0    0  0.82718304541E+02 -0.93163170335E+02  0.35975118602E+03  0.38071329115E+03  0.51100000000E-03 0.  1.
         22    1    1    2    0    0 -0.10836014118E+02  0.23082278976E+02  0.92562261823E+02  0.96010328186E+02  0.00000000000E+00 0. -1.
          2    1    1    2  501    0 -0.71882290423E+02  0.70080891360E+02  0.53063321817E+03  0.54004630102E+03  0.25500000000E-02 0.  1.
<mgrwt>
<rscale>  0 0.12726126E+03</rscale>
<asrwt>0</asrwt>
<pdfrwt beam="1">  1       11 0.10000000E+01 0.12458615E+03</pdfrwt>
<pdfrwt beam="2">  1        2 0.26014200E-02 0.12726126E+03</pdfrwt>
<totfact> 0.43419966E+03</totfact>
</mgrwt>
</event>
<event>
 5    1  0.1851087E-003  0.1043865E+03  0.7818608E-02  0.1369336E+00
         11   -1    0    0    0    0  0.00000000000E+00  0.00000000000E+00  0.10001220541E+04  0.10001220541E+04  0.51100000000E-03 0. -1.
          2   -1    0    0  501    0 -0.00000000000E+00 -0.00000000000E+00 -0.20617112689E+02  0.20617112847E+02  0.25500000000E-02 0.  1.
         11    1    1    2    0    0  0.11125888800E+03 -0.66595820896E+02  0.55337383204E+03  0.56836268483E+03  0.51100000000E-03 0. -1.
         22    1    1    2    0    0 -0.80994369231E+02  0.64264869556E+01  0.18584246106E+03  0.20282703940E+03  0.00000000000E+00 0.  1.
          2    1    1    2  501    0 -0.30264518765E+02  0.60169333941E+02  0.24028864828E+03  0.24954944268E+03  0.25500000000E-02 0.  1.
<mgrwt>
<rscale>  0 0.67351985E+02</rscale>
<asrwt>0</asrwt>
<pdfrwt beam="1">  1       11 0.10000000E+01 0.10438647E+03</pdfrwt>
<pdfrwt beam="2">  1        2 0.31722506E-02 0.67351985E+02</pdfrwt>
<totfact> 0.31016271E+03</totfact>
</mgrwt>
</event>
<event>
 5    1  0.1851087E-003  0.1978030E+03  0.7818608E-02  0.1151606E+00
         11   -1    0    0    0    0  0.00000000000E+00  0.00000000000E+00  0.10002642050E+04  0.10002642050E+04  0.51100000000E-03 0. -1.
          2   -1    0    0  501    0 -0.00000000000E+00 -0.00000000000E+00 -0.66659996180E+03  0.66659996180E+03  0.25500000000E-02 0. -1.
         11    1    1    2    0    0 -0.18707730200E+03 -0.25273934513E+02  0.97634743524E+03  0.99442998899E+03  0.51100000000E-03 0. -1.
         22    1    1    2    0    0  0.35682084136E+02 -0.18111200612E+02 -0.11592725125E+03  0.12263912222E+03  0.00000000000E+00 0.  1.
          2    1    1    2  501    0  0.15139521786E+03  0.43385135125E+02 -0.52675594081E+03  0.54979505557E+03  0.25500000000E-02 0. -1.
<mgrwt>
<rscale>  0 0.19780303E+03</rscale>
<asrwt>0</asrwt>
<pdfrwt beam="1">  1       11 0.10000000E+01 0.18877682E+03</pdfrwt>
<pdfrwt beam="2">  1        2 0.10258093E+00 0.19780303E+03</pdfrwt>
<totfact> 0.56020996E+01</totfact>
</mgrwt>
</event>
<event>
 5    1  0.1851087E-003  0.1197489E+03  0.7818608E-02  0.1243512E+00
         11   -1    0    0    0    0  0.00000000000E+00  0.00000000000E+00  0.99999263183E+03  0.99999263183E+03  0.51100000000E-03 0. -1.
          2   -1    0    0  501    0 -0.00000000000E+00 -0.00000000000E+00 -0.33738440302E+02  0.33738440398E+02  0.25500000000E-02 0. -1.
         11    1    1    2    0    0 -0.10557547397E+02  0.12058778980E+03  0.96515594492E+02  0.15481646177E+03  0.51100000000E-03 0. -1.
         22    1    1    2    0    0 -0.15018611162E+01 -0.10227148398E+02  0.27281418851E+02  0.29174063236E+02  0.00000000000E+00 0. -1.
          2    1    1    2  501    0  0.12059408513E+02 -0.11036064140E+03  0.84245717819E+03  0.84974054722E+03  0.25500000000E-02 0. -1.
<mgrwt>
<rscale>  0 0.11974890E+03</rscale>
<asrwt>0</asrwt>
<pdfrwt beam="1">  1       11 0.10000000E+01 0.10336835E+02</pdfrwt>
<pdfrwt beam="2">  1        2 0.51904909E-02 0.11974890E+03</pdfrwt>
<totfact> 0.17275039E+03</totfact>
</mgrwt>
</event>
<event>
 5    1  0.1851087E-003  0.2060165E+03  0.7818608E-02  0.1144760E+00
         11   -1    0    0    0    0  0.00000000000E+00  0.00000000000E+00  0.10000272309E+04  0.10000272309E+04  0.51100000000E-03 0. -1.
         -2   -1    0    0    0  501 -0.00000000000E+00 -0.00000000000E+00 -0.43912065973E+02  0.43912066047E+02  0.25500000000E-02 0. -1.
         11    1    1    2    0    0 -0.22061933468E+02 -0.19986473593E+03  0.59666244804E+03  0.62963379713E+03  0.51100000000E-03 0. -1.
         22    1    1    2    0    0 -0.12610616394E+02  0.28303406239E+02  0.54503805067E+02  0.62695894741E+02  0.00000000000E+00 0.  1.
         -2    1    1    2    0  501  0.34672549862E+02  0.17156132969E+03  0.30494891181E+03  0.35160960507E+03  0.25500000000E-02 0. -1.
<mgrwt>
<rscale>  0 0.20601648E+03</rscale>
<asrwt>0</asrwt>
<pdfrwt beam="1">  1       11 0.10000000E+01 0.20107869E+03</pdfrwt>
<pdfrwt beam="2">  1       -2 0.67558862E-02 0.20601648E+03</pdfrwt>
<totfact> 0.96515402E+02</totfact>
</mgrwt>
</event>
<event>
 5    1  0.1851087E-003  0.1963434E+03  0.7818608E-02  0.1152861E+00
         11   -1    0    0    0    0  0.00000000000E+00  0.00000000000E+00  0.10002716064E+04  0.10002716064E+04  0.51100000000E-03 0. -1.
          2   -1    0    0  501    0 -0.00000000000E+00 -0.00000000000E+00 -0.17494961154E+03  0.17494961156E+03  0.25500000000E-02 0. -1.
         11    1    1    2    0    0  0.17521185666E+03 -0.65619681618E+02  0.93280506690E+03  0.95138342963E+03  0.51100000000E-03 0. -1.
         22    1    1    2    0    0 -0.14660831378E+03  0.32722395846E+02 -0.97599290426E+02  0.17913786409E+03  0.00000000000E+00 0. -1.
          2    1    1    2  501    0 -0.28603542882E+02  0.32897285772E+02 -0.98837816716E+01  0.44699924197E+02  0.25500000000E-02 0. -1.
<mgrwt>
<rscale>  0 0.19634344E+03</rscale>
<asrwt>0</asrwt>
<pdfrwt beam="1">  1       11 0.10000000E+01 0.18709660E+03</pdfrwt>
<pdfrwt beam="2">  1        2 0.26922634E-01 0.19634344E+03</pdfrwt>
<totfact> 0.24332176E+02</totfact>
</mgrwt>
</event>
<event>
 5    1  0.1851087E-003  0.1330070E+03  0.7818608E-02  0.1223061E+00
         11   -1    0    0    0    0  0.00000000000E+00  0.00000000000E+00  0.10001595644E+04  0.10001595644E+04  0.51100000000E-03 0. -1.
          2   -1    0    0  501    0 -0.00000000000E+00 -0.00000000000E+00 -0.17101604387E+02  0.17101604577E+02  0.25500000000E-02 0. -1.
         11    1    1    2    0    0  0.11615645384E+03  0.49404637083E+02  0.54666753177E+03  0.56105127237E+03  0.51100000000E-03 0. -1.
         22    1    1    2    0    0 -0.14210275995E+02 -0.17073712334E+02  0.41242446799E+02  0.46844242066E+02  0.00000000000E+00 0.  1.
          2    1    1    2  501    0 -0.10194617785E+03 -0.32330924749E+02  0.39514798139E+03  0.40936565449E+03  0.25500000000E-02 0. -1.
<mgrwt>
<rscale>  0 0.13300701E+03</rscale>
<asrwt>0</asrwt>
<pdfrwt beam="1">  1       11 0.10000000E+01 0.12622654E+03</pdfrwt>
<pdfrwt beam="2">  1        2 0.26314358E-02 0.13300701E+03</pdfrwt>
<totfact> 0.42959084E+03</totfact>
</mgrwt>
</event>
<event>
 5    1  0.1851087E-003  0.4172941E+03  0.7818608E-02  0.1037951E+00
         11   -1    0    0    0    0  0.00000000000E+00  0.00000000000E+00  0.10002544810E+04  0.10002544810E+04  0.51100000000E-03 0. -1.
          2   -1    0    0  501    0 -0.00000000000E+00 -0.00000000000E+00 -0.25615722832E+03  0.25615722833E+03  0.25500000000E-02 0. -1.
         11    1    1    2    0    0 -0.31896092652E+03 -0.26398570194E+03  0.12561797698E+02  0.41422496573E+03  0.51100000000E-03 0. -1.
         22    1    1    2    0    0  0.76889938920E+01  0.15681758137E+02  0.18061267771E+02  0.25124640472E+02  0.00000000000E+00 0.  1.
          2    1    1    2  501    0  0.31127193263E+03  0.24830394380E+03  0.71347418721E+03  0.81706210313E+03  0.25500000000E-02 0. -1.
<mgrwt>
<rscale>  0 0.41729413E+03</rscale>
<asrwt>0</asrwt>
<pdfrwt beam="1">  1       11 0.10000000E+01 0.41403465E+03</pdfrwt>
<pdfrwt beam="2">  1        2 0.39418832E-01 0.41729413E+03</pdfrwt>
<totfact> 0.16136745E+02</totfact>
</mgrwt>
</event>
<event>
 5    1  0.1851087E-003  0.1248690E+03  0.7818608E-02  0.1326451E+00
         11   -1    0    0    0    0  0.00000000000E+00  0.00000000000E+00  0.10000574644E+04  0.10000574644E+04  0.51100000000E-03 0.  1.
          2   -1    0    0  501    0 -0.00000000000E+00 -0.00000000000E+00 -0.45801973432E+02  0.45801973503E+02  0.25500000000E-02 0.  1.
         11    1    1    2    0    0 -0.13106673553E+03  0.22748540217E+02  0.65357481922E+03  0.66697528407E+03  0.51100000000E-03 0.  1.
         22    1    1    2    0    0  0.70295958398E+02 -0.76185716853E+02  0.49278477494E+02  0.11477871564E+03  0.00000000000E+00 0.  1.
          2    1    1    2  501    0  0.60770777135E+02  0.53437176636E+02  0.25140219425E+03  0.26410543819E+03  0.25500000000E-02 0.  1.
<mgrwt>
<rscale>  0 0.80923539E+02</rscale>
<asrwt>0</asrwt>
<pdfrwt beam="1">  1       11 0.10000000E+01 0.12486899E+03</pdfrwt>
<pdfrwt beam="2">  1        2 0.70468622E-02 0.80923539E+02</pdfrwt>
<totfact> 0.11333768E+03</totfact>
</mgrwt>
</event>
<event>
 5    1  0.1851087E-003  0.4156069E+03  0.7818608E-02  0.1225556E+00
         11   -1    0    0    0    0  0.00000000000E+00  0.00000000000E+00  0.10000965880E+04  0.10000965880E+04  0.51100000000E-03 0. -1.
          2   -1    0    0  501    0 -0.00000000000E+00 -0.00000000000E+00 -0.37660999043E+03  0.37660999044E+03  0.25500000000E-02 0. -1.
         11    1    1    2    0    0 -0.15499737948E+01  0.41177071359E+03  0.77115106075E+03  0.87420334104E+03  0.51100000000E-03 0. -1.
         22    1    1    2    0    0 -0.32851893185E+02  0.25314084873E+02 -0.18688456003E+02  0.45489649004E+02  0.00000000000E+00 0.  1.
          2    1    1    2  501    0  0.34401866979E+02 -0.43708479847E+03 -0.12897600721E+03  0.45701358836E+03  0.25500000000E-02 0. -1.
<mgrwt>
<rscale>  0 0.13128849E+03</rscale>
<asrwt>0</asrwt>
<pdfrwt beam="1">  1       11 0.10000000E+01 0.41560692E+03</pdfrwt>
<pdfrwt beam="2">  1        2 0.57945593E-01 0.13128849E+03</pdfrwt>
<totfact> 0.10638705E+02</totfact>
</mgrwt>
</event>
<event>
 5    1  0.1851087E-003  0.5511406E+03  0.7818608E-02  0.1001230E+00
         11   -1    0    0    0    0  0.00000000000E+00  0.00000000000E+00  0.10003923786E+04  0.10003923786E+04  0.51100000000E-03 0.  1.
          2   -1    0    0  501    0 -0.00000000000E+00 -0.00000000000E+00 -0.48436130064E+03  0.48436130064E+03  0.25500000000E-02 0.  1.
         11    1    1    2    0    0 -0.45244580120E+03 -0.25937472993E+03  0.72691603582E+03  0.89464483270E+03  0.51100000000E-03 0.  1.
         22    1    1    2    0    0  0.13573986382E+03 -0.56551698910E+01 -0.29302698731E+02  0.13898179639E+03  0.00000000000E+00 0. -1.
          2    1    1    2  501    0  0.31670593738E+03  0.26502989983E+03 -0.18158225910E+03  0.45112705018E+03  0.25500000000E-02 0.  1.
<mgrwt>
<rscale>  0 0.55114062E+03</rscale>
<asrwt>0</asrwt>
<pdfrwt beam="1">  1       11 0.10000000E+01 0.52151937E+03</pdfrwt>
<pdfrwt beam="2">  1        2 0.74546360E-01 0.55114062E+03</pdfrwt>
<totfact> 0.79440259E+01</totfact>
</mgrwt>
</event>
<event>
 5    1  0.1851087E-003  0.1481112E+03  0.7818608E-02  0.1202813E+00
         11   -1    0    0    0    0  0.00000000000E+00  0.00000000000E+00  0.10005343389E+04  0.10005343389E+04  0.51100000000E-03 0. -1.
         -2   -1    0    0    0  501 -0.00000000000E+00 -0.00000000000E+00 -0.21093553946E+02  0.21093554100E+02  0.25500000000E-02 0. -1.
         11    1    1    2    0    0 -0.21504223090E+02  0.14080580794E+03  0.48092421080E+03  0.50157432520E+03  0.51100000000E-03 0. -1.
         22    1    1    2    0    0 -0.40119160464E+00 -0.60462726147E+02  0.15004178310E+03  0.16176661857E+03  0.00000000000E+00 0. -1.
         -2    1    1    2    0  501  0.21905414695E+02 -0.80343081795E+02  0.34847479105E+03  0.35828694923E+03  0.25500000000E-02 0. -1.
<mgrwt>
<rscale>  0 0.14811124E+03</rscale>
<asrwt>0</asrwt>
<pdfrwt beam="1">  1       11 0.10000000E+01 0.14243843E+03</pdfrwt>
<pdfrwt beam="2">  1       -2 0.32468961E-02 0.14811124E+03</pdfrwt>
<totfact> 0.28322138E+03</totfact>
</mgrwt>
</event>
<event>
 5    1  0.1851087E-003  0.3110693E+03  0.7818608E-02  0.1079834E+00
         11   -1    0    0    0    0  0.00000000000E+00  0.00000000000E+00  0.10003641196E+04  0.10003641196E+04  0.51100000000E-03 0. -1.
          2   -1    0    0  501    0 -0.00000000000E+00 -0.00000000000E+00 -0.78535104927E+03  0.78535104928E+03  0.25500000000E-02 0.  1.
         11    1    1    2    0    0  0.98262174867E+02  0.23809234083E+03  0.82984813317E+03  0.86890237766E+03  0.51100000000E-03 0. -1.
         22    1    1    2    0    0  0.25025947049E+03 -0.86029853044E+02 -0.11440065872E+03  0.28830270359E+03  0.00000000000E+00 0.  1.
          2    1    1    2  501    0 -0.34852164536E+03 -0.15206248779E+03 -0.50043440410E+03  0.62851008766E+03  0.25500000000E-02 0.  1.
<mgrwt>
<rscale>  0 0.31106935E+03</rscale>
<asrwt>0</asrwt>
<pdfrwt beam="1">  1       11 0.10000000E+01 0.25757216E+03</pdfrwt>
<pdfrwt beam="2">  1        2 0.12086723E+00 0.31106935E+03</pdfrwt>
<totfact> 0.45137116E+01</totfact>
</mgrwt>
</event>
<event>
 5    1  0.1884580E-003  0.2118253E+03  0.7818608E-02  0.1140129E+00
         11   -1    0    0    0    0  0.00000000000E+00  0.00000000000E+00  0.99988829280E+03  0.99988829280E+03  0.51100000000E-03 0. -1.
          2   -1    0    0  501    0 -0.00000000000E+00 -0.00000000000E+00 -0.45198787336E+03  0.45198787337E+03  0.25500000000E-02 0. -1.
         11    1    1    2    0    0 -0.18389392097E+03  0.95450113140E+02  0.96343704154E+03  0.98546366309E+03  0.51100000000E-03 0. -1.
         22    1    1    2    0    0  0.24052497170E+02 -0.18980308947E+02 -0.99277710848E+02  0.10389821278E+03  0.00000000000E+00 0.  1.
          2    1    1    2  501    0  0.15984142380E+03 -0.76469804193E+02 -0.31625891125E+03  0.36251429029E+03  0.25500000000E-02 0. -1.
<mgrwt>
<rscale>  0 0.21182526E+03</rscale>
<asrwt>0</asrwt>
<pdfrwt beam="1">  1       11 0.10000000E+01 0.20719001E+03</pdfrwt>
<pdfrwt beam="2">  1        2 0.69528826E-01 0.21182526E+03</pdfrwt>
<totfact> 0.87057278E+01</totfact>
</mgrwt>
</event>
<event>
 5    1  0.1851087E-003  0.3125552E+03  0.7818608E-02  0.1079128E+00
         11   -1    0    0    0    0  0.00000000000E+00  0.00000000000E+00  0.10002202371E+04  0.10002202371E+04  0.51100000000E-03 0. -1.
          2   -1    0    0  501    0 -0.00000000000E+00 -0.00000000000E+00 -0.80996967835E+03  0.80996967836E+03  0.25500000000E-02 0. -1.
         11    1    1    2    0    0 -0.23567009010E+03  0.19725802670E+03  0.94476761935E+03  0.99349734526E+03  0.51100000000E-03 0. -1.
         22    1    1    2    0    0  0.11730905180E+02 -0.31493313637E+02 -0.93533348276E+02  0.99387776813E+02  0.00000000000E+00 0. -1.
          2    1    1    2  501    0  0.22393918492E+03 -0.16576471306E+03 -0.66098371233E+03  0.71730479338E+03  0.25500000000E-02 0. -1.
<mgrwt>
<rscale>  0 0.31255521E+03</rscale>
<asrwt>0</asrwt>
<pdfrwt beam="1">  1       11 0.10000000E+01 0.30732901E+03</pdfrwt>
<pdfrwt beam="2">  1        2 0.12463816E+00 0.31255521E+03</pdfrwt>
<totfact> 0.43383401E+01</totfact>
</mgrwt>
</event>
<event>
 5    1  0.1851087E-003  0.1748180E+03  0.7818608E-02  0.1220978E+00
         11   -1    0    0    0    0  0.00000000000E+00  0.00000000000E+00  0.10001864937E+04  0.10001864937E+04  0.51100000000E-03 0. -1.
          2   -1    0    0  501    0 -0.00000000000E+00 -0.00000000000E+00 -0.63942467215E+02  0.63942467266E+02  0.25500000000E-02 0. -1.
         11    1    1    2    0    0 -0.17605661517E+03 -0.80059252010E+02  0.66700254850E+03  0.69447664848E+03  0.51100000000E-03 0. -1.
         22    1    1    2    0    0  0.28982696846E+02  0.99281977043E+02  0.13087405422E+03  0.16680805062E+03  0.00000000000E+00 0. -1.
          2    1    1    2  501    0  0.14707391833E+03 -0.19222725033E+02  0.13836742378E+03  0.20284426189E+03  0.25500000000E-02 0. -1.
<mgrwt>
<rscale>  0 0.13446450E+03</rscale>
<asrwt>0</asrwt>
<pdfrwt beam="1">  1       11 0.10000000E+01 0.17481800E+03</pdfrwt>
<pdfrwt beam="2">  1        2 0.98391370E-02 0.13446450E+03</pdfrwt>
<totfact> 0.77557669E+02</totfact>
</mgrwt>
</event>
<event>
 5    1  0.1851087E-003  0.2087002E+03  0.7818608E-02  0.1262885E+00
         11   -1    0    0    0    0  0.00000000000E+00  0.00000000000E+00  0.10000503332E+04  0.10000503332E+04  0.51100000000E-03 0.  1.
          2   -1    0    0  501    0 -0.00000000000E+00 -0.00000000000E+00 -0.10392933603E+03  0.10392933607E+03  0.25500000000E-02 0.  1.
         11    1    1    2    0    0  0.18182981166E+03  0.13219040458E+03  0.78832658373E+03  0.81975312508E+03  0.51100000000E-03 0.  1.
         22    1    1    2    0    0 -0.43388562590E+02 -0.36465950069E+02 -0.32303303113E+02  0.65236770843E+02  0.00000000000E+00 0. -1.
          2    1    1    2  501    0 -0.13844124907E+03 -0.95724454514E+02  0.14009771654E+03  0.21898977333E+03  0.25500000000E-02 0.  1.
<mgrwt>
<rscale>  0 0.10875934E+03</rscale>
<asrwt>0</asrwt>
<pdfrwt beam="1">  1       11 0.10000000E+01 0.20870021E+03</pdfrwt>
<pdfrwt beam="2">  1        2 0.15989933E-01 0.10875934E+03</pdfrwt>
<totfact> 0.43022731E+02</totfact>
</mgrwt>
</event>
<event>
 5    1  0.1851087E-003  0.3268981E+02  0.7818608E-02  0.1575088E+00
         11   -1    0    0    0    0  0.00000000000E+00  0.00000000000E+00  0.99984605475E+03  0.99984605475E+03  0.51100000000E-03 0. -1.
          2   -1    0    0  501    0 -0.00000000000E+00 -0.00000000000E+00 -0.10486858147E+02  0.10486858457E+02  0.25500000000E-02 0. -1.
         11    1    1    2    0    0 -0.17727711819E+02  0.54886432702E+02  0.11593464819E+03  0.12948990274E+03  0.51100000000E-03 0. -1.
         22    1    1    2    0    0  0.21435182102E+02 -0.23346702286E+02  0.70569436480E+02  0.77360073064E+02  0.00000000000E+00 0. -1.
          2    1    1    2  501    0 -0.37074702824E+01 -0.31539730416E+02  0.80285511193E+03  0.80348293740E+03  0.25500000000E-02 0. -1.
<mgrwt>
<rscale>  0 0.32188255E+02</rscale>
<asrwt>0</asrwt>
<pdfrwt beam="1">  1       11 0.10000000E+01 0.32689813E+02</pdfrwt>
<pdfrwt beam="2">  1        2 0.16131144E-02 0.32188255E+02</pdfrwt>
<totfact> 0.67504116E+03</totfact>
</mgrwt>
</event>
<event>
 5    1  0.1851087E-003  0.1534579E+03  0.7818608E-02  0.1196287E+00
         11   -1    0    0    0    0  0.00000000000E+00  0.00000000000E+00  0.99997837253E+03  0.99997837253E+03  0.51100000000E-03 0.  1.
          2   -1    0    0  501    0 -0.00000000000E+00 -0.00000000000E+00 -0.25865681756E+02  0.25865681882E+02  0.25500000000E-02 0.  1.
         11    1    1    2    0    0  0.11643104558E+03 -0.93779534221E+02  0.65371048224E+03  0.67058793906E+03  0.51100000000E-03 0.  1.
         22    1    1    2    0    0 -0.45200588038E+02  0.37312914927E+02  0.88222950377E+02  0.10591806150E+03  0.00000000000E+00 0.  1.
          2    1    1    2  501    0 -0.71230457540E+02  0.56466619294E+02  0.23217925815E+03  0.24933805385E+03  0.25500000000E-02 0.  1.
<mgrwt>
<rscale>  0 0.15345792E+03</rscale>
<asrwt>0</asrwt>
<pdfrwt beam="1">  1       11 0.10000000E+01 0.14950180E+03</pdfrwt>
<pdfrwt beam="2">  1        2 0.39792495E-02 0.15345792E+03</pdfrwt>
<totfact> 0.25019526E+03</totfact>
</mgrwt>
</event>
<event>
 5    1  0.2440929E-003  0.2266216E+03  0.7818608E-02  0.1129040E+00
         11   -1    0    0    0    0  0.00000000000E+00  0.00000000000E+00  0.10002883122E+04  0.10002883122E+04  0.51100000000E-03 0. -1.
         -2   -1    0    0    0  501 -0.00000000000E+00 -0.00000000000E+00 -0.27565894252E+03  0.27565894253E+03  0.25500000000E-02 0.  1.
         11    1    1    2    0    0 -0.19425568037E+03  0.11345817695E+03  0.93805144099E+03  0.96464943540E+03  0.51100000000E-03 0. -1.
         22    1    1    2    0    0  0.95320967420E+01 -0.12552374546E+02 -0.19737417683E+02  0.25258436845E+02  0.00000000000E+00 0.  1.
         -2    1    1    2    0  501  0.18472358362E+03 -0.10090580241E+03 -0.19368465359E+03  0.28603938251E+03  0.25500000000E-02 0.  1.
<mgrwt>
<rscale>  0 0.22662160E+03</rscale>
<asrwt>0</asrwt>
<pdfrwt beam="1">  1       11 0.10000000E+01 0.22496228E+03</pdfrwt>
<pdfrwt beam="2">  1       -2 0.42421294E-01 0.22662160E+03</pdfrwt>
<totfact> 0.42990478E+01</totfact>
</mgrwt>
</event>
<event>
 5    1  0.1851087E-003  0.1891314E+03  0.7818608E-02  0.1159247E+00
         11   -1    0    0    0    0  0.00000000000E+00  0.00000000000E+00  0.99984805426E+03  0.99984805426E+03  0.51100000000E-03 0. -1.
          2   -1    0    0  501    0 -0.00000000000E+00 -0.00000000000E+00 -0.36819176841E+02  0.36819176930E+02  0.25500000000E-02 0. -1.
         11    1    1    2    0    0  0.15760397806E+03  0.95305319753E+02  0.59546579044E+03  0.62329898560E+03  0.51100000000E-03 0. -1.
         22    1    1    2    0    0 -0.78922647961E+02 -0.69199289517E+02  0.18134103502E+03  0.20952779532E+03  0.00000000000E+00 0. -1.
          2    1    1    2  501    0 -0.78681330096E+02 -0.26106030236E+02  0.18622205197E+03  0.20384045027E+03  0.25500000000E-02 0. -1.
<mgrwt>
<rscale>  0 0.18913139E+03</rscale>
<asrwt>0</asrwt>
<pdfrwt beam="1">  1       11 0.10000000E+01 0.18417958E+03</pdfrwt>
<pdfrwt beam="2">  1        2 0.56636279E-02 0.18913139E+03</pdfrwt>
<totfact> 0.15975444E+03</totfact>
</mgrwt>
</event>
<event>
 5    1  0.1851087E-003  0.7652647E+02  0.7818608E-02  0.1339208E+00
         11   -1    0    0    0    0  0.00000000000E+00  0.00000000000E+00  0.10002001732E+04  0.10002001732E+04  0.51100000000E-03 0.  1.
          2   -1    0    0  501    0 -0.00000000000E+00 -0.00000000000E+00 -0.13756724323E+02  0.13756724559E+02  0.25500000000E-02 0.  1.
         11    1    1    2    0    0  0.74851281650E+02 -0.49816472936E+02  0.22604722322E+03  0.24327297931E+03  0.51100000000E-03 0.  1.
         22    1    1    2    0    0 -0.12874654325E+02  0.59281342727E+02  0.30320820441E+03  0.30921715596E+03  0.00000000000E+00 0.  1.
          2    1    1    2  501    0 -0.61976627325E+02 -0.94648697911E+01  0.45718802124E+03  0.46146676247E+03  0.25500000000E-02 0.  1.
<mgrwt>
<rscale>  0 0.76526470E+02</rscale>
<asrwt>0</asrwt>
<pdfrwt beam="1">  1       11 0.10000000E+01 0.60663286E+02</pdfrwt>
<pdfrwt beam="2">  1        2 0.21168427E-02 0.76526470E+02</pdfrwt>
<totfact> 0.53884904E+03</totfact>
</mgrwt>
</event>
<event>
 5    1  0.1851087E-003  0.4840355E+02  0.7818608E-02  0.1637265E+00
         11   -1    0    0    0    0  0.00000000000E+00  0.00000000000E+00  0.10003146004E+04  0.10003146004E+04  0.51100000000E-03 0.  1.
          2   -1    0    0  501    0 -0.00000000000E+00 -0.00000000000E+00 -0.63212851418E+01  0.63212856562E+01  0.25500000000E-02 0.  1.
         11    1    1    2    0    0  0.22947499352E+02 -0.54506725014E+02  0.17112934534E+03  0.18106027625E+03  0.51100000000E-03 0.  1.
         22    1    1    2    0    0 -0.11710108026E+02  0.89957822586E+01  0.89065769960E+02  0.90281571247E+02  0.00000000000E+00 0.  1.
          2    1    1    2  501    0 -0.11237391327E+02  0.45510942756E+02  0.73379819999E+03  0.73529403859E+03  0.25500000000E-02 0.  1.
<mgrwt>
<rscale>  0 0.26734859E+02</rscale>
<asrwt>0</asrwt>
<pdfrwt beam="1">  1       11 0.10000000E+01 0.48403554E+02</pdfrwt>
<pdfrwt beam="2">  1        2 0.97281137E-03 0.26734859E+02</pdfrwt>
<totfact> 0.12619471E+04</totfact>
</mgrwt>
</event>
<event>
 5    1  0.1851087E-003  0.3349915E+03  0.7818608E-02  0.1068949E+00
         11   -1    0    0    0    0  0.00000000000E+00  0.00000000000E+00  0.10003592799E+04  0.10003592799E+04  0.51100000000E-03 0.  1.
          2   -1    0    0  501    0 -0.00000000000E+00 -0.00000000000E+00 -0.12104445458E+04  0.12104445458E+04  0.25500000000E-02 0.  1.
         11    1    1    2    0    0  0.31552063913E+03  0.71708942842E+02  0.94985778360E+03  0.10034566534E+04  0.51100000000E-03 0.  1.
         22    1    1    2    0    0 -0.13083857820E+03 -0.10854127468E+02 -0.33525945004E+03  0.36004922507E+03  0.00000000000E+00 0. -1.
          2    1    1    2  501    0 -0.18468206093E+03 -0.60854815374E+02 -0.82468359941E+03  0.84729794720E+03  0.25500000000E-02 0.  1.
<mgrwt>
<rscale>  0 0.33499152E+03</rscale>
<asrwt>0</asrwt>
<pdfrwt beam="1">  1       11 0.10000000E+01 0.32356676E+03</pdfrwt>
<pdfrwt beam="2">  1        2 0.18628914E+00 0.33499152E+03</pdfrwt>
<totfact> 0.24366074E+01</totfact>
</mgrwt>
</event>
<event>
 5    1  0.1851087E-003  0.6183983E+02  0.7818608E-02  0.1530268E+00
         11   -1    0    0    0    0  0.00000000000E+00  0.00000000000E+00  0.99995195799E+03  0.99995195799E+03  0.51100000000E-03 0. -1.
          2   -1    0    0  501    0 -0.00000000000E+00 -0.00000000000E+00 -0.57941915689E+01  0.57941921300E+01  0.25500000000E-02 0. -1.
         11    1    1    2    0    0 -0.64080804376E+02 -0.13507761878E+02  0.37506958086E+03  0.38074400798E+03  0.51100000000E-03 0. -1.
         22    1    1    2    0    0  0.12248020105E+02 -0.18661547253E+02  0.10775186461E+03  0.11003968225E+03  0.00000000000E+00 0.  1.
          2    1    1    2  501    0  0.51832784271E+02  0.32169309131E+02  0.51133632094E+03  0.51496245989E+03  0.25500000000E-02 0. -1.
<mgrwt>
<rscale>  0 0.37153492E+02</rscale>
<asrwt>0</asrwt>
<pdfrwt beam="1">  1       11 0.10000000E+01 0.61839830E+02</pdfrwt>
<pdfrwt beam="2">  1        2 0.89137128E-03 0.37153492E+02</pdfrwt>
<totfact> 0.15181848E+04</totfact>
</mgrwt>
</event>
<event>
 5    1  0.1851087E-003  0.2191718E+03  0.7818608E-02  0.1134502E+00
         11   -1    0    0    0    0  0.00000000000E+00  0.00000000000E+00  0.99994177726E+03  0.99994177726E+03  0.51100000000E-03 0.  1.
          2   -1    0    0  501    0 -0.00000000000E+00 -0.00000000000E+00 -0.15144850303E+03  0.15144850306E+03  0.25500000000E-02 0.  1.
         11    1    1    2    0    0  0.14663347036E+03 -0.14805692842E+03  0.90202029286E+03  0.92577688317E+03  0.51100000000E-03 0.  1.
         22    1    1    2    0    0 -0.72760112728E+02  0.11957034651E+03 -0.32451900879E+02  0.14368099262E+03  0.00000000000E+00 0.  1.
          2    1    1    2  501    0 -0.73873357631E+02  0.28486581904E+02 -0.21075117757E+02  0.81932404525E+02  0.25500000000E-02 0.  1.
<mgrwt>
<rscale>  0 0.21917177E+03</rscale>
<asrwt>0</asrwt>
<pdfrwt beam="1">  1       11 0.10000000E+01 0.20838001E+03</pdfrwt>
<pdfrwt beam="2">  1        2 0.23298412E-01 0.21917177E+03</pdfrwt>
<totfact> 0.28662668E+02</totfact>
</mgrwt>
</event>
<event>
 5    1  0.1851087E-003  0.1882630E+03  0.7818608E-02  0.1453651E+00
         11   -1    0    0    0    0  0.00000000000E+00  0.00000000000E+00  0.10004074090E+04  0.10004074090E+04  0.51100000000E-03 0. -1.
          2   -1    0    0  501    0 -0.00000000000E+00 -0.00000000000E+00 -0.10345578626E+03  0.10345578629E+03  0.25500000000E-02 0. -1.
         11    1    1    2    0    0  0.17576547250E+03  0.77993614973E+02  0.86078293225E+03  0.88199986494E+03  0.51100000000E-03 0. -1.
         22    1    1    2    0    0 -0.13010897495E+03 -0.94331675810E+02 -0.10894659186E+01  0.16071091239E+03  0.00000000000E+00 0. -1.
          2    1    1    2  501    0 -0.45656497546E+02  0.16338060837E+02  0.37258156453E+02  0.61152418013E+02  0.25500000000E-02 0. -1.
<mgrwt>
<rscale>  0 0.48491731E+02</rscale>
<asrwt>0</asrwt>
<pdfrwt beam="1">  1       11 0.10000000E+01 0.18826305E+03</pdfrwt>
<pdfrwt beam="2">  1        2 0.15922759E-01 0.48491731E+02</pdfrwt>
<totfact> 0.41546452E+02</totfact>
</mgrwt>
</event>
<event>
 5    1  0.1851087E-003  0.1189081E+03  0.7818608E-02  0.1244909E+00
         11   -1    0    0    0    0  0.00000000000E+00  0.00000000000E+00  0.10003231668E+04  0.10003231668E+04  0.51100000000E-03 0.  1.
          2   -1    0    0  501    0 -0.00000000000E+00 -0.00000000000E+00 -0.29642617970E+02  0.29642618080E+02  0.25500000000E-02 0.  1.
         11    1    1    2    0    0  0.54835724259E+02  0.10589050736E+03  0.12370777972E+03  0.17182366241E+03  0.51100000000E-03 0.  1.
         22    1    1    2    0    0 -0.16478171040E+02  0.59007438342E+01  0.66203313432E+02  0.68477935191E+02  0.00000000000E+00 0. -1.
          2    1    1    2  501    0 -0.38357553218E+02 -0.11179125119E+03  0.78076945565E+03  0.78966418724E+03  0.25500000000E-02 0.  1.
<mgrwt>
<rscale>  0 0.11890812E+03</rscale>
<asrwt>0</asrwt>
<pdfrwt beam="1">  1       11 0.10000000E+01 0.17502825E+02</pdfrwt>
<pdfrwt beam="2">  1        2 0.45618764E-02 0.11890812E+03</pdfrwt>
<totfact> 0.20426942E+03</totfact>
</mgrwt>
</event>
<event>
 5    1  0.1851087E-003  0.2477258E+03  0.7818608E-02  0.1114751E+00
         11   -1    0    0    0    0  0.00000000000E+00  0.00000000000E+00  0.10002263740E+04  0.10002263740E+04  0.51100000000E-03 0.  1.
         -2   -1    0    0    0  501 -0.00000000000E+00 -0.00000000000E+00 -0.24955525481E+03  0.24955525482E+03  0.25500000000E-02 0. -1.
         11    1    1    2    0    0 -0.16232124044E+03  0.17612179016E+03  0.91937816006E+03  0.95006487740E+03  0.51100000000E-03 0.  1.
         22    1    1    2    0    0  0.11952509571E+03 -0.10802956160E+03 -0.79663731943E+02  0.17973020022E+03  0.00000000000E+00 0. -1.
         -2    1    1    2    0  501  0.42796144732E+02 -0.68092228564E+02 -0.89043308939E+02  0.11998655120E+03  0.25500000000E-02 0. -1.
<mgrwt>
<rscale>  0 0.24772579E+03</rscale>
<asrwt>0</asrwt>
<pdfrwt beam="1">  1       11 0.10000000E+01 0.23951424E+03</pdfrwt>
<pdfrwt beam="2">  1       -2 0.38401806E-01 0.24772579E+03</pdfrwt>
<totfact> 0.52036345E+01</totfact>
</mgrwt>
</event>
<event>
 5    1  0.1851087E-003  0.1519510E+03  0.7818608E-02  0.1198096E+00
         11   -1    0    0    0    0  0.00000000000E+00  0.00000000000E+00  0.10000314560E+04  0.10000314560E+04  0.51100000000E-03 0.  1.
          2   -1    0    0  501    0 -0.00000000000E+00 -0.00000000000E+00 -0.21648542335E+02  0.21648542485E+02  0.25500000000E-02 0.  1.
         11    1    1    2    0    0  0.41164234277E+02  0.13372767089E+03  0.53444372859E+03  0.55245604637E+03  0.51100000000E-03 0.  1.
         22    1    1    2    0    0  0.15322741412E+02 -0.30931934924E+02  0.10956166992E+03  0.11487092982E+03  0.00000000000E+00 0.  1.
          2    1    1    2  501    0 -0.56486975689E+02 -0.10279573597E+03  0.33437751513E+03  0.35435302226E+03  0.25500000000E-02 0.  1.
<mgrwt>
<rscale>  0 0.15195104E+03</rscale>
<asrwt>0</asrwt>
<pdfrwt beam="1">  1       11 0.10000000E+01 0.13991992E+03</pdfrwt>
<pdfrwt beam="2">  1        2 0.33306497E-02 0.15195104E+03</pdfrwt>
<totfact> 0.31702523E+03</totfact>
</mgrwt>
</event>
<event>
 5    1  0.1851087E-003  0.1514350E+03  0.7818608E-02  0.1198721E+00
         11   -1    0    0    0    0  0.00000000000E+00  0.00000000000E+00  0.10002063964E+04  0.10002063964E+04  0.51100000000E-03 0.  1.
         -2   -1    0    0    0  501 -0.00000000000E+00 -0.00000000000E+00 -0.25919709146E+02  0.25919709272E+02  0.25500000000E-02 0. -1.
         11    1    1    2    0    0 -0.11440781865E+03  0.76492282914E+02  0.69431657901E+03  0.70782464651E+03  0.51100000000E-03 0.  1.
         22    1    1    2    0    0  0.34897396240E+02 -0.45376345732E+02  0.62929277125E+02  0.85070176535E+02  0.00000000000E+00 0. -1.
         -2    1    1    2    0  501  0.79510422413E+02 -0.31115937182E+02  0.21704083116E+03  0.23323128267E+03  0.25500000000E-02 0. -1.
<mgrwt>
<rscale>  0 0.15143499E+03</rscale>
<asrwt>0</asrwt>
<pdfrwt beam="1">  1       11 0.10000000E+01 0.13762347E+03</pdfrwt>
<pdfrwt beam="2">  1       -2 0.39884705E-02 0.15143499E+03</pdfrwt>
<totfact> 0.20919353E+03</totfact>
</mgrwt>
</event>
<event>
 5    1  0.1851087E-003  0.9320093E+02  0.7818608E-02  0.1366245E+00
         11   -1    0    0    0    0  0.00000000000E+00  0.00000000000E+00  0.10002369817E+04  0.10002369817E+04  0.51100000000E-03 0. -1.
          2   -1    0    0  501    0 -0.00000000000E+00 -0.00000000000E+00 -0.16369031421E+02  0.16369031620E+02  0.25500000000E-02 0.  1.
         11    1    1    2    0    0  0.49784913260E+02  0.98786523699E+02  0.62888873343E+03  0.63854393263E+03  0.51100000000E-03 0. -1.
         22    1    1    2    0    0  0.87120388341E+01 -0.49172093124E+02  0.99686077085E+02  0.11149488027E+03  0.00000000000E+00 0.  1.
          2    1    1    2  501    0 -0.58496952094E+02 -0.49614430575E+02  0.25529313980E+03  0.26656720046E+03  0.25500000000E-02 0.  1.
<mgrwt>
<rscale>  0 0.68222131E+02</rscale>
<asrwt>0</asrwt>
<pdfrwt beam="1">  1       11 0.10000000E+01 0.93200929E+02</pdfrwt>
<pdfrwt beam="2">  1        2 0.25189093E-02 0.68222131E+02</pdfrwt>
<totfact> 0.42104791E+03</totfact>
</mgrwt>
</event>
<event>
 5    1  0.1851087E-003  0.9848993E+02  0.7818608E-02  0.1325111E+00
         11   -1    0    0    0    0  0.00000000000E+00  0.00000000000E+00  0.10000689350E+04  0.10000689350E+04  0.51100000000E-03 0.  1.
          2   -1    0    0  501    0 -0.00000000000E+00 -0.00000000000E+00 -0.19915173917E+02  0.19915174081E+02  0.25500000000E-02 0.  1.
         11    1    1    2    0    0  0.12024998569E+03 -0.77969584025E+01  0.60846020039E+03  0.62027789504E+03  0.51100000000E-03 0.  1.
         22    1    1    2    0    0 -0.50013300578E+02  0.45008374555E+02  0.15928090920E+03  0.17290891259E+03  0.00000000000E+00 0.  1.
          2    1    1    2  501    0 -0.70236685110E+02 -0.37211416153E+02  0.21241265149E+03  0.22679730145E+03  0.25500000000E-02 0.  1.
<mgrwt>
<rscale>  0 0.81404901E+02</rscale>
<asrwt>0</asrwt>
<pdfrwt beam="1">  1       11 0.10000000E+01 0.98489930E+02</pdfrwt>
<pdfrwt beam="2">  1        2 0.30640840E-02 0.81404901E+02</pdfrwt>
<totfact> 0.33191180E+03</totfact>
</mgrwt>
</event>
<event>
 5    1  0.1851087E-003  0.1856604E+03  0.7818608E-02  0.1162435E+00
         11   -1    0    0    0    0  0.00000000000E+00  0.00000000000E+00  0.10002035844E+04  0.10002035844E+04  0.51100000000E-03 0. -1.
         -2   -1    0    0    0  501 -0.00000000000E+00 -0.00000000000E+00 -0.19210631564E+03  0.19210631566E+03  0.25500000000E-02 0.  1.
         11    1    1    2    0    0 -0.71878820026E+02 -0.16791223212E+03  0.94445557795E+03  0.96195499956E+03  0.51100000000E-03 0. -1.
         22    1    1    2    0    0  0.25665438998E+02  0.26598296135E+02 -0.28507428234E+02  0.46678234550E+02  0.00000000000E+00 0. -1.
         -2    1    1    2    0  501  0.46213381028E+02  0.14131393598E+03 -0.10785088094E+03  0.18367666595E+03  0.25500000000E-02 0.  1.
<mgrwt>
<rscale>  0 0.18566042E+03</rscale>
<asrwt>0</asrwt>
<pdfrwt beam="1">  1       11 0.10000000E+01 0.18265016E+03</pdfrwt>
<pdfrwt beam="2">  1       -2 0.29560834E-01 0.18566042E+03</pdfrwt>
<totfact> 0.84231398E+01</totfact>
</mgrwt>
</event>
<event>
 5    1  0.1851087E-003  0.2632072E+03  0.7818608E-02  0.1105231E+00
         11   -1    0    0    0    0  0.00000000000E+00  0.00000000000E+00  0.10004426936E+04  0.10004426936E+04  0.51100000000E-03 0. -1.
          2   -1    0    0  501    0 -0.00000000000E+00 -0.00000000000E+00 -0.42518814477E+03  0.42518814478E+03  0.25500000000E-02 0. -1.
         11    1    1    2    0    0  0.23317368961E+03  0.10895696771E+03  0.94069593531E+03  0.97526941562E+03  0.51100000000E-03 0. -1.
         22    1    1    2    0    0 -0.22736639533E+02  0.22486123123E+01 -0.51959916368E+02  0.56761289129E+02  0.00000000000E+00 0.  1.
          2    1    1    2  501    0 -0.21043705008E+03 -0.11120558002E+03 -0.31348147012E+03  0.39360013363E+03  0.25500000000E-02 0. -1.
<mgrwt>
<rscale>  0 0.26320715E+03</rscale>
<asrwt>0</asrwt>
<pdfrwt beam="1">  1       11 0.10000000E+01 0.25737442E+03</pdfrwt>
<pdfrwt beam="2">  1        2 0.65442517E-01 0.26320715E+03</pdfrwt>
<totfact> 0.92831205E+01</totfact>
</mgrwt>
</event>
<event>
 5    1  0.1851087E-003  0.2277858E+03  0.7818608E-02  0.1190671E+00
         11   -1    0    0    0    0  0.00000000000E+00  0.00000000000E+00  0.10000246425E+04  0.10000246425E+04  0.51100000000E-03 0. -1.
          2   -1    0    0  501    0 -0.00000000000E+00 -0.00000000000E+00 -0.25342936507E+03  0.25342936508E+03  0.25500000000E-02 0. -1.
         11    1    1    2    0    0 -0.18078970319E+03  0.13475195008E+03  0.83104692085E+03  0.86109348475E+03  0.51100000000E-03 0. -1.
         22    1    1    2    0    0 -0.84489321955E+02 -0.70376686319E+02 -0.30357964161E+02  0.11407422798E+03  0.00000000000E+00 0.  1.
          2    1    1    2  501    0  0.26527902514E+03 -0.64375263760E+02 -0.54093679244E+02  0.27828629486E+03  0.25500000000E-02 0. -1.
<mgrwt>
<rscale>  0 0.15826387E+03</rscale>
<asrwt>0</asrwt>
<pdfrwt beam="1">  1       11 0.10000000E+01 0.22778580E+03</pdfrwt>
<pdfrwt beam="2">  1        2 0.38990093E-01 0.15826387E+03</pdfrwt>
<totfact> 0.16222119E+02</totfact>
</mgrwt>
</event>
<event>
 5    1  0.1851087E-003  0.2513177E+03  0.7818608E-02  0.1409872E+00
         11   -1    0    0    0    0  0.00000000000E+00  0.00000000000E+00  0.10001503572E+04  0.10001503572E+04  0.51100000000E-03 0.  1.
          2   -1    0    0  501    0 -0.00000000000E+00 -0.00000000000E+00 -0.17944151828E+03  0.17944151830E+03  0.25500000000E-02 0.  1.
         11    1    1    2    0    0 -0.18471403140E+03 -0.17067771643E+03  0.87225276005E+03  0.90778578624E+03  0.51100000000E-03 0.  1.
         22    1    1    2    0    0  0.99977965185E+01 -0.83545201160E+01 -0.13520069157E+02  0.18776213985E+02  0.00000000000E+00 0.  1.
          2    1    1    2  501    0  0.17471623489E+03  0.17903223654E+03 -0.38023851978E+02  0.25302987527E+03  0.25500000000E-02 0.  1.
<mgrwt>
<rscale>  0 0.57222460E+02</rscale>
<asrwt>0</asrwt>
<pdfrwt beam="1">  1       11 0.10000000E+01 0.25131772E+03</pdfrwt>
<pdfrwt beam="2">  1        2 0.27610537E-01 0.57222460E+02</pdfrwt>
<totfact> 0.22956411E+02</totfact>
</mgrwt>
</event>
<event>
 5    1  0.1851087E-003  0.2390069E+03  0.7818608E-02  0.1120456E+00
         11   -1    0    0    0    0  0.00000000000E+00  0.00000000000E+00  0.10000531164E+04  0.10000531164E+04  0.51100000000E-03 0.  1.
         -2   -1    0    0    0  501 -0.00000000000E+00 -0.00000000000E+00 -0.55316732413E+02  0.55316732472E+02  0.25500000000E-02 0. -1.
         11    1    1    2    0    0  0.80237518086E+02  0.21354871374E+03  0.52361732217E+03  0.57115340542E+03  0.51100000000E-03 0.  1.
         22    1    1    2    0    0 -0.67981814518E+02 -0.89370405354E+02  0.23036336469E+03  0.25627305018E+03  0.00000000000E+00 0.  1.
         -2    1    1    2    0  501 -0.12255703568E+02 -0.12417830839E+03  0.19075569717E+03  0.22794339331E+03  0.25500000000E-02 0. -1.
<mgrwt>
<rscale>  0 0.23900690E+03</rscale>
<asrwt>0</asrwt>
<pdfrwt beam="1">  1       11 0.10000000E+01 0.22812521E+03</pdfrwt>
<pdfrwt beam="2">  1       -2 0.85107183E-02 0.23900690E+03</pdfrwt>
<totfact> 0.68002303E+02</totfact>
</mgrwt>
</event>
<event>
 5    1  0.1851087E-003  0.6267337E+02  0.7818608E-02  0.1386943E+00
         11   -1    0    0    0    0  0.00000000000E+00  0.00000000000E+00  0.10001241130E+04  0.10001241130E+04  0.51100000000E-03 0. -1.
          2   -1    0    0  501    0 -0.00000000000E+00 -0.00000000000E+00 -0.15896626633E+02  0.15896626837E+02  0.25500000000E-02 0. -1.
         11    1    1    2    0    0 -0.23075549009E+02  0.58081419835E+02  0.59688813195E+02  0.86421563935E+02  0.51100000000E-03 0. -1.
         22    1    1    2    0    0 -0.19601025776E+02 -0.57116290941E+01  0.88007775919E+02  0.90344847892E+02  0.00000000000E+00 0. -1.
          2    1    1    2  501    0  0.42676574785E+02 -0.52369790741E+02  0.83653089728E+03  0.83925432804E+03  0.25500000000E-02 0. -1.
<mgrwt>
<rscale>  0 0.62673367E+02</rscale>
<asrwt>0</asrwt>
<pdfrwt beam="1">  1       11 0.10000000E+01 0.20416242E+02</pdfrwt>
<pdfrwt beam="2">  1        2 0.24459383E-02 0.62673367E+02</pdfrwt>
<totfact> 0.43296317E+03</totfact>
</mgrwt>
</event>
<event>
 5    1  0.1851087E-003  0.1498255E+03  0.7818608E-02  0.1200688E+00
         11   -1    0    0    0    0  0.00000000000E+00  0.00000000000E+00  0.10004030223E+04  0.10004030223E+04  0.51100000000E-03 0.  1.
         -2   -1    0    0    0  501 -0.00000000000E+00 -0.00000000000E+00 -0.25683439150E+02  0.25683439276E+02  0.25500000000E-02 0. -1.
         11    1    1    2    0    0  0.36910654409E+02  0.14045489448E+03  0.68155590108E+03  0.69685609712E+03  0.51100000000E-03 0.  1.
         22    1    1    2    0    0 -0.95457123376E+01 -0.32628175527E+02  0.38692341776E+02  0.51505492662E+02  0.00000000000E+00 0. -1.
         -2    1    1    2    0  501 -0.27364942072E+02 -0.10782671895E+03  0.25447134025E+03  0.27772487175E+03  0.25500000000E-02 0. -1.
<mgrwt>
<rscale>  0 0.14982553E+03</rscale>
<asrwt>0</asrwt>
<pdfrwt beam="1">  1       11 0.10000000E+01 0.14522387E+03</pdfrwt>
<pdfrwt beam="2">  1       -2 0.39528907E-02 0.14982553E+03</pdfrwt>
<totfact> 0.21179108E+03</totfact>
</mgrwt>
</event>
<event>
 5    1  0.1851087E-003  0.1972534E+03  0.7818608E-02  0.1152077E+00
         11   -1    0    0    0    0  0.00000000000E+00  0.00000000000E+00  0.10002692220E+04  0.10002692220E+04  0.51100000000E-03 0. -1.
          2   -1    0    0  501    0 -0.00000000000E+00 -0.00000000000E+00 -0.39214121594E+02  0.39214121676E+02  0.25500000000E-02 0. -1.
         11    1    1    2    0    0  0.16280405334E+03 -0.10029667722E+03  0.57487309187E+03  0.60584127872E+03  0.51100000000E-03 0. -1.
         22    1    1    2    0    0 -0.48533260200E+02  0.55629495715E+02  0.16358845370E+03  0.17947506881E+03  0.00000000000E+00 0. -1.
          2    1    1    2  501    0 -0.11427079314E+03  0.44667181509E+02  0.22259355482E+03  0.25416699613E+03  0.25500000000E-02 0. -1.
<mgrwt>
<rscale>  0 0.19725338E+03</rscale>
<asrwt>0</asrwt>
<pdfrwt beam="1">  1       11 0.10000000E+01 0.19121868E+03</pdfrwt>
<pdfrwt beam="2">  1        2 0.60345658E-02 0.19725338E+03</pdfrwt>
<totfact> 0.14751253E+03</totfact>
</mgrwt>
</event>
<event>
 5    1  0.1851087E-003  0.1194708E+03  0.7818608E-02  0.1243973E+00
         11   -1    0    0    0    0  0.00000000000E+00  0.00000000000E+00  0.10001070633E+04  0.10001070633E+04  0.51100000000E-03 0. -1.
          2   -1    0    0  501    0 -0.00000000000E+00 -0.00000000000E+00 -0.15769171869E+02  0.15769172075E+02  0.25500000000E-02 0. -1.
         11    1    1    2    0    0 -0.10952805156E+03 -0.18065850957E+02  0.27520731274E+03  0.29675214243E+03  0.51100000000E-03 0. -1.
         22    1    1    2    0    0  0.50977483439E+02  0.23440023925E+01  0.20046163949E+03  0.20685518381E+03  0.00000000000E+00 0. -1.
          2    1    1    2  501    0  0.58550568117E+02  0.15721848564E+02  0.50866893923E+03  0.51226890916E+03  0.25500000000E-02 0. -1.
<mgrwt>
<rscale>  0 0.11947085E+03</rscale>
<asrwt>0</asrwt>
<pdfrwt beam="1">  1       11 0.10000000E+01 0.11100802E+03</pdfrwt>
<pdfrwt beam="2">  1        2 0.24262861E-02 0.11947085E+03</pdfrwt>
<totfact> 0.47369439E+03</totfact>
</mgrwt>
</event>
<event>
 5    1  0.1851087E-003  0.8919391E+02  0.7818608E-02  0.1466641E+00
         11   -1    0    0    0    0  0.00000000000E+00  0.00000000000E+00  0.10000003427E+04  0.10000003427E+04  0.51100000000E-03 0.  1.
          2   -1    0    0  501    0 -0.00000000000E+00 -0.00000000000E+00 -0.24837528209E+02  0.24837528340E+02  0.25500000000E-02 0.  1.
         11    1    1    2    0    0  0.52409896764E+02  0.75220674864E+02  0.34946472133E+03  0.36129010319E+03  0.51100000000E-03 0.  1.
         22    1    1    2    0    0 -0.81585592012E+02 -0.39324620110E+02  0.96544872860E+02  0.13237653510E+03  0.00000000000E+00 0.  1.
          2    1    1    2  501    0  0.29175695248E+02 -0.35896054754E+02  0.52915322031E+03  0.53117123276E+03  0.25500000000E-02 0.  1.
<mgrwt>
<rscale>  0 0.46257410E+02</rscale>
<asrwt>0</asrwt>
<pdfrwt beam="1">  1       11 0.10000000E+01 0.89193914E+02</pdfrwt>
<pdfrwt beam="2">  1        2 0.38211594E-02 0.46257410E+02</pdfrwt>
<totfact> 0.23289545E+03</totfact>
</mgrwt>
</event>
<event>
 5    1  0.1851087E-003  0.1029700E+03  0.7818608E-02  0.1274172E+00
         11   -1    0    0    0    0  0.00000000000E+00  0.00000000000E+00  0.10000162023E+04  0.10000162023E+04  0.51100000000E-03 0. -1.
          2   -1    0    0  501    0 -0.00000000000E+00 -0.00000000000E+00 -0.10583819991E+02  0.10583820299E+02  0.25500000000E-02 0. -1.
         11    1    1    2    0    0 -0.38657621940E+02  0.92915646938E+02  0.56202404739E+03  0.57096301020E+03  0.51100000000E-03 0. -1.
         22    1    1    2    0    0  0.34632609806E+02 -0.56521620975E+02  0.28277995083E+03  0.29044554032E+03  0.00000000000E+00 0. -1.
          2    1    1    2  501    0  0.40250121348E+01 -0.36394025963E+02  0.14462838407E+03  0.14919147206E+03  0.25500000000E-02 0. -1.
<mgrwt>
<rscale>  0 0.10296999E+03</rscale>
<asrwt>0</asrwt>
<pdfrwt beam="1">  1       11 0.10000000E+01 0.10063662E+03</pdfrwt>
<pdfrwt beam="2">  1        2 0.16283064E-02 0.10296999E+03</pdfrwt>
<totfact> 0.79890269E+03</totfact>
</mgrwt>
</event>
<event>
 5    1  0.1851087E-003  0.1252739E+03  0.7818608E-02  0.1648262E+00
         11   -1    0    0    0    0  0.00000000000E+00  0.00000000000E+00  0.10004047170E+04  0.10004047170E+04  0.51100000000E-03 0. -1.
          2   -1    0    0  501    0 -0.00000000000E+00 -0.00000000000E+00 -0.25754197618E+02  0.25754197744E+02  0.25500000000E-02 0. -1.
         11    1    1    2    0    0 -0.34443407399E+02 -0.12519975138E+03  0.64582844893E+03  0.65875314914E+03  0.51100000000E-03 0. -1.
         22    1    1    2    0    0  0.47737478384E+02  0.10296000255E+03  0.15746071422E+03  0.19409663956E+03  0.00000000000E+00 0. -1.
          2    1    1    2  501    0 -0.13294070985E+02  0.22239748827E+02  0.17136135620E+03  0.17330912600E+03  0.25500000000E-02 0. -1.
<mgrwt>
<rscale>  0 0.25910206E+02</rscale>
<asrwt>0</asrwt>
<pdfrwt beam="1">  1       11 0.10000000E+01 0.12527392E+03</pdfrwt>
<pdfrwt beam="2">  1        2 0.39637877E-02 0.25910206E+02</pdfrwt>
<totfact> 0.20604235E+03</totfact>
</mgrwt>
</event>
<event>
 5    1  0.1851087E-003  0.1319519E+03  0.7818608E-02  0.1224588E+00
         11   -1    0    0    0    0  0.00000000000E+00  0.00000000000E+00  0.10002024363E+04  0.10002024363E+04  0.51100000000E-03 0. -1.
          2   -1    0    0  501    0 -0.00000000000E+00 -0.00000000000E+00 -0.53519174146E+02  0.53519174207E+02  0.25500000000E-02 0. -1.
         11    1    1    2    0    0  0.16054696307E+03  0.88347255407E-01  0.76500514888E+03  0.78167014333E+03  0.51100000000E-03 0. -1.
         22    1    1    2    0    0 -0.34950791637E+02 -0.28045313815E+02  0.12247314457E+03  0.13041383594E+03  0.00000000000E+00 0. -1.
          2    1    1    2  501    0 -0.12559617143E+03  0.27956966559E+02  0.59204968703E+02  0.14163763124E+03  0.25500000000E-02 0. -1.
<mgrwt>
<rscale>  0 0.13195191E+03</rscale>
<asrwt>0</asrwt>
<pdfrwt beam="1">  1       11 0.10000000E+01 0.44811800E+02</pdfrwt>
<pdfrwt beam="2">  1        2 0.82353857E-02 0.13195191E+03</pdfrwt>
<totfact> 0.96589647E+02</totfact>
</mgrwt>
</event>
<event>
 5    1  0.1851087E-003  0.1685975E+03  0.7818608E-02  0.1179318E+00
         11   -1    0    0    0    0  0.00000000000E+00  0.00000000000E+00  0.10002255146E+04  0.10002255146E+04  0.51100000000E-03 0. -1.
          2   -1    0    0  501    0 -0.00000000000E+00 -0.00000000000E+00 -0.60714633771E+02  0.60714633825E+02  0.25500000000E-02 0. -1.
         11    1    1    2    0    0  0.12283332658E+03  0.10714183423E+03  0.85859739007E+03  0.87393184917E+03  0.51100000000E-03 0. -1.
         22    1    1    2    0    0 -0.14039443955E+02 -0.22979826912E+02 -0.94423735463E+00  0.26945686402E+02  0.00000000000E+00 0.  1.
          2    1    1    2  501    0 -0.10879388263E+03 -0.84162007323E+02  0.81857728114E+02  0.16006261285E+03  0.25500000000E-02 0. -1.
<mgrwt>
<rscale>  0 0.16859748E+03</rscale>
<asrwt>0</asrwt>
<pdfrwt beam="1">  1       11 0.10000000E+01 0.16299509E+03</pdfrwt>
<pdfrwt beam="2">  1        2 0.93428191E-02 0.16859748E+03</pdfrwt>
<totfact> 0.83743319E+02</totfact>
</mgrwt>
</event>
<event>
 5    1  0.1851087E-003  0.2577432E+02  0.7818608E-02  0.1730558E+00
         11   -1    0    0    0    0  0.00000000000E+00  0.00000000000E+00  0.10001880514E+04  0.10001880514E+04  0.51100000000E-03 0.  1.
          2   -1    0    0  501    0 -0.00000000000E+00 -0.00000000000E+00 -0.26016273400E+01  0.26016285897E+01  0.25500000000E-02 0.  1.
         11    1    1    2    0    0 -0.20729591660E+02 -0.99059912981E+01  0.10998255254E+03  0.11235660415E+03  0.51100000000E-03 0.  1.
         22    1    1    2    0    0 -0.57247175536E+01  0.15716673416E+02  0.57400074001E+02  0.59787579895E+02  0.00000000000E+00 0.  1.
          2    1    1    2  501    0  0.26454309214E+02 -0.58106821177E+01  0.83020379749E+03  0.83064549591E+03  0.25500000000E-02 0.  1.
<mgrwt>
<rscale>  0 0.20763475E+02</rscale>
<asrwt>0</asrwt>
<pdfrwt beam="1">  1       11 0.10000000E+01 0.25774315E+02</pdfrwt>
<pdfrwt beam="2">  1        2 0.40032571E-03 0.20763475E+02</pdfrwt>
<totfact> 0.37946338E+04</totfact>
</mgrwt>
</event>
<event>
 5    1  0.1851087E-003  0.1990717E+03  0.7818608E-02  0.1156201E+00
         11   -1    0    0    0    0  0.00000000000E+00  0.00000000000E+00  0.10001048087E+04  0.10001048087E+04  0.51100000000E-03 0. -1.
          2   -1    0    0  501    0 -0.00000000000E+00 -0.00000000000E+00 -0.38358928312E+02  0.38358928397E+02  0.25500000000E-02 0. -1.
         11    1    1    2    0    0  0.16449192783E+03 -0.42960080424E+02  0.37242408292E+03  0.40939328325E+03  0.51100000000E-03 0. -1.
         22    1    1    2    0    0  0.24428220981E+02  0.58610519781E+01  0.10314796477E+03  0.10616304700E+03  0.00000000000E+00 0. -1.
          2    1    1    2  501    0 -0.18892014881E+03  0.37099028445E+02  0.48617383272E+03  0.52290740687E+03  0.25500000000E-02 0. -1.
<mgrwt>
<rscale>  0 0.19252834E+03</rscale>
<asrwt>0</asrwt>
<pdfrwt beam="1">  1       11 0.10000000E+01 0.19907174E+03</pdfrwt>
<pdfrwt beam="2">  1        2 0.59019919E-02 0.19252834E+03</pdfrwt>
<totfact> 0.15158745E+03</totfact>
</mgrwt>
</event>
<event>
 5    1  0.1851087E-003  0.1137967E+04  0.7818608E-02  0.9168957E-01
         11   -1    0    0    0    0  0.00000000000E+00  0.00000000000E+00  0.10002972588E+04  0.10002972588E+04  0.51100000000E-03 0.  1.
          2   -1    0    0  501    0 -0.00000000000E+00 -0.00000000000E+00 -0.14212512594E+04  0.14212512594E+04  0.25500000000E-02 0.  1.
         11    1    1    2    0    0  0.33917448140E+03 -0.10781222550E+04 -0.58363399300E+03  0.12720124069E+04  0.51100000000E-03 0.  1.
         22    1    1    2    0    0  0.11015003239E+02  0.28284195278E+02 -0.29937296695E+01  0.30500629767E+02  0.00000000000E+00 0. -1.
          2    1    1    2  501    0 -0.35018948464E+03  0.10498380597E+04  0.16567372214E+03  0.11190354815E+04  0.25500000000E-02 0.  1.
<mgrwt>
<rscale>  0 0.11379668E+04</rscale>
<asrwt>0</asrwt>
<pdfrwt beam="1">  1       11 0.10000000E+01 0.11302160E+04</pdfrwt>
<pdfrwt beam="2">  1        2 0.21871903E+00 0.11379668E+04</pdfrwt>
<totfact> 0.17141098E+01</totfact>
</mgrwt>
</event>
<event>
 5    1  0.1851087E-003  0.3692921E+03  0.7818608E-02  0.1121749E+00
         11   -1    0    0    0    0  0.00000000000E+00  0.00000000000E+00  0.10001612464E+04  0.10001612464E+04  0.51100000000E-03 0. -1.
          2   -1    0    0  501    0 -0.00000000000E+00 -0.00000000000E+00 -0.13792799597E+04  0.13792799597E+04  0.25500000000E-02 0. -1.
         11    1    1    2    0    0 -0.30433363142E+03 -0.21099336273E+03  0.90635724052E+03  0.97909172490E+03  0.51100000000E-03 0. -1.
         22    1    1    2    0    0 -0.66266903330E+02  0.13702822758E+03 -0.58449841636E+03  0.60399208303E+03  0.00000000000E+00 0. -1.
          2    1    1    2  501    0  0.37060053475E+03  0.73965135155E+02 -0.70097753745E+03  0.79635739815E+03  0.25500000000E-02 0. -1.
<mgrwt>
<rscale>  0 0.23708677E+03</rscale>
<asrwt>0</asrwt>
<pdfrwt beam="1">  1       11 0.10000000E+01 0.36929211E+03</pdfrwt>
<pdfrwt beam="2">  1        2 0.21223113E+00 0.23708677E+03</pdfrwt>
<totfact> 0.20060491E+01</totfact>
</mgrwt>
</event>
<event>
 5    1  0.1851087E-003  0.2067125E+03  0.7818608E-02  0.1196714E+00
         11   -1    0    0    0    0  0.00000000000E+00  0.00000000000E+00  0.10003271738E+04  0.10003271738E+04  0.51100000000E-03 0.  1.
         -2   -1    0    0    0  501 -0.00000000000E+00 -0.00000000000E+00 -0.15250961090E+03  0.15250961092E+03  0.25500000000E-02 0. -1.
         11    1    1    2    0    0 -0.19555951086E+03  0.95934733643E+02  0.76294164372E+03  0.79342734206E+03  0.51100000000E-03 0.  1.
         22    1    1    2    0    0  0.17724085916E+03  0.56066245869E+02  0.32881826503E+01  0.18592621716E+03  0.00000000000E+00 0. -1.
         -2    1    1    2    0  501  0.18318651700E+02 -0.15200097951E+03  0.81587736519E+02  0.17348322550E+03  0.25500000000E-02 0. -1.
<mgrwt>
<rscale>  0 0.15310085E+03</rscale>
<asrwt>0</asrwt>
<pdfrwt beam="1">  1       11 0.10000000E+01 0.20671247E+03</pdfrwt>
<pdfrwt beam="2">  1       -2 0.23470693E-01 0.15310085E+03</pdfrwt>
<totfact> 0.12617118E+02</totfact>
</mgrwt>
</event>
<event>
 5    1  0.1851087E-003  0.2387539E+03  0.7818608E-02  0.1384116E+00
         11   -1    0    0    0    0  0.00000000000E+00  0.00000000000E+00  0.10002299064E+04  0.10002299064E+04  0.51100000000E-03 0. -1.
          2   -1    0    0  501    0 -0.00000000000E+00 -0.00000000000E+00 -0.10253641815E+03  0.10253641818E+03  0.25500000000E-02 0. -1.
         11    1    1    2    0    0 -0.97763779965E+02 -0.21956416698E+03  0.80022593085E+03  0.83554037634E+03  0.51100000000E-03 0. -1.
         22    1    1    2    0    0 -0.95232743536E+01  0.13879468028E+02  0.65843285721E+01  0.18074450749E+02  0.00000000000E+00 0.  1.
          2    1    1    2  501    0  0.10728705432E+03  0.20568469896E+03  0.90883228833E+02  0.24915149749E+03  0.25500000000E-02 0. -1.
<mgrwt>
<rscale>  0 0.63394169E+02</rscale>
<asrwt>0</asrwt>
<pdfrwt beam="1">  1       11 0.10000000E+01 0.23875393E+03</pdfrwt>
<pdfrwt beam="2">  1        2 0.15778460E-01 0.63394169E+02</pdfrwt>
<totfact> 0.42585707E+02</totfact>
</mgrwt>
</event>
<event>
 5    1  0.1851087E-003  0.2010920E+03  0.7818608E-02  0.1148821E+00
         11   -1    0    0    0    0  0.00000000000E+00  0.00000000000E+00  0.10004538006E+04  0.10004538006E+04  0.51100000000E-03 0.  1.
          2   -1    0    0  501    0 -0.00000000000E+00 -0.00000000000E+00 -0.31156776313E+03  0.31156776314E+03  0.25500000000E-02 0.  1.
         11    1    1    2    0    0 -0.41403999063E+02  0.19389222436E+03  0.95674906823E+03  0.97707587493E+03  0.51100000000E-03 0.  1.
         22    1    1    2    0    0 -0.54186872073E+01 -0.21062736564E+02 -0.34846355318E+02  0.41076386423E+02  0.00000000000E+00 0. -1.
          2    1    1    2  501    0  0.46822686270E+02 -0.17282948779E+03 -0.23301667548E+03  0.29386930234E+03  0.25500000000E-02 0.  1.
<mgrwt>
<rscale>  0 0.20109205E+03</rscale>
<asrwt>0</asrwt>
<pdfrwt beam="1">  1       11 0.10000000E+01 0.19826368E+03</pdfrwt>
<pdfrwt beam="2">  1        2 0.47955253E-01 0.20109205E+03</pdfrwt>
<totfact> 0.13016980E+02</totfact>
</mgrwt>
</event>
<event>
 5    1  0.1851087E-003  0.1020415E+03  0.7818608E-02  0.1276061E+00
         11   -1    0    0    0    0  0.00000000000E+00  0.00000000000E+00  0.10002065089E+04  0.10002065089E+04  0.51100000000E-03 0. -1.
          2   -1    0    0  501    0 -0.00000000000E+00 -0.00000000000E+00 -0.10113515423E+02  0.10113515744E+02  0.25500000000E-02 0. -1.
         11    1    1    2    0    0 -0.88669832580E+02  0.43915742663E+02  0.46716742636E+03  0.47753150254E+03  0.51100000000E-03 0. -1.
         22    1    1    2    0    0  0.17586107506E+02 -0.43293079582E+01  0.56874304216E+02  0.59688362054E+02  0.00000000000E+00 0.  1.
          2    1    1    2  501    0  0.71083725075E+02 -0.39586434704E+02  0.46605126286E+03  0.47310016001E+03  0.25500000000E-02 0. -1.
<mgrwt>
<rscale>  0 0.10204146E+03</rscale>
<asrwt>0</asrwt>
<pdfrwt beam="1">  1       11 0.10000000E+01 0.98949186E+02</pdfrwt>
<pdfrwt beam="2">  1        2 0.15562467E-02 0.10204146E+03</pdfrwt>
<totfact> 0.84866052E+03</totfact>
</mgrwt>
</event>
<event>
 5    1  0.1851087E-003  0.1163610E+03  0.7818608E-02  0.1426460E+00
         11   -1    0    0    0    0  0.00000000000E+00  0.00000000000E+00  0.10003347263E+04  0.10003347263E+04  0.51100000000E-03 0. -1.
         -2   -1    0    0    0  501 -0.00000000000E+00 -0.00000000000E+00 -0.20886640898E+02  0.20886641054E+02  0.25500000000E-02 0.  1.
         11    1    1    2    0    0 -0.31295122448E+02  0.12307847555E+03  0.63816256694E+03  0.65067592369E+03  0.51100000000E-03 0. -1.
         22    1    1    2    0    0  0.90232811243E+00 -0.24744734601E+02  0.16283620874E+02  0.29635660871E+02  0.00000000000E+00 0. -1.
         -2    1    1    2    0  501  0.30392794336E+02 -0.98333740951E+02  0.32500189757E+03  0.34090978277E+03  0.25500000000E-02 0.  1.
<mgrwt>
<rscale>  0 0.53677147E+02</rscale>
<asrwt>0</asrwt>
<pdfrwt beam="1">  1       11 0.10000000E+01 0.11636102E+03</pdfrwt>
<pdfrwt beam="2">  1       -2 0.32144049E-02 0.53677147E+02</pdfrwt>
<totfact> 0.25552763E+03</totfact>
</mgrwt>
</event>
<event>
 5    1  0.1851087E-003  0.1096096E+03  0.7818608E-02  0.1302857E+00
         11   -1    0    0    0    0  0.00000000000E+00  0.00000000000E+00  0.10002246997E+04  0.10002246997E+04  0.51100000000E-03 0. -1.
          2   -1    0    0  501    0 -0.00000000000E+00 -0.00000000000E+00 -0.29177505563E+02  0.29177505674E+02  0.25500000000E-02 0. -1.
         11    1    1    2    0    0 -0.10906662212E+03  0.39546239054E+02  0.50208179682E+03  0.51531113299E+03  0.51100000000E-03 0. -1.
         22    1    1    2    0    0  0.51650648927E+02 -0.10885014819E+03  0.25913255580E+03  0.28577233206E+03  0.00000000000E+00 0. -1.
          2    1    1    2  501    0  0.57415973195E+02  0.69303909134E+02  0.20983284154E+03  0.22831874035E+03  0.25500000000E-02 0. -1.
<mgrwt>
<rscale>  0 0.89997921E+02</rscale>
<asrwt>0</asrwt>
<pdfrwt beam="1">  1       11 0.10000000E+01 0.10960963E+03</pdfrwt>
<pdfrwt beam="2">  1        2 0.44898555E-02 0.89997921E+02</pdfrwt>
<totfact> 0.20328102E+03</totfact>
</mgrwt>
</event>
<event>
 5    1  0.1851087E-003  0.1603095E+03  0.7818608E-02  0.1188348E+00
         11   -1    0    0    0    0  0.00000000000E+00  0.00000000000E+00  0.99971746945E+03  0.99971746945E+03  0.51100000000E-03 0.  1.
          2   -1    0    0  501    0 -0.00000000000E+00 -0.00000000000E+00 -0.76088173297E+02  0.76088173340E+02  0.25500000000E-02 0.  1.
         11    1    1    2    0    0 -0.41952854579E+02  0.14571206491E+03  0.90127942187E+03  0.91394564617E+03  0.51100000000E-03 0.  1.
         22    1    1    2    0    0  0.23404582702E+02 -0.21190924041E+02  0.16983544396E+02  0.35850669915E+02  0.00000000000E+00 0.  1.
          2    1    1    2  501    0  0.18548271878E+02 -0.12452114087E+03  0.53663298831E+01  0.12600932670E+03  0.25500000000E-02 0.  1.
<mgrwt>
<rscale>  0 0.16030952E+03</rscale>
<asrwt>0</asrwt>
<pdfrwt beam="1">  1       11 0.10000000E+01 0.15163129E+03</pdfrwt>
<pdfrwt beam="2">  1        2 0.11702565E-01 0.16030952E+03</pdfrwt>
<totfact> 0.63353891E+02</totfact>
</mgrwt>
</event>
<event>
 5    1  0.1851087E-003  0.1037529E+03  0.7818608E-02  0.1272596E+00
         11   -1    0    0    0    0  0.00000000000E+00  0.00000000000E+00  0.10002621341E+04  0.10002621341E+04  0.51100000000E-03 0. -1.
          2   -1    0    0  501    0 -0.00000000000E+00 -0.00000000000E+00 -0.10306495853E+02  0.10306496168E+02  0.25500000000E-02 0. -1.
         11    1    1    2    0    0  0.50953627671E+02 -0.83903314638E+02  0.42770060714E+03  0.43882097457E+03  0.51100000000E-03 0. -1.
         22    1    1    2    0    0 -0.44505451086E+02  0.41498349262E+02  0.32598727223E+03  0.33161807825E+03  0.00000000000E+00 0. -1.
          2    1    1    2  501    0 -0.64481765859E+01  0.42404965376E+02  0.23626775886E+03  0.24012957743E+03  0.25500000000E-02 0. -1.
<mgrwt>
<rscale>  0 0.10375289E+03</rscale>
<asrwt>0</asrwt>
<pdfrwt beam="1">  1       11 0.10000000E+01 0.98163374E+02</pdfrwt>
<pdfrwt beam="2">  1        2 0.15860304E-02 0.10375289E+03</pdfrwt>
<totfact> 0.82889115E+03</totfact>
</mgrwt>
</event>
<event>
 5    1  0.1851087E-003  0.1312393E+03  0.7818608E-02  0.1225628E+00
         11   -1    0    0    0    0  0.00000000000E+00  0.00000000000E+00  0.10003093089E+04  0.10003093089E+04  0.51100000000E-03 0.  1.
         -2   -1    0    0    0  501 -0.00000000000E+00 -0.00000000000E+00 -0.23885822795E+02  0.23885822931E+02  0.25500000000E-02 0.  1.
         11    1    1    2    0    0 -0.14691838658E+02  0.12680898351E+03  0.76332390615E+03  0.77392490212E+03  0.51100000000E-03 0.  1.
         22    1    1    2    0    0 -0.31105030619E+01 -0.48946207615E+02  0.10474607980E+03  0.11565962002E+03  0.00000000000E+00 0.  1.
         -2    1    1    2    0  501  0.17802341720E+02 -0.77862775893E+02  0.10835350018E+03  0.13461060971E+03  0.25500000000E-02 0.  1.
<mgrwt>
<rscale>  0 0.13123931E+03</rscale>
<asrwt>0</asrwt>
<pdfrwt beam="1">  1       11 0.10000000E+01 0.12765723E+03</pdfrwt>
<pdfrwt beam="2">  1       -2 0.36758785E-02 0.13123931E+03</pdfrwt>
<totfact> 0.23291115E+03</totfact>
</mgrwt>
</event>
<event>
 5    1  0.1851087E-003  0.1551955E+03  0.7818608E-02  0.1658773E+00
         11   -1    0    0    0    0  0.00000000000E+00  0.00000000000E+00  0.10000825716E+04  0.10000825716E+04  0.51100000000E-03 0.  1.
          2   -1    0    0  501    0 -0.00000000000E+00 -0.00000000000E+00 -0.67176840444E+02  0.67176840492E+02  0.25500000000E-02 0.  1.
         11    1    1    2    0    0  0.93064151996E+02 -0.12756451361E+03  0.80710272873E+03  0.82240407115E+03  0.51100000000E-03 0.  1.
         22    1    1    2    0    0 -0.87014369500E+02  0.10314691789E+03  0.20386110920E+02  0.13647849900E+03  0.00000000000E+00 0.  1.
          2    1    1    2  501    0 -0.60497824968E+01  0.24417595715E+02  0.10541689154E+03  0.10837684198E+03  0.25500000000E-02 0.  1.
<mgrwt>
<rscale>  0 0.25155891E+02</rscale>
<asrwt>0</asrwt>
<pdfrwt beam="1">  1       11 0.10000000E+01 0.15519552E+03</pdfrwt>
<pdfrwt beam="2">  1        2 0.10335752E-01 0.25155891E+02</pdfrwt>
<totfact> 0.64767910E+02</totfact>
</mgrwt>
</event>
<event>
 5    1  0.1851087E-003  0.6648325E+02  0.7818608E-02  0.1624418E+00
         11   -1    0    0    0    0  0.00000000000E+00  0.00000000000E+00  0.99979056096E+03  0.99979056096E+03  0.51100000000E-03 0.  1.
          2   -1    0    0  501    0 -0.00000000000E+00 -0.00000000000E+00 -0.57744864078E+01  0.57744869708E+01  0.25500000000E-02 0.  1.
         11    1    1    2    0    0  0.64498874735E+02 -0.26793211481E+02  0.37051187982E+03  0.37703717869E+03  0.51100000000E-03 0.  1.
         22    1    1    2    0    0 -0.91502031590E+01 -0.70975765261E+01  0.48062889626E+02  0.49438276361E+02  0.00000000000E+00 0.  1.
          2    1    1    2  501    0 -0.55348671576E+02  0.33890788007E+02  0.57544130510E+03  0.57908959288E+03  0.25500000000E-02 0.  1.
<mgrwt>
<rscale>  0 0.27746913E+02</rscale>
<asrwt>0</asrwt>
<pdfrwt beam="1">  1       11 0.10000000E+01 0.66483250E+02</pdfrwt>
<pdfrwt beam="2">  1        2 0.88819648E-03 0.27746913E+02</pdfrwt>
<totfact> 0.14337905E+04</totfact>
</mgrwt>
</event>
<event>
 5    1  0.1851087E-003  0.7633392E+02  0.7818608E-02  0.1382740E+00
         11   -1    0    0    0    0  0.00000000000E+00  0.00000000000E+00  0.10001655876E+04  0.10001655876E+04  0.51100000000E-03 0. -1.
          2   -1    0    0  501    0 -0.00000000000E+00 -0.00000000000E+00 -0.13833639494E+02  0.13833639729E+02  0.25500000000E-02 0. -1.
         11    1    1    2    0    0  0.71723603616E+02  0.58777745751E+02  0.37454747552E+03  0.38585607437E+03  0.51100000000E-03 0. -1.
         22    1    1    2    0    0 -0.71304452463E+02  0.49699110304E+01  0.22324135744E+03  0.23440505248E+03  0.00000000000E+00 0. -1.
          2    1    1    2  501    0 -0.41915115288E+00 -0.63747656782E+02  0.38854311513E+03  0.39373810046E+03  0.25500000000E-02 0. -1.
<mgrwt>
<rscale>  0 0.63749035E+02</rscale>
<asrwt>0</asrwt>
<pdfrwt beam="1">  1       11 0.10000000E+01 0.76333918E+02</pdfrwt>
<pdfrwt beam="2">  1        2 0.21286046E-02 0.63749035E+02</pdfrwt>
<totfact> 0.52180139E+03</totfact>
</mgrwt>
</event>
<event>
 5    1  0.1851087E-003  0.1654324E+03  0.7818608E-02  0.1182697E+00
         11   -1    0    0    0    0  0.00000000000E+00  0.00000000000E+00  0.10001006001E+04  0.10001006001E+04  0.51100000000E-03 0.  1.
          2   -1    0    0  501    0 -0.00000000000E+00 -0.00000000000E+00 -0.23837835374E+03  0.23837835375E+03  0.25500000000E-02 0.  1.
         11    1    1    2    0    0 -0.49924552917E+02 -0.15510943361E+03  0.96371136892E+03  0.97738989148E+03  0.51100000000E-03 0.  1.
         22    1    1    2    0    0  0.14943407122E+02  0.38075116328E+02 -0.71324928459E+02  0.82220832636E+02  0.00000000000E+00 0.  1.
          2    1    1    2  501    0  0.34981145795E+02  0.11703431728E+03 -0.13066419410E+03  0.17886822974E+03  0.25500000000E-02 0.  1.
<mgrwt>
<rscale>  0 0.16543244E+03</rscale>
<asrwt>0</asrwt>
<pdfrwt beam="1">  1       11 0.10000000E+01 0.16294600E+03</pdfrwt>
<pdfrwt beam="2">  1        2 0.36677281E-01 0.16543244E+03</pdfrwt>
<totfact> 0.17329625E+02</totfact>
</mgrwt>
</event>
<event>
 5    1  0.1851087E-003  0.1465769E+03  0.7818608E-02  0.1204743E+00
         11   -1    0    0    0    0  0.00000000000E+00  0.00000000000E+00  0.10006353491E+04  0.10006353491E+04  0.51100000000E-03 0.  1.
          2   -1    0    0  501    0 -0.00000000000E+00 -0.00000000000E+00 -0.21034668173E+02  0.21034668327E+02  0.25500000000E-02 0.  1.
         11    1    1    2    0    0  0.11171220908E+03 -0.84413185428E+02  0.39907437359E+03  0.42292500421E+03  0.51100000000E-03 0.  1.
         22    1    1    2    0    0 -0.38750330843E+02  0.86292394024E+01  0.12161933933E+03  0.12793481001E+03  0.00000000000E+00 0. -1.
          2    1    1    2  501    0 -0.72961878234E+02  0.75783946026E+02  0.45890696800E+03  0.47081020320E+03  0.25500000000E-02 0.  1.
<mgrwt>
<rscale>  0 0.14657693E+03</rscale>
<asrwt>0</asrwt>
<pdfrwt beam="1">  1       11 0.10000000E+01 0.14001865E+03</pdfrwt>
<pdfrwt beam="2">  1        2 0.32381588E-02 0.14657693E+03</pdfrwt>
<totfact> 0.32809465E+03</totfact>
</mgrwt>
</event>
<event>
 5    1  0.1851087E-003  0.1588385E+03  0.7818608E-02  0.1277545E+00
         11   -1    0    0    0    0  0.00000000000E+00  0.00000000000E+00  0.99995911602E+03  0.99995911602E+03  0.51100000000E-03 0.  1.
          2   -1    0    0  501    0 -0.00000000000E+00 -0.00000000000E+00 -0.21810664737E+03  0.21810664739E+03  0.25500000000E-02 0.  1.
         11    1    1    2    0    0  0.74698726364E+02 -0.14585710932E+03  0.94368569514E+03  0.95780837711E+03  0.51100000000E-03 0.  1.
         22    1    1    2    0    0  0.11018450406E+00  0.64629607859E+02 -0.13024808728E+03  0.14540138443E+03  0.00000000000E+00 0.  1.
          2    1    1    2  501    0 -0.74808910868E+02  0.81227501465E+02 -0.31585139209E+02  0.11485600187E+03  0.25500000000E-02 0.  1.
<mgrwt>
<rscale>  0 0.10131972E+03</rscale>
<asrwt>0</asrwt>
<pdfrwt beam="1">  1       11 0.10000000E+01 0.15883852E+03</pdfrwt>
<pdfrwt beam="2">  1        2 0.33553496E-01 0.10131972E+03</pdfrwt>
<totfact> 0.18925109E+02</totfact>
</mgrwt>
</event>
<event>
 5    1  0.1851087E-003  0.1973743E+03  0.7818608E-02  0.1151973E+00
         11   -1    0    0    0    0  0.00000000000E+00  0.00000000000E+00  0.10001395271E+04  0.10001395271E+04  0.51100000000E-03 0. -1.
          2   -1    0    0  501    0 -0.00000000000E+00 -0.00000000000E+00 -0.58685582895E+02  0.58685582951E+02  0.25500000000E-02 0. -1.
         11    1    1    2    0    0 -0.49269305605E+02  0.18541934937E+03  0.78170264370E+03  0.80490174728E+03  0.51100000000E-03 0. -1.
         22    1    1    2    0    0  0.45489921070E+01 -0.73665185029E+02  0.39214046909E+02  0.83576278270E+02  0.00000000000E+00 0. -1.
          2    1    1    2  501    0  0.44720313498E+02 -0.11175416434E+03  0.12053725356E+03  0.17034708447E+03  0.25500000000E-02 0. -1.
<mgrwt>
<rscale>  0 0.19737425E+03</rscale>
<asrwt>0</asrwt>
<pdfrwt beam="1">  1       11 0.10000000E+01 0.19185359E+03</pdfrwt>
<pdfrwt beam="2">  1        2 0.90298107E-02 0.19737425E+03</pdfrwt>
<totfact> 0.88147499E+02</totfact>
</mgrwt>
</event>
<event>
 5    1  0.1851087E-003  0.2066746E+03  0.7818608E-02  0.1144227E+00
         11   -1    0    0    0    0  0.00000000000E+00  0.00000000000E+00  0.10002674373E+04  0.10002674373E+04  0.51100000000E-03 0. -1.
         -2   -1    0    0    0  501 -0.00000000000E+00 -0.00000000000E+00 -0.85606710859E+02  0.85606710897E+02  0.25500000000E-02 0.  1.
         11    1    1    2    0    0  0.15491623358E+03 -0.12707039405E+03  0.84399527626E+03  0.86745256402E+03  0.51100000000E-03 0. -1.
         22    1    1    2    0    0 -0.84420456098E+02  0.50409461330E+02  0.56259741308E+02  0.11328321010E+03  0.00000000000E+00 0.  1.
         -2    1    1    2    0  501 -0.70495777484E+02  0.76660932718E+02  0.14405708871E+02  0.10513837407E+03  0.25500000000E-02 0.  1.
<mgrwt>
<rscale>  0 0.20667458E+03</rscale>
<asrwt>0</asrwt>
<pdfrwt beam="1">  1       11 0.10000000E+01 0.20036448E+03</pdfrwt>
<pdfrwt beam="2">  1       -2 0.13173785E-01 0.20667458E+03</pdfrwt>
<totfact> 0.33583358E+02</totfact>
</mgrwt>
</event>
<event>
 5    1  0.1851087E-003  0.1216762E+03  0.7818608E-02  0.1240357E+00
         11   -1    0    0    0    0  0.00000000000E+00  0.00000000000E+00  0.99992043764E+03  0.99992043764E+03  0.51100000000E-03 0. -1.
          2   -1    0    0  501    0 -0.00000000000E+00 -0.00000000000E+00 -0.56241229853E+02  0.56241229911E+02  0.25500000000E-02 0. -1.
         11    1    1    2    0    0  0.78134904379E+02 -0.76156833013E+02  0.55919085893E+03  0.56973620493E+03  0.51100000000E-03 0. -1.
         22    1    1    2    0    0  0.73320445403E+02  0.97494936673E+02  0.80582578535E+02  0.14620089724E+03  0.00000000000E+00 0. -1.
          2    1    1    2  501    0 -0.15145534978E+03 -0.21338103660E+02  0.30390577032E+03  0.34022456538E+03  0.25500000000E-02 0. -1.
<mgrwt>
<rscale>  0 0.12167624E+03</rscale>
<asrwt>0</asrwt>
<pdfrwt beam="1">  1       11 0.10000000E+01 0.10910970E+03</pdfrwt>
<pdfrwt beam="2">  1        2 0.86518082E-02 0.12167624E+03</pdfrwt>
<totfact> 0.90357484E+02</totfact>
</mgrwt>
</event>
<event>
 5    1  0.1851087E-003  0.4267620E+02  0.7818608E-02  0.1489393E+00
         11   -1    0    0    0    0  0.00000000000E+00  0.00000000000E+00  0.10003650305E+04  0.10003650305E+04  0.51100000000E-03 0.  1.
          2   -1    0    0  501    0 -0.00000000000E+00 -0.00000000000E+00 -0.36666170463E+02  0.36666170552E+02  0.25500000000E-02 0.  1.
         11    1    1    2    0    0 -0.19110077257E+02  0.38437042297E+02 -0.21393542939E+02  0.47961285982E+02  0.51100000000E-03 0.  1.
         22    1    1    2    0    0  0.48433958557E-02 -0.19834030352E+02  0.52897149782E+02  0.56493338001E+02  0.00000000000E+00 0.  1.
          2    1    1    2  501    0  0.19105233861E+02 -0.18603011945E+02  0.93219525319E+03  0.93257657707E+03  0.25500000000E-02 0.  1.
<mgrwt>
<rscale>  0 0.42676205E+02</rscale>
<asrwt>0</asrwt>
<pdfrwt beam="1">  1       11 0.10000000E+01 0.19834031E+02</pdfrwt>
<pdfrwt beam="2">  1        2 0.56430083E-02 0.42676205E+02</pdfrwt>
<totfact> 0.14100754E+03</totfact>
</mgrwt>
</event>
<event>
 5    1  0.1851087E-003  0.4804509E+02  0.7818608E-02  0.1456180E+00
         11   -1    0    0    0    0  0.00000000000E+00  0.00000000000E+00  0.10000881366E+04  0.10000881366E+04  0.51100000000E-03 0. -1.
         -2   -1    0    0    0  501 -0.00000000000E+00 -0.00000000000E+00 -0.58079685996E+02  0.58079686052E+02  0.25500000000E-02 0. -1.
         11    1    1    2    0    0 -0.12064066916E+02 -0.45237759591E+02  0.28215664354E+03  0.28601462917E+03  0.51100000000E-03 0. -1.
         22    1    1    2    0    0 -0.42621195890E+02  0.22498048247E+02 -0.44332006932E+02  0.65483244824E+02  0.00000000000E+00 0. -1.
         -2    1    1    2    0  501  0.54685262806E+02  0.22739711344E+02  0.70418381395E+03  0.70666994861E+03  0.25500000000E-02 0. -1.
<mgrwt>
<rscale>  0 0.48045090E+02</rscale>
<asrwt>0</asrwt>
<pdfrwt beam="1">  1       11 0.10000000E+01 0.46818763E+02</pdfrwt>
<pdfrwt beam="2">  1       -2 0.89361236E-02 0.48045090E+02</pdfrwt>
<totfact> 0.56246724E+02</totfact>
</mgrwt>
</event>
<event>
 5    1  0.1851087E-003  0.2064611E+03  0.7818608E-02  0.1450725E+00
         11   -1    0    0    0    0  0.00000000000E+00  0.00000000000E+00  0.10002979871E+04  0.10002979871E+04  0.51100000000E-03 0. -1.
          2   -1    0    0  501    0 -0.00000000000E+00 -0.00000000000E+00 -0.46699207399E+02  0.46699207468E+02  0.25500000000E-02 0. -1.
         11    1    1    2    0    0  0.20356235708E+03 -0.36747221689E+02  0.56289635847E+03  0.59970017667E+03  0.51100000000E-03 0. -1.
         22    1    1    2    0    0  0.98436754906E+00  0.11594995817E+02  0.18772396276E+02  0.22086551777E+02  0.00000000000E+00 0. -1.
          2    1    1    2  501    0 -0.20454672463E+03  0.25152225872E+02  0.37193002491E+03  0.42521046607E+03  0.25500000000E-02 0. -1.
<mgrwt>
<rscale>  0 0.49015575E+02</rscale>
<asrwt>0</asrwt>
<pdfrwt beam="1">  1       11 0.10000000E+01 0.20646107E+03</pdfrwt>
<pdfrwt beam="2">  1        2 0.71866341E-02 0.49015575E+02</pdfrwt>
<totfact> 0.10601045E+03</totfact>
</mgrwt>
</event>
<event>
 5    1  0.1851087E-003  0.1538475E+03  0.7818608E-02  0.1195823E+00
         11   -1    0    0    0    0  0.00000000000E+00  0.00000000000E+00  0.99999303952E+03  0.99999303952E+03  0.51100000000E-03 0. -1.
         -2   -1    0    0    0  501 -0.00000000000E+00 -0.00000000000E+00 -0.48995563606E+02  0.48995563672E+02  0.25500000000E-02 0.  1.
         11    1    1    2    0    0 -0.12271545204E+03  0.77294585844E+02  0.85594771533E+03  0.86814746820E+03  0.51100000000E-03 0. -1.
         22    1    1    2    0    0  0.20690126268E+02 -0.96544875682E+01  0.41212945602E+02  0.47114725303E+02  0.00000000000E+00 0. -1.
         -2    1    1    2    0  501  0.10202532577E+03 -0.67640098276E+02  0.53836814980E+02  0.13372640968E+03  0.25500000000E-02 0.  1.
<mgrwt>
<rscale>  0 0.15384752E+03</rscale>
<asrwt>0</asrwt>
<pdfrwt beam="1">  1       11 0.10000000E+01 0.14502943E+03</pdfrwt>
<pdfrwt beam="2">  1       -2 0.75377263E-02 0.15384752E+03</pdfrwt>
<totfact> 0.79898326E+02</totfact>
</mgrwt>
</event>
<event>
 5    1  0.1851087E-003  0.2987449E+03  0.7818608E-02  0.1085870E+00
         11   -1    0    0    0    0  0.00000000000E+00  0.00000000000E+00  0.10003376360E+04  0.10003376360E+04  0.51100000000E-03 0.  1.
          2   -1    0    0  501    0 -0.00000000000E+00 -0.00000000000E+00 -0.46197410824E+03  0.46197410825E+03  0.25500000000E-02 0.  1.
         11    1    1    2    0    0  0.28441190803E+03 -0.36639575450E+02  0.92801806660E+03  0.97131360737E+03  0.51100000000E-03 0.  1.
         22    1    1    2    0    0 -0.16366833046E+02  0.24878509458E+02 -0.49457196998E+02  0.57730648634E+02  0.00000000000E+00 0.  1.
          2    1    1    2  501    0 -0.26804507498E+03  0.11761065993E+02 -0.34019734189E+03  0.43326748820E+03  0.25500000000E-02 0.  1.
<mgrwt>
<rscale>  0 0.29874489E+03</rscale>
<asrwt>0</asrwt>
<pdfrwt beam="1">  1       11 0.10000000E+01 0.28676226E+03</pdfrwt>
<pdfrwt beam="2">  1        2 0.71096934E-01 0.29874489E+03</pdfrwt>
<totfact> 0.84566744E+01</totfact>
</mgrwt>
</event>
<event>
 5    1  0.1851087E-003  0.1179939E+03  0.7818608E-02  0.1246444E+00
         11   -1    0    0    0    0  0.00000000000E+00  0.00000000000E+00  0.10000836786E+04  0.10000836786E+04  0.51100000000E-03 0.  1.
          2   -1    0    0  501    0 -0.00000000000E+00 -0.00000000000E+00 -0.10162874220E+03  0.10162874223E+03  0.25500000000E-02 0.  1.
         11    1    1    2    0    0  0.59134002146E+02 -0.95882345054E+02 -0.65669477656E+02  0.13039453439E+03  0.51100000000E-03 0.  1.
         22    1    1    2    0    0  0.13207049669E+01  0.17055330541E+02  0.94284708917E+02  0.95823978717E+02  0.00000000000E+00 0.  1.
          2    1    1    2  501    0 -0.60454707113E+02  0.78827014513E+02  0.86983970518E+03  0.87549390777E+03  0.25500000000E-02 0.  1.
<mgrwt>
<rscale>  0 0.11799386E+03</rscale>
<asrwt>0</asrwt>
<pdfrwt beam="1">  1       11 0.10000000E+01 0.11265109E+03</pdfrwt>
<pdfrwt beam="2">  1        2 0.15636499E-01 0.11799386E+03</pdfrwt>
<totfact> 0.44303024E+02</totfact>
</mgrwt>
</event>
<event>
 5    1  0.1851087E-003  0.2489573E+03  0.7818608E-02  0.1113966E+00
         11   -1    0    0    0    0  0.00000000000E+00  0.00000000000E+00  0.99975975623E+03  0.99975975623E+03  0.51100000000E-03 0.  1.
          2   -1    0    0  501    0 -0.00000000000E+00 -0.00000000000E+00 -0.12711503575E+03  0.12711503577E+03  0.25500000000E-02 0.  1.
         11    1    1    2    0    0  0.22844746284E+03 -0.44673667910E+02  0.84489695475E+03  0.87637597184E+03  0.51100000000E-03 0.  1.
         22    1    1    2    0    0 -0.41186598961E+02  0.11995370371E+01 -0.28614953335E+02  0.50165629443E+02  0.00000000000E+00 0. -1.
          2    1    1    2  501    0 -0.18726086388E+03  0.43474130873E+02  0.56362719074E+02  0.20033319072E+03  0.25500000000E-02 0.  1.
<mgrwt>
<rscale>  0 0.24895727E+03</rscale>
<asrwt>0</asrwt>
<pdfrwt beam="1">  1       11 0.10000000E+01 0.23277453E+03</pdfrwt>
<pdfrwt beam="2">  1        2 0.19551461E-01 0.24895727E+03</pdfrwt>
<totfact> 0.35114984E+02</totfact>
</mgrwt>
</event>
<event>
 5    1  0.1851087E-003  0.2130744E+03  0.7818608E-02  0.1139154E+00
         11   -1    0    0    0    0  0.00000000000E+00  0.00000000000E+00  0.10001606504E+04  0.10001606504E+04  0.51100000000E-03 0. -1.
          2   -1    0    0  501    0 -0.00000000000E+00 -0.00000000000E+00 -0.40198655876E+03  0.40198655876E+03  0.25500000000E-02 0. -1.
         11    1    1    2    0    0 -0.19796020048E+03  0.24248143987E+02  0.96094839668E+03  0.98142653039E+03  0.51100000000E-03 0. -1.
         22    1    1    2    0    0  0.62940640770E+02 -0.34724964474E+02 -0.82369401732E+02  0.10932550370E+03  0.00000000000E+00 0. -1.
          2    1    1    2  501    0  0.13501955971E+03  0.10476820487E+02 -0.28040490329E+03  0.31139517509E+03  0.25500000000E-02 0. -1.
<mgrwt>
<rscale>  0 0.21307438E+03</rscale>
<asrwt>0</asrwt>
<pdfrwt beam="1">  1       11 0.10000000E+01 0.19943975E+03</pdfrwt>
<pdfrwt beam="2">  1        2 0.61854019E-01 0.21307438E+03</pdfrwt>
<totfact> 0.98915352E+01</totfact>
</mgrwt>
</event>
<event>
 5    1  0.1851087E-003  0.5934462E+02  0.7818608E-02  0.1400603E+00
         11   -1    0    0    0    0  0.00000000000E+00  0.00000000000E+00  0.10003539288E+04  0.10003539288E+04  0.51100000000E-03 0.  1.
          2   -1    0    0  501    0 -0.00000000000E+00 -0.00000000000E+00 -0.16878047771E+02  0.16878047964E+02  0.25500000000E-02 0.  1.
         11    1    1    2    0    0  0.49742326244E+02  0.32635423762E+02  0.42942714511E+02  0.73371974446E+02  0.51100000000E-03 0.  1.
         22    1    1    2    0    0 -0.97450578997E+01  0.10374948749E+02  0.75160093371E+02  0.76496047941E+02  0.00000000000E+00 0.  1.
          2    1    1    2  501    0 -0.39997268344E+02 -0.43010372512E+02  0.86537307319E+03  0.86736395442E+03  0.25500000000E-02 0.  1.
<mgrwt>
<rscale>  0 0.59344624E+02</rscale>
<asrwt>0</asrwt>
<pdfrwt beam="1">  1       11 0.10000000E+01 0.14233963E+02</pdfrwt>
<pdfrwt beam="2">  1        2 0.25975417E-02 0.59344624E+02</pdfrwt>
<totfact> 0.39702402E+03</totfact>
</mgrwt>
</event>
<event>
 5    1  0.1851087E-003  0.1541747E+03  0.7818608E-02  0.1195435E+00
         11   -1    0    0    0    0  0.00000000000E+00  0.00000000000E+00  0.10002162699E+04  0.10002162699E+04  0.51100000000E-03 0.  1.
         -2   -1    0    0    0  501 -0.00000000000E+00 -0.00000000000E+00 -0.49575138115E+02  0.49575138180E+02  0.25500000000E-02 0. -1.
         11    1    1    2    0    0 -0.51672266476E+02 -0.13940827026E+03  0.85615203613E+03  0.86896547567E+03  0.51100000000E-03 0.  1.
         22    1    1    2    0    0 -0.20317222126E+01  0.18792229731E+02  0.77717266390E+00  0.18917711034E+02  0.00000000000E+00 0.  1.
         -2    1    1    2    0  501  0.53703988689E+02  0.12061604053E+03  0.93711923012E+02  0.16190822139E+03  0.25500000000E-02 0. -1.
<mgrwt>
<rscale>  0 0.15417467E+03</rscale>
<asrwt>0</asrwt>
<pdfrwt beam="1">  1       11 0.10000000E+01 0.14867646E+03</pdfrwt>
<pdfrwt beam="2">  1       -2 0.76285936E-02 0.15417467E+03</pdfrwt>
<totfact> 0.78445879E+02</totfact>
</mgrwt>
</event>
<event>
 5    1  0.1851087E-003  0.1774637E+03  0.7818608E-02  0.1381974E+00
         11   -1    0    0    0    0  0.00000000000E+00  0.00000000000E+00  0.10001029143E+04  0.10001029143E+04  0.51100000000E-03 0. -1.
          2   -1    0    0  501    0 -0.00000000000E+00 -0.00000000000E+00 -0.55535002884E+02  0.55535002942E+02  0.25500000000E-02 0. -1.
         11    1    1    2    0    0  0.17104211718E+03  0.52643990569E+02  0.77858497134E+03  0.79888757231E+03  0.51100000000E-03 0. -1.
         22    1    1    2    0    0 -0.86376589075E+00 -0.23026895141E+02  0.16902991927E+02  0.28577878288E+02  0.00000000000E+00 0. -1.
          2    1    1    2  501    0 -0.17017835129E+03 -0.29617095428E+02  0.14907994815E+03  0.22817246664E+03  0.25500000000E-02 0. -1.
<mgrwt>
<rscale>  0 0.63947732E+02</rscale>
<asrwt>0</asrwt>
<pdfrwt beam="1">  1       11 0.10000000E+01 0.17746372E+03</pdfrwt>
<pdfrwt beam="2">  1        2 0.85447256E-02 0.63947732E+02</pdfrwt>
<totfact> 0.87725241E+02</totfact>
</mgrwt>
</event>
<event>
 5    1  0.1851087E-003  0.1203933E+03  0.7818608E-02  0.1448620E+00
         11   -1    0    0    0    0  0.00000000000E+00  0.00000000000E+00  0.99992067580E+03  0.99992067580E+03  0.51100000000E-03 0. -1.
          2   -1    0    0  501    0 -0.00000000000E+00 -0.00000000000E+00 -0.19097151104E+02  0.19097151274E+02  0.25500000000E-02 0. -1.
         11    1    1    2    0    0 -0.12301258263E+03  0.37283566162E+02  0.37001982236E+03  0.39171013355E+03  0.51100000000E-03 0. -1.
         22    1    1    2    0    0  0.81701105700E+01 -0.18548014084E+02  0.40901324620E+02  0.45647539790E+02  0.00000000000E+00 0. -1.
          2    1    1    2  501    0  0.11484247206E+03 -0.18735552078E+02  0.56990237772E+03  0.58166015373E+03  0.25500000000E-02 0. -1.
<mgrwt>
<rscale>  0 0.49397310E+02</rscale>
<asrwt>0</asrwt>
<pdfrwt beam="1">  1       11 0.10000000E+01 0.12039333E+03</pdfrwt>
<pdfrwt beam="2">  1        2 0.29377901E-02 0.49397310E+02</pdfrwt>
<totfact> 0.32982875E+03</totfact>
</mgrwt>
</event>
<event>
 5    1  0.1851087E-003  0.9202951E+02  0.7818608E-02  0.1298010E+00
         11   -1    0    0    0    0  0.00000000000E+00  0.00000000000E+00  0.10002272340E+04  0.10002272340E+04  0.51100000000E-03 0.  1.
          2   -1    0    0  501    0 -0.00000000000E+00 -0.00000000000E+00 -0.99688201348E+01  0.99688204610E+01  0.25500000000E-02 0.  1.
         11    1    1    2    0    0 -0.17805719246E+02  0.92681881853E+02  0.41462373506E+03  0.42522913416E+03  0.51100000000E-03 0.  1.
         22    1    1    2    0    0  0.13984727010E+02 -0.29925559053E+01  0.78760302143E+02  0.80048192822E+02  0.00000000000E+00 0.  1.
          2    1    1    2  501    0  0.38209922358E+01 -0.89689325948E+02  0.49687437664E+03  0.50491872746E+03  0.25500000000E-02 0.  1.
<mgrwt>
<rscale>  0 0.92029509E+02</rscale>
<asrwt>0</asrwt>
<pdfrwt beam="1">  1       11 0.10000000E+01 0.14301328E+02</pdfrwt>
<pdfrwt beam="2">  1        2 0.15340131E-02 0.92029509E+02</pdfrwt>
<totfact> 0.85322293E+03</totfact>
</mgrwt>
</event>
<event>
 5    1  0.1851087E-003  0.3699262E+03  0.7818608E-02  0.1116724E+00
         11   -1    0    0    0    0  0.00000000000E+00  0.00000000000E+00  0.10007598655E+04  0.10007598655E+04  0.51100000000E-03 0.  1.
          2   -1    0    0  501    0 -0.00000000000E+00 -0.00000000000E+00 -0.12063954543E+04  0.12063954543E+04  0.25500000000E-02 0.  1.
         11    1    1    2    0    0 -0.26757212602E+03  0.25366143463E+03  0.88509573694E+03  0.95881876785E+03  0.51100000000E-03 0.  1.
         22    1    1    2    0    0 -0.12637308146E+03 -0.10106911652E+03 -0.47336989798E+03  0.50026411259E+03  0.00000000000E+00 0.  1.
          2    1    1    2  501    0  0.39394520748E+03 -0.15259231810E+03 -0.61736142777E+03  0.74807243937E+03  0.25500000000E-02 0.  1.
<mgrwt>
<rscale>  0 0.24466463E+03</rscale>
<asrwt>0</asrwt>
<pdfrwt beam="1">  1       11 0.10000000E+01 0.36992620E+03</pdfrwt>
<pdfrwt beam="2">  1        2 0.18574033E+00 0.24466463E+03</pdfrwt>
<totfact> 0.24938027E+01</totfact>
</mgrwt>
</event>
<event>
 5    1  0.1851087E-003  0.2296035E+03  0.7818608E-02  0.1126919E+00
         11   -1    0    0    0    0  0.00000000000E+00  0.00000000000E+00  0.10005741852E+04  0.10005741852E+04  0.51100000000E-03 0. -1.
          2   -1    0    0  501    0 -0.00000000000E+00 -0.00000000000E+00 -0.99879063054E+03  0.99879063054E+03  0.25500000000E-02 0. -1.
         11    1    1    2    0    0 -0.15968094154E+03  0.14668409724E+03  0.97531388143E+03  0.99912531485E+03  0.51100000000E-03 0. -1.
         22    1    1    2    0    0  0.86580813188E+02 -0.31999879557E+02 -0.44678746123E+03  0.45622282387E+03  0.00000000000E+00 0. -1.
          2    1    1    2  501    0  0.73100128348E+02 -0.11468421769E+03 -0.52674286550E+03  0.54401667705E+03  0.25500000000E-02 0. -1.
<mgrwt>
<rscale>  0 0.22960349E+03</rscale>
<asrwt>0</asrwt>
<pdfrwt beam="1">  1       11 0.10000000E+01 0.21682764E+03</pdfrwt>
<pdfrwt beam="2">  1        2 0.15374832E+00 0.22960349E+03</pdfrwt>
<totfact> 0.33137168E+01</totfact>
</mgrwt>
</event>
<event>
 5    1  0.1851087E-003  0.5245035E+02  0.7818608E-02  0.1488994E+00
         11   -1    0    0    0    0  0.00000000000E+00  0.00000000000E+00  0.99995202558E+03  0.99995202558E+03  0.51100000000E-03 0. -1.
          2   -1    0    0  501    0 -0.00000000000E+00 -0.00000000000E+00 -0.72404970247E+01  0.72404974737E+01  0.25500000000E-02 0. -1.
         11    1    1    2    0    0  0.74494653689E+01  0.75774174370E+02  0.32138458720E+03  0.33028059725E+03  0.51100000000E-03 0. -1.
         22    1    1    2    0    0 -0.17980456796E+02 -0.29818590359E+02  0.18065338824E+03  0.18397850918E+03  0.00000000000E+00 0. -1.
          2    1    1    2  501    0  0.10530991427E+02 -0.45955584011E+02  0.49067355312E+03  0.49293341662E+03  0.25500000000E-02 0. -1.
<mgrwt>
<rscale>  0 0.42735579E+02</rscale>
<asrwt>0</asrwt>
<pdfrwt beam="1">  1       11 0.10000000E+01 0.52450346E+02</pdfrwt>
<pdfrwt beam="2">  1        2 0.11138692E-02 0.42735579E+02</pdfrwt>
<totfact> 0.11595803E+04</totfact>
</mgrwt>
</event>
<event>
 5    1  0.1851087E-003  0.1106740E+03  0.7818608E-02  0.1259327E+00
         11   -1    0    0    0    0  0.00000000000E+00  0.00000000000E+00  0.10003844770E+04  0.10003844770E+04  0.51100000000E-03 0.  1.
          2   -1    0    0  501    0 -0.00000000000E+00 -0.00000000000E+00 -0.11993377432E+02  0.11993377703E+02  0.25500000000E-02 0.  1.
         11    1    1    2    0    0 -0.10785387968E+03  0.67538525119E+01  0.51615596450E+03  0.52734718504E+03  0.51100000000E-03 0.  1.
         22    1    1    2    0    0  0.66131570384E+02 -0.18806778380E+01  0.23636144516E+03  0.24544582765E+03  0.00000000000E+00 0. -1.
          2    1    1    2  501    0  0.41722309297E+02 -0.48731746739E+01  0.23587368990E+03  0.23958484200E+03  0.25500000000E-02 0.  1.
<mgrwt>
<rscale>  0 0.11067397E+03</rscale>
<asrwt>0</asrwt>
<pdfrwt beam="1">  1       11 0.10000000E+01 0.10806514E+03</pdfrwt>
<pdfrwt beam="2">  1        2 0.18458444E-02 0.11067397E+03</pdfrwt>
<totfact> 0.67998762E+03</totfact>
</mgrwt>
</event>
<event>
 5    1  0.1851087E-003  0.1319820E+03  0.7818608E-02  0.1224544E+00
         11   -1    0    0    0    0  0.00000000000E+00  0.00000000000E+00  0.10001418103E+04  0.10001418103E+04  0.51100000000E-03 0.  1.
          2   -1    0    0  501    0 -0.00000000000E+00 -0.00000000000E+00 -0.18076477196E+02  0.18076477375E+02  0.25500000000E-02 0. -1.
         11    1    1    2    0    0 -0.12139440328E+03 -0.71933498344E+01  0.64246505064E+03  0.65387283682E+03  0.51100000000E-03 0.  1.
         22    1    1    2    0    0  0.23836545828E+02  0.22376198443E+02  0.99661246882E+02  0.10488679280E+03  0.00000000000E+00 0.  1.
          2    1    1    2  501    0  0.97557857447E+02 -0.15182848609E+02  0.23993903560E+03  0.25945865808E+03  0.25500000000E-02 0. -1.
<mgrwt>
<rscale>  0 0.13198203E+03</rscale>
<asrwt>0</asrwt>
<pdfrwt beam="1">  1       11 0.10000000E+01 0.12160734E+03</pdfrwt>
<pdfrwt beam="2">  1        2 0.27813908E-02 0.13198203E+03</pdfrwt>
<totfact> 0.39831449E+03</totfact>
</mgrwt>
</event>
<event>
 5    1  0.1851087E-003  0.1802439E+03  0.7818608E-02  0.1167567E+00
         11   -1    0    0    0    0  0.00000000000E+00  0.00000000000E+00  0.99964057586E+03  0.99964057586E+03  0.51100000000E-03 0.  1.
          2   -1    0    0  501    0 -0.00000000000E+00 -0.00000000000E+00 -0.12899620622E+03  0.12899620625E+03  0.25500000000E-02 0.  1.
         11    1    1    2    0    0  0.34316387179E+02  0.15844696800E+03  0.92599965016E+03  0.94008425590E+03  0.51100000000E-03 0.  1.
         22    1    1    2    0    0 -0.39678854803E+02 -0.44721136562E+02  0.44442777767E+01  0.59951173289E+02  0.00000000000E+00 0.  1.
          2    1    1    2  501    0  0.53624676233E+01 -0.11372583143E+03 -0.59799558297E+02  0.12860135292E+03  0.25500000000E-02 0.  1.
<mgrwt>
<rscale>  0 0.18024386E+03</rscale>
<asrwt>0</asrwt>
<pdfrwt beam="1">  1       11 0.10000000E+01 0.16212050E+03</pdfrwt>
<pdfrwt beam="2">  1        2 0.19838437E-01 0.18024386E+03</pdfrwt>
<totfact> 0.34212087E+02</totfact>
</mgrwt>
</event>
<event>
 5    1  0.1851087E-003  0.3776286E+02  0.7818608E-02  0.1661547E+00
         11   -1    0    0    0    0  0.00000000000E+00  0.00000000000E+00  0.10002915627E+04  0.10002915627E+04  0.51100000000E-03 0.  1.
          2   -1    0    0  501    0 -0.00000000000E+00 -0.00000000000E+00 -0.34597181750E+01  0.34597191148E+01  0.25500000000E-02 0.  1.
         11    1    1    2    0    0 -0.41451519240E+02 -0.25009823485E+02  0.25931338565E+03  0.26379376735E+03  0.51100000000E-03 0.  1.
         22    1    1    2    0    0  0.72582508494E+01  0.14818411717E+02  0.93017635694E+02  0.94469826301E+02  0.00000000000E+00 0. -1.
          2    1    1    2  501    0  0.34193268390E+02  0.10191411768E+02  0.64450082316E+03  0.64548768814E+03  0.25500000000E-02 0.  1.
<mgrwt>
<rscale>  0 0.24962110E+02</rscale>
<asrwt>0</asrwt>
<pdfrwt beam="1">  1       11 0.10000000E+01 0.37762858E+02</pdfrwt>
<pdfrwt beam="2">  1        2 0.53241958E-03 0.24962110E+02</pdfrwt>
<totfact> 0.27425553E+04</totfact>
</mgrwt>
</event>
<event>
 5    1  0.1851087E-003  0.1496926E+03  0.7818608E-02  0.1200851E+00
         11   -1    0    0    0    0  0.00000000000E+00  0.00000000000E+00  0.99998620804E+03  0.99998620804E+03  0.51100000000E-03 0.  1.
          2   -1    0    0  501    0 -0.00000000000E+00 -0.00000000000E+00 -0.28399307731E+02  0.28399307845E+02  0.25500000000E-02 0.  1.
         11    1    1    2    0    0 -0.11064006220E+03  0.97236054611E+02  0.72585547133E+03  0.74064987609E+03  0.51100000000E-03 0.  1.
         22    1    1    2    0    0  0.23228830742E+02 -0.30527218846E+02  0.47556771364E+02  0.61099395829E+02  0.00000000000E+00 0.  1.
          2    1    1    2  501    0  0.87411231463E+02 -0.66708835765E+02  0.19817465761E+03  0.22663624397E+03  0.25500000000E-02 0.  1.
<mgrwt>
<rscale>  0 0.14969256E+03</rscale>
<asrwt>0</asrwt>
<pdfrwt beam="1">  1       11 0.10000000E+01 0.14729587E+03</pdfrwt>
<pdfrwt beam="2">  1        2 0.43690639E-02 0.14969256E+03</pdfrwt>
<totfact> 0.22057362E+03</totfact>
</mgrwt>
</event>
<event>
 5    1  0.1851087E-003  0.1995771E+03  0.7818608E-02  0.1150096E+00
         11   -1    0    0    0    0  0.00000000000E+00  0.00000000000E+00  0.10002838537E+04  0.10002838537E+04  0.51100000000E-03 0.  1.
          2   -1    0    0  501    0 -0.00000000000E+00 -0.00000000000E+00 -0.37977810051E+03  0.37977810052E+03  0.25500000000E-02 0.  1.
         11    1    1    2    0    0 -0.12462408655E+03  0.14451794916E+03  0.96404897366E+03  0.98275481387E+03  0.51100000000E-03 0.  1.
         22    1    1    2    0    0  0.11314725060E+02 -0.29561798935E+02 -0.10197501697E+03  0.10677465545E+03  0.00000000000E+00 0.  1.
          2    1    1    2  501    0  0.11330936149E+03 -0.11495615022E+03 -0.24156820346E+03  0.29053248494E+03  0.25500000000E-02 0.  1.
<mgrwt>
<rscale>  0 0.19957710E+03</rscale>
<asrwt>0</asrwt>
<pdfrwt beam="1">  1       11 0.10000000E+01 0.19083134E+03</pdfrwt>
<pdfrwt beam="2">  1        2 0.58443983E-01 0.19957710E+03</pdfrwt>
<totfact> 0.10522125E+02</totfact>
</mgrwt>
</event>
<event>
 5    1  0.1851087E-003  0.5850419E+02  0.7818608E-02  0.1435083E+00
         11   -1    0    0    0    0  0.00000000000E+00  0.00000000000E+00  0.10003507953E+04  0.10003507953E+04  0.51100000000E-03 0.  1.
          2   -1    0    0  501    0 -0.00000000000E+00 -0.00000000000E+00 -0.13295663238E+02  0.13295663483E+02  0.25500000000E-02 0.  1.
         11    1    1    2    0    0 -0.34880035472E+02  0.47169564465E+02  0.22186105120E+03  0.22948618853E+03  0.51100000000E-03 0.  1.
         22    1    1    2    0    0  0.43488052750E+02  0.15404434846E+02  0.57814820217E+02  0.73966619374E+02  0.00000000000E+00 0.  1.
          2    1    1    2  501    0 -0.86080172785E+01 -0.62573999311E+02  0.70737926064E+03  0.71019365087E+03  0.25500000000E-02 0.  1.
<mgrwt>
<rscale>  0 0.51953182E+02</rscale>
<asrwt>0</asrwt>
<pdfrwt beam="1">  1       11 0.10000000E+01 0.58504185E+02</pdfrwt>
<pdfrwt beam="2">  1        2 0.20462042E-02 0.51953182E+02</pdfrwt>
<totfact> 0.53399940E+03</totfact>
</mgrwt>
</event>
<event>
 5    1  0.1851087E-003  0.1225920E+03  0.7818608E-02  0.1238881E+00
         11   -1    0    0    0    0  0.00000000000E+00  0.00000000000E+00  0.10000016229E+04  0.10000016229E+04  0.51100000000E-03 0. -1.
          2   -1    0    0  501    0 -0.00000000000E+00 -0.00000000000E+00 -0.16630280443E+02  0.16630280639E+02  0.25500000000E-02 0. -1.
         11    1    1    2    0    0 -0.10407231135E+03  0.50362407636E+02  0.67421379379E+03  0.68405530319E+03  0.51100000000E-03 0. -1.
         22    1    1    2    0    0  0.34547898157E+02 -0.19056034395E+02  0.58366987943E+02  0.70451366172E+02  0.00000000000E+00 0.  1.
          2    1    1    2  501    0  0.69524413191E+02 -0.31306373242E+02  0.25079056072E+03  0.26212523417E+03  0.25500000000E-02 0. -1.
<mgrwt>
<rscale>  0 0.12259203E+03</rscale>
<asrwt>0</asrwt>
<pdfrwt beam="1">  1       11 0.10000000E+01 0.11561755E+03</pdfrwt>
<pdfrwt beam="2">  1        2 0.25585088E-02 0.12259203E+03</pdfrwt>
<totfact> 0.44222686E+03</totfact>
</mgrwt>
</event>
<event>
 5    1  0.1851087E-003  0.1091043E+03  0.7818608E-02  0.1262238E+00
         11   -1    0    0    0    0  0.00000000000E+00  0.00000000000E+00  0.10001374377E+04  0.10001374377E+04  0.51100000000E-03 0.  1.
          2   -1    0    0  501    0 -0.00000000000E+00 -0.00000000000E+00 -0.11669554543E+02  0.11669554821E+02  0.25500000000E-02 0.  1.
         11    1    1    2    0    0 -0.27567247505E+02 -0.10256295147E+03  0.44526236049E+03  0.45775286107E+03  0.51100000000E-03 0.  1.
         22    1    1    2    0    0  0.94768386462E+01  0.86398879350E+01  0.47248507833E+02  0.48957937321E+02  0.00000000000E+00 0.  1.
          2    1    1    2  501    0  0.18090408858E+02  0.93923063530E+02  0.49595701481E+03  0.50509619411E+03  0.25500000000E-02 0.  1.
<mgrwt>
<rscale>  0 0.10910427E+03</rscale>
<asrwt>0</asrwt>
<pdfrwt beam="1">  1       11 0.10000000E+01 0.10620322E+03</pdfrwt>
<pdfrwt beam="2">  1        2 0.17955628E-02 0.10910427E+03</pdfrwt>
<totfact> 0.70472974E+03</totfact>
</mgrwt>
</event>
<event>
 5    1  0.1851087E-003  0.1526736E+03  0.7818608E-02  0.1197226E+00
         11   -1    0    0    0    0  0.00000000000E+00  0.00000000000E+00  0.10001515639E+04  0.10001515639E+04  0.51100000000E-03 0. -1.
          2   -1    0    0  501    0 -0.00000000000E+00 -0.00000000000E+00 -0.60539603975E+02  0.60539604029E+02  0.25500000000E-02 0. -1.
         11    1    1    2    0    0  0.99488965042E+02 -0.11323354403E+03  0.88622579502E+03  0.89895275149E+03  0.51100000000E-03 0. -1.
         22    1    1    2    0    0 -0.20139005785E+02  0.10276560791E+02  0.97594543594E+01  0.24625884859E+02  0.00000000000E+00 0.  1.
          2    1    1    2  501    0 -0.79349959258E+02  0.10295698324E+03  0.43626710519E+02  0.13711253155E+03  0.25500000000E-02 0. -1.
<mgrwt>
<rscale>  0 0.15267362E+03</rscale>
<asrwt>0</asrwt>
<pdfrwt beam="1">  1       11 0.10000000E+01 0.15073118E+03</pdfrwt>
<pdfrwt beam="2">  1        2 0.93151966E-02 0.15267362E+03</pdfrwt>
<totfact> 0.83581733E+02</totfact>
</mgrwt>
</event>
<event>
 5    1  0.1851087E-003  0.2639960E+03  0.7818608E-02  0.1104766E+00
         11   -1    0    0    0    0  0.00000000000E+00  0.00000000000E+00  0.99978931450E+03  0.99978931450E+03  0.51100000000E-03 0. -1.
          2   -1    0    0  501    0 -0.00000000000E+00 -0.00000000000E+00 -0.94845471747E+02  0.94845471782E+02  0.25500000000E-02 0. -1.
         11    1    1    2    0    0 -0.31348161967E+02 -0.25433852147E+03  0.74055429707E+03  0.78363987754E+03  0.51100000000E-03 0. -1.
         22    1    1    2    0    0 -0.90210868912E+01  0.73603478577E+02  0.74604217780E+02  0.10518859909E+03  0.00000000000E+00 0. -1.
          2    1    1    2  501    0  0.40369248858E+02  0.18073504289E+03  0.89785327906E+02  0.20580630966E+03  0.25500000000E-02 0. -1.
<mgrwt>
<rscale>  0 0.26399604E+03</rscale>
<asrwt>0</asrwt>
<pdfrwt beam="1">  1       11 0.10000000E+01 0.25626313E+03</pdfrwt>
<pdfrwt beam="2">  1        2 0.14588536E-01 0.26399604E+03</pdfrwt>
<totfact> 0.49618196E+02</totfact>
</mgrwt>
</event>
<event>
 5    1  0.1851087E-003  0.9079832E+02  0.7818608E-02  0.1300930E+00
         11   -1    0    0    0    0  0.00000000000E+00  0.00000000000E+00  0.10002121474E+04  0.10002121474E+04  0.51100000000E-03 0. -1.
          2   -1    0    0  501    0 -0.00000000000E+00 -0.00000000000E+00 -0.89493468944E+01  0.89493472577E+01  0.25500000000E-02 0. -1.
         11    1    1    2    0    0  0.81125226366E+02  0.33856785460E+02  0.32262041174E+03  0.33438228773E+03  0.51100000000E-03 0. -1.
         22    1    1    2    0    0 -0.22665405978E+02 -0.93073625419E+00  0.12866780667E+03  0.13065217706E+03  0.00000000000E+00 0. -1.
          2    1    1    2  501    0 -0.58459820387E+02 -0.32926049205E+02  0.53997458213E+03  0.54412702990E+03  0.25500000000E-02 0. -1.
<mgrwt>
<rscale>  0 0.90798315E+02</rscale>
<asrwt>0</asrwt>
<pdfrwt beam="1">  1       11 0.10000000E+01 0.87906723E+02</pdfrwt>
<pdfrwt beam="2">  1        2 0.13771147E-02 0.90798315E+02</pdfrwt>
<totfact> 0.98620082E+03</totfact>
</mgrwt>
</event>
<event>
 5    1  0.1851087E-003  0.1483929E+03  0.7818608E-02  0.1202462E+00
         11   -1    0    0    0    0  0.00000000000E+00  0.00000000000E+00  0.10000665452E+04  0.10000665452E+04  0.51100000000E-03 0.  1.
          2   -1    0    0  501    0 -0.00000000000E+00 -0.00000000000E+00 -0.25550445808E+02  0.25550445935E+02  0.25500000000E-02 0.  1.
         11    1    1    2    0    0 -0.62164111313E+02 -0.12603122027E+03  0.69590010947E+03  0.70994732733E+03  0.51100000000E-03 0.  1.
         22    1    1    2    0    0  0.20812411717E+02  0.92202489492E+02  0.16604113002E+03  0.19106049410E+03  0.00000000000E+00 0.  1.
          2    1    1    2  501    0  0.41351699596E+02  0.33828730774E+02  0.11257485990E+03  0.12460916970E+03  0.25500000000E-02 0.  1.
<mgrwt>
<rscale>  0 0.14839295E+03</rscale>
<asrwt>0</asrwt>
<pdfrwt beam="1">  1       11 0.10000000E+01 0.14052845E+03</pdfrwt>
<pdfrwt beam="2">  1        2 0.39310993E-02 0.14839295E+03</pdfrwt>
<totfact> 0.25351508E+03</totfact>
</mgrwt>
</event>
<event>
 5    1  0.1851087E-003  0.1976760E+03  0.7818608E-02  0.1151715E+00
         11   -1    0    0    0    0  0.00000000000E+00  0.00000000000E+00  0.10001454804E+04  0.10001454804E+04  0.51100000000E-03 0. -1.
          2   -1    0    0  501    0 -0.00000000000E+00 -0.00000000000E+00 -0.42906264168E+02  0.42906264243E+02  0.25500000000E-02 0. -1.
         11    1    1    2    0    0  0.18166701620E+03  0.62586470737E+02  0.64922339664E+03  0.67706055108E+03  0.51100000000E-03 0. -1.
         22    1    1    2    0    0 -0.44156505621E+02 -0.23801269656E+02  0.11827418433E+03  0.12847209854E+03  0.00000000000E+00 0. -1.
          2    1    1    2  501    0 -0.13751051057E+03 -0.38785201082E+02  0.18974163532E+03  0.23751909507E+03  0.25500000000E-02 0. -1.
<mgrwt>
<rscale>  0 0.19767602E+03</rscale>
<asrwt>0</asrwt>
<pdfrwt beam="1">  1       11 0.10000000E+01 0.19214570E+03</pdfrwt>
<pdfrwt beam="2">  1        2 0.66019238E-02 0.19767602E+03</pdfrwt>
<totfact> 0.13131774E+03</totfact>
</mgrwt>
</event>
<event>
 5    1  0.1851087E-003  0.9731433E+02  0.7818608E-02  0.1286047E+00
         11   -1    0    0    0    0  0.00000000000E+00  0.00000000000E+00  0.10001752677E+04  0.10001752677E+04  0.51100000000E-03 0. -1.
          2   -1    0    0  501    0 -0.00000000000E+00 -0.00000000000E+00 -0.92140132152E+01  0.92140135680E+01  0.25500000000E-02 0.  1.
         11    1    1    2    0    0  0.60531503448E+02  0.72804138171E+02  0.48729447287E+03  0.49640750269E+03  0.51100000000E-03 0. -1.
         22    1    1    2    0    0 -0.39843591629E+01 -0.14088667179E+02  0.52193401431E+02  0.54208088085E+02  0.00000000000E+00 0.  1.
          2    1    1    2  501    0 -0.56547144285E+02 -0.58715470992E+02  0.45147338014E+03  0.45877369044E+03  0.25500000000E-02 0.  1.
<mgrwt>
<rscale>  0 0.97314327E+02</rscale>
<asrwt>0</asrwt>
<pdfrwt beam="1">  1       11 0.10000000E+01 0.94681120E+02</pdfrwt>
<pdfrwt beam="2">  1        2 0.14177889E-02 0.97314327E+02</pdfrwt>
<totfact> 0.95726612E+03</totfact>
</mgrwt>
</event>
<event>
 5    1  0.1851087E-003  0.2797494E+03  0.7818608E-02  0.1291249E+00
         11   -1    0    0    0    0  0.00000000000E+00  0.00000000000E+00  0.10002430793E+04  0.10002430793E+04  0.51100000000E-03 0.  1.
         -2   -1    0    0    0  501 -0.00000000000E+00 -0.00000000000E+00 -0.38847361184E+03  0.38847361184E+03  0.25500000000E-02 0. -1.
         11    1    1    2    0    0 -0.25696417403E+03  0.11037614778E+03  0.90755196798E+03  0.94966523329E+03  0.51100000000E-03 0.  1.
         22    1    1    2    0    0  0.11697612455E+02  0.30041954276E+02 -0.70879421548E+02  0.77866845017E+02  0.00000000000E+00 0. -1.
         -2    1    1    2    0  501  0.24526656158E+03 -0.14041810206E+03 -0.22490307897E+03  0.36118461284E+03  0.25500000000E-02 0. -1.
<mgrwt>
<rscale>  0 0.94967577E+02</rscale>
<asrwt>0</asrwt>
<pdfrwt beam="1">  1       11 0.10000000E+01 0.27974939E+03</pdfrwt>
<pdfrwt beam="2">  1       -2 0.59779697E-01 0.94967577E+02</pdfrwt>
<totfact> 0.21807870E+01</totfact>
</mgrwt>
</event>
<event>
 5    1  0.1851087E-003  0.2410835E+03  0.7818608E-02  0.1244935E+00
         11   -1    0    0    0    0  0.00000000000E+00  0.00000000000E+00  0.10001428072E+04  0.10001428072E+04  0.51100000000E-03 0. -1.
         -2   -1    0    0    0  501 -0.00000000000E+00 -0.00000000000E+00 -0.17291798788E+03  0.17291798790E+03  0.25500000000E-02 0.  1.
         11    1    1    2    0    0 -0.21847837985E+03 -0.12530146454E+03  0.85410180612E+03  0.89046232638E+03  0.51100000000E-03 0. -1.
         22    1    1    2    0    0  0.48518736311E+02  0.32920801715E+02 -0.62724205678E+02  0.85861358810E+02  0.00000000000E+00 0.  1.
         -2    1    1    2    0  501  0.16995964354E+03  0.92380662826E+02  0.35847218837E+02  0.19673710987E+03  0.25500000000E-02 0.  1.
<mgrwt>
<rscale>  0 0.11889274E+03</rscale>
<asrwt>0</asrwt>
<pdfrwt beam="1">  1       11 0.10000000E+01 0.24108347E+03</pdfrwt>
<pdfrwt beam="2">  1       -2 0.26606566E-01 0.11889274E+03</pdfrwt>
<totfact> 0.10071160E+02</totfact>
</mgrwt>
</event>
<event>
 5    1  0.1851087E-003  0.2703411E+03  0.7818608E-02  0.1101085E+00
         11   -1    0    0    0    0  0.00000000000E+00  0.00000000000E+00  0.99975034700E+03  0.99975034701E+03  0.51100000000E-03 0.  1.
          2   -1    0    0  501    0 -0.00000000000E+00 -0.00000000000E+00 -0.12552140332E+03  0.12552140334E+03  0.25500000000E-02 0.  1.
         11    1    1    2    0    0  0.36245604079E+02 -0.25510152279E+03  0.80638133033E+03  0.84654673860E+03  0.51100000000E-03 0.  1.
         22    1    1    2    0    0 -0.77879647647E+00  0.14996917497E+03  0.25699730000E+01  0.14999321560E+03  0.00000000000E+00 0.  1.
          2    1    1    2  501    0 -0.35466807603E+02  0.10513234782E+03  0.65277640364E+02  0.12873179614E+03  0.25500000000E-02 0.  1.
<mgrwt>
<rscale>  0 0.27034114E+03</rscale>
<asrwt>0</asrwt>
<pdfrwt beam="1">  1       11 0.10000000E+01 0.25766360E+03</pdfrwt>
<pdfrwt beam="2">  1        2 0.19306164E-01 0.27034114E+03</pdfrwt>
<totfact> 0.35711833E+02</totfact>
</mgrwt>
</event>
<event>
 5    1  0.1851087E-003  0.1586410E+03  0.7818608E-02  0.1190240E+00
         11   -1    0    0    0    0  0.00000000000E+00  0.00000000000E+00  0.10001690186E+04  0.10001690186E+04  0.51100000000E-03 0. -1.
          2   -1    0    0  501    0 -0.00000000000E+00 -0.00000000000E+00 -0.46491536813E+02  0.46491536883E+02  0.25500000000E-02 0.  1.
         11    1    1    2    0    0 -0.44091981672E+02  0.14505088905E+03  0.83471357852E+03  0.84836938973E+03  0.51100000000E-03 0. -1.
         22    1    1    2    0    0 -0.10784742343E+01 -0.75106247422E+02  0.50714764259E+02  0.90631665671E+02  0.00000000000E+00 0.  1.
          2    1    1    2  501    0  0.45170455906E+02 -0.69944641628E+02  0.68249139041E+02  0.10765950012E+03  0.25500000000E-02 0.  1.
<mgrwt>
<rscale>  0 0.15864103E+03</rscale>
<asrwt>0</asrwt>
<pdfrwt beam="1">  1       11 0.10000000E+01 0.15160430E+03</pdfrwt>
<pdfrwt beam="2">  1        2 0.71537528E-02 0.15864103E+03</pdfrwt>
<totfact> 0.11677152E+03</totfact>
</mgrwt>
</event>
<event>
 5    1  0.1851087E-003  0.1249190E+03  0.7818608E-02  0.1319868E+00
         11   -1    0    0    0    0  0.00000000000E+00  0.00000000000E+00  0.10002844667E+04  0.10002844667E+04  0.51100000000E-03 0.  1.
          2   -1    0    0  501    0 -0.00000000000E+00 -0.00000000000E+00 -0.29986329005E+02  0.29986329113E+02  0.25500000000E-02 0.  1.
         11    1    1    2    0    0  0.65463675817E+02 -0.12177658392E+03  0.70825206240E+03  0.72162040793E+03  0.51100000000E-03 0.  1.
         22    1    1    2    0    0  0.13701531211E+02  0.53867199985E+02  0.63611023305E+02  0.84473483873E+02  0.00000000000E+00 0.  1.
          2    1    1    2  501    0 -0.79165207028E+02  0.67909383933E+02  0.19843505202E+03  0.22417690404E+03  0.25500000000E-02 0.  1.
<mgrwt>
<rscale>  0 0.83326466E+02</rscale>
<asrwt>0</asrwt>
<pdfrwt beam="1">  1       11 0.10000000E+01 0.12491896E+03</pdfrwt>
<pdfrwt beam="2">  1        2 0.46145936E-02 0.83326466E+02</pdfrwt>
<totfact> 0.19473300E+03</totfact>
</mgrwt>
</event>
<event>
 5    1  0.1851087E-003  0.1795777E+03  0.7818608E-02  0.1168212E+00
         11   -1    0    0    0    0  0.00000000000E+00  0.00000000000E+00  0.10001413874E+04  0.10001413874E+04  0.51100000000E-03 0.  1.
          2   -1    0    0  501    0 -0.00000000000E+00 -0.00000000000E+00 -0.18418369565E+03  0.18418369567E+03  0.25500000000E-02 0.  1.
         11    1    1    2    0    0 -0.10103906774E+03 -0.95423461315E+02  0.77651699004E+03  0.78885560529E+03  0.51100000000E-03 0.  1.
         22    1    1    2    0    0 -0.88310286388E+02  0.16345505872E+03 -0.16836905987E+02  0.18654689573E+03  0.00000000000E+00 0.  1.
          2    1    1    2  501    0  0.18934935413E+03 -0.68031597405E+02  0.56277607691E+02  0.20892258205E+03  0.25500000000E-02 0.  1.
<mgrwt>
<rscale>  0 0.17957769E+03</rscale>
<asrwt>0</asrwt>
<pdfrwt beam="1">  1       11 0.10000000E+01 0.13897673E+03</pdfrwt>
<pdfrwt beam="2">  1        2 0.28339959E-01 0.17957769E+03</pdfrwt>
<totfact> 0.22954591E+02</totfact>
</mgrwt>
</event>
<event>
 5    1  0.1851087E-003  0.7350359E+02  0.7818608E-02  0.1537980E+00
         11   -1    0    0    0    0  0.00000000000E+00  0.00000000000E+00  0.10000759752E+04  0.10000759752E+04  0.51100000000E-03 0. -1.
          2   -1    0    0  501    0 -0.00000000000E+00 -0.00000000000E+00 -0.91473287164E+01  0.91473290718E+01  0.25500000000E-02 0. -1.
         11    1    1    2    0    0 -0.74109979551E+02  0.38166496370E+02  0.42206120207E+03  0.43021463109E+03  0.51100000000E-03 0. -1.
         22    1    1    2    0    0  0.41277049169E+02 -0.53472676077E+02  0.28807053060E+03  0.29588469456E+03  0.00000000000E+00 0. -1.
          2    1    1    2  501    0  0.32832930382E+02  0.15306179707E+02  0.28079691386E+03  0.28312397866E+03  0.25500000000E-02 0. -1.
<mgrwt>
<rscale>  0 0.36225412E+02</rscale>
<asrwt>0</asrwt>
<pdfrwt beam="1">  1       11 0.10000000E+01 0.73503592E+02</pdfrwt>
<pdfrwt beam="2">  1        2 0.14073882E-02 0.36225412E+02</pdfrwt>
<totfact> 0.82498184E+03</totfact>
</mgrwt>
</event>
<event>
 5    1  0.1851087E-003  0.1671005E+03  0.7818608E-02  0.1180906E+00
         11   -1    0    0    0    0  0.00000000000E+00  0.00000000000E+00  0.10001483247E+04  0.10001483247E+04  0.51100000000E-03 0. -1.
         -2   -1    0    0    0  501 -0.00000000000E+00 -0.00000000000E+00 -0.57025066823E+02  0.57025066880E+02  0.25500000000E-02 0.  1.
         11    1    1    2    0    0 -0.15323269098E+03 -0.45602476615E+02  0.85194425054E+03  0.86681534913E+03  0.51100000000E-03 0. -1.
         22    1    1    2    0    0  0.48922840399E+02  0.48698717300E+01  0.52398259861E+02  0.71852192728E+02  0.00000000000E+00 0. -1.
         -2    1    1    2    0  501  0.10430985059E+03  0.40732604885E+02  0.38780747432E+02  0.11850584968E+03  0.25500000000E-02 0.  1.
<mgrwt>
<rscale>  0 0.16710049E+03</rscale>
<asrwt>0</asrwt>
<pdfrwt beam="1">  1       11 0.10000000E+01 0.15987446E+03</pdfrwt>
<pdfrwt beam="2">  1       -2 0.87743882E-02 0.16710049E+03</pdfrwt>
<totfact> 0.63455585E+02</totfact>
</mgrwt>
</event>
<event>
 5    1  0.1851087E-003  0.1987249E+03  0.7818608E-02  0.1150819E+00
         11   -1    0    0    0    0  0.00000000000E+00  0.00000000000E+00  0.10002469650E+04  0.10002469650E+04  0.51100000000E-03 0.  1.
          2   -1    0    0  501    0 -0.00000000000E+00 -0.00000000000E+00 -0.19969066725E+03  0.19969066727E+03  0.25500000000E-02 0.  1.
         11    1    1    2    0    0  0.83965224122E+02  0.17050634767E+03  0.93880759163E+03  0.95785294673E+03  0.51100000000E-03 0.  1.
         22    1    1    2    0    0 -0.20789016608E+02 -0.20795112200E+02 -0.10652768573E+01  0.29423710128E+02  0.00000000000E+00 0. -1.
          2    1    1    2  501    0 -0.63176207513E+02 -0.14971123547E+03 -0.13718601698E+03  0.21266097546E+03  0.25500000000E-02 0.  1.
<mgrwt>
<rscale>  0 0.19872487E+03</rscale>
<asrwt>0</asrwt>
<pdfrwt beam="1">  1       11 0.10000000E+01 0.19005939E+03</pdfrwt>
<pdfrwt beam="2">  1        2 0.30729227E-01 0.19872487E+03</pdfrwt>
<totfact> 0.21044547E+02</totfact>
</mgrwt>
</event>
<event>
 5    1  0.1965371E-003  0.2328631E+03  0.7818608E-02  0.1124641E+00
         11   -1    0    0    0    0  0.00000000000E+00  0.00000000000E+00  0.10001294813E+04  0.10001294813E+04  0.51100000000E-03 0. -1.
          2   -1    0    0  501    0 -0.00000000000E+00 -0.00000000000E+00 -0.53327216484E+03  0.53327216485E+03  0.25500000000E-02 0. -1.
         11    1    1    2    0    0 -0.16723053301E+03 -0.15645363370E+03  0.96058998583E+03  0.98751046149E+03  0.51100000000E-03 0. -1.
         22    1    1    2    0    0  0.12228355378E+02 -0.17992743139E+00 -0.20573337213E+02  0.23933809835E+02  0.00000000000E+00 0. -1.
          2    1    1    2  501    0  0.15500217763E+03  0.15663356113E+03 -0.47315933215E+03  0.52195737484E+03  0.25500000000E-02 0. -1.
<mgrwt>
<rscale>  0 0.23286313E+03</rscale>
<asrwt>0</asrwt>
<pdfrwt beam="1">  1       11 0.10000000E+01 0.22900609E+03</pdfrwt>
<pdfrwt beam="2">  1        2 0.82052492E-01 0.23286313E+03</pdfrwt>
<totfact> 0.72274627E+01</totfact>
</mgrwt>
</event>
<event>
 5    1  0.1851087E-003  0.9529704E+02  0.7818608E-02  0.1290508E+00
         11   -1    0    0    0    0  0.00000000000E+00  0.00000000000E+00  0.99980527509E+03  0.99980527509E+03  0.51100000000E-03 0. -1.
          2   -1    0    0  501    0 -0.00000000000E+00 -0.00000000000E+00 -0.95707481039E+01  0.95707484436E+01  0.25500000000E-02 0. -1.
         11    1    1    2    0    0 -0.89579219192E+02 -0.21522673868E+02  0.34273553035E+03  0.35490182553E+03  0.51100000000E-03 0. -1.
         22    1    1    2    0    0  0.43595001067E+02  0.19857403234E+02  0.27463710288E+03  0.27878374927E+03  0.00000000000E+00 0. -1.
          2    1    1    2  501    0  0.45984218126E+02  0.16652706340E+01  0.37286189376E+03  0.37569044873E+03  0.25500000000E-02 0. -1.
<mgrwt>
<rscale>  0 0.95297037E+02</rscale>
<asrwt>0</asrwt>
<pdfrwt beam="1">  1       11 0.10000000E+01 0.92128554E+02</pdfrwt>
<pdfrwt beam="2">  1        2 0.14721361E-02 0.95297037E+02</pdfrwt>
<totfact> 0.90676757E+03</totfact>
</mgrwt>
</event>
<event>
 5    1  0.1851087E-003  0.2666862E+03  0.7818608E-02  0.1356261E+00
         11   -1    0    0    0    0  0.00000000000E+00  0.00000000000E+00  0.10001473722E+04  0.10001473722E+04  0.51100000000E-03 0. -1.
          2   -1    0    0  501    0 -0.00000000000E+00 -0.00000000000E+00 -0.15260914440E+03  0.15260914442E+03  0.25500000000E-02 0. -1.
         11    1    1    2    0    0  0.24152945630E+03 -0.12385543119E+03  0.72914504383E+03  0.77802901041E+03  0.51100000000E-03 0. -1.
         22    1    1    2    0    0 -0.19145918217E+03  0.17439024927E+03  0.14730395750E+03  0.29793796900E+03  0.00000000000E+00 0. -1.
          2    1    1    2  501    0 -0.50070274133E+02 -0.50534818071E+02 -0.28910773544E+02  0.76789537195E+02  0.25500000000E-02 0. -1.
<mgrwt>
<rscale>  0 0.71139301E+02</rscale>
<asrwt>0</asrwt>
<pdfrwt beam="1">  1       11 0.10000000E+01 0.26668619E+03</pdfrwt>
<pdfrwt beam="2">  1        2 0.23481789E-01 0.71139301E+02</pdfrwt>
<totfact> 0.27514981E+02</totfact>
</mgrwt>
</event>
<event>
 5    1  0.1851087E-003  0.1751054E+03  0.7818608E-02  0.1370006E+00
         11   -1    0    0    0    0  0.00000000000E+00  0.00000000000E+00  0.10006975575E+04  0.10006975575E+04  0.51100000000E-03 0. -1.
          2   -1    0    0  501    0 -0.00000000000E+00 -0.00000000000E+00 -0.12588775274E+04  0.12588775274E+04  0.25500000000E-02 0. -1.
         11    1    1    2    0    0 -0.80280669141E+02 -0.15633630314E+03  0.98416147457E+03  0.99972988029E+03  0.51100000000E-03 0. -1.
         22    1    1    2    0    0  0.18447572571E+02  0.13010911464E+03 -0.61283941656E+03  0.62677016931E+03  0.00000000000E+00 0. -1.
          2    1    1    2  501    0  0.61833096570E+02  0.26227188502E+02 -0.62950202786E+03  0.63307503531E+03  0.25500000000E-02 0. -1.
<mgrwt>
<rscale>  0 0.67165447E+02</rscale>
<asrwt>0</asrwt>
<pdfrwt beam="1">  1       11 0.10000000E+01 0.17510538E+03</pdfrwt>
<pdfrwt beam="2">  1        2 0.19380856E+00 0.67165447E+02</pdfrwt>
<totfact> 0.25361336E+01</totfact>
</mgrwt>
</event>
<event>
 5    1  0.1851087E-003  0.1726350E+03  0.7818608E-02  0.1175127E+00
         11   -1    0    0    0    0  0.00000000000E+00  0.00000000000E+00  0.10006085576E+04  0.10006085576E+04  0.51100000000E-03 0.  1.
          2   -1    0    0  501    0 -0.00000000000E+00 -0.00000000000E+00 -0.81054883140E+02  0.81054883180E+02  0.25500000000E-02 0.  1.
         11    1    1    2    0    0 -0.14541462327E+03  0.74556677068E+02  0.89199786515E+03  0.90684304165E+03  0.51100000000E-03 0.  1.
         22    1    1    2    0    0  0.71841239732E+02 -0.51803593531E+02  0.39336813422E+02  0.96913161744E+02  0.00000000000E+00 0.  1.
          2    1    1    2  501    0  0.73573383535E+02 -0.22753083537E+02 -0.11781004099E+02  0.77907237400E+02  0.25500000000E-02 0.  1.
<mgrwt>
<rscale>  0 0.17263502E+03</rscale>
<asrwt>0</asrwt>
<pdfrwt beam="1">  1       11 0.10000000E+01 0.16341392E+03</pdfrwt>
<pdfrwt beam="2">  1        2 0.12477570E-01 0.17263502E+03</pdfrwt>
<totfact> 0.58833872E+02</totfact>
</mgrwt>
</event>
<event>
 5    1  0.1851087E-003  0.1285874E+03  0.7818608E-02  0.1229567E+00
         11   -1    0    0    0    0  0.00000000000E+00  0.00000000000E+00  0.99995905960E+03  0.99995905960E+03  0.51100000000E-03 0. -1.
          2   -1    0    0  501    0 -0.00000000000E+00 -0.00000000000E+00 -0.19972089634E+02  0.19972089797E+02  0.25500000000E-02 0. -1.
         11    1    1    2    0    0  0.99322309407E+02  0.76583876484E+02  0.70870093844E+03  0.71971315914E+03  0.51100000000E-03 0. -1.
         22    1    1    2    0    0 -0.10125871927E+02  0.80010602695E+00  0.16131588658E+02  0.19063095356E+02  0.00000000000E+00 0.  1.
          2    1    1    2  501    0 -0.89196437480E+02 -0.77383982511E+02  0.25515444286E+03  0.28115489490E+03  0.25500000000E-02 0. -1.
<mgrwt>
<rscale>  0 0.12858744E+03</rscale>
<asrwt>0</asrwt>
<pdfrwt beam="1">  1       11 0.10000000E+01 0.12541934E+03</pdfrwt>
<pdfrwt beam="2">  1        2 0.30725033E-02 0.12858744E+03</pdfrwt>
<totfact> 0.34748552E+03</totfact>
</mgrwt>
</event>
<event>
 5    1  0.1851087E-003  0.1667689E+03  0.7818608E-02  0.1181260E+00
         11   -1    0    0    0    0  0.00000000000E+00  0.00000000000E+00  0.10001172109E+04  0.10001172109E+04  0.51100000000E-03 0.  1.
          2   -1    0    0  501    0 -0.00000000000E+00 -0.00000000000E+00 -0.40444103268E+02  0.40444103348E+02  0.25500000000E-02 0.  1.
         11    1    1    2    0    0 -0.14665520712E+03  0.76338216212E+02  0.77196417085E+03  0.78947067970E+03  0.51100000000E-03 0.  1.
         22    1    1    2    0    0  0.17199469450E+02 -0.26322703504E+01  0.25338951507E+02  0.30737811569E+02  0.00000000000E+00 0. -1.
          2    1    1    2  501    0  0.12945573767E+03 -0.73705945862E+02  0.16236998529E+03  0.22035282299E+03  0.25500000000E-02 0.  1.
<mgrwt>
<rscale>  0 0.16676889E+03</rscale>
<asrwt>0</asrwt>
<pdfrwt beam="1">  1       11 0.10000000E+01 0.16533382E+03</pdfrwt>
<pdfrwt beam="2">  1        2 0.62228989E-02 0.16676889E+03</pdfrwt>
<totfact> 0.14010969E+03</totfact>
</mgrwt>
</event>
<event>
 5    1  0.1851087E-003  0.1516444E+03  0.7818608E-02  0.1333986E+00
         11   -1    0    0    0    0  0.00000000000E+00  0.00000000000E+00  0.10002746115E+04  0.10002746115E+04  0.51100000000E-03 0.  1.
         -2   -1    0    0    0  501 -0.00000000000E+00 -0.00000000000E+00 -0.55667273599E+02  0.55667273657E+02  0.25500000000E-02 0.  1.
         11    1    1    2    0    0  0.14944275047E+03  0.41280703305E+02  0.83018706660E+03  0.84453999176E+03  0.51100000000E-03 0.  1.
         22    1    1    2    0    0 -0.30277360905E+02  0.26770683984E+02  0.29298702638E+02  0.49917953490E+02  0.00000000000E+00 0. -1.
         -2    1    1    2    0  501 -0.11916538957E+03 -0.68051387289E+02  0.85121568614E+02  0.16148393986E+03  0.25500000000E-02 0.  1.
<mgrwt>
<rscale>  0 0.78286255E+02</rscale>
<asrwt>0</asrwt>
<pdfrwt beam="1">  1       11 0.10000000E+01 0.15164439E+03</pdfrwt>
<pdfrwt beam="2">  1       -2 0.85665475E-02 0.78286255E+02</pdfrwt>
<totfact> 0.62462605E+02</totfact>
</mgrwt>
</event>
<event>
 5    1  0.1851087E-003  0.6894027E+02  0.7818608E-02  0.1422099E+00
         11   -1    0    0    0    0  0.00000000000E+00  0.00000000000E+00  0.10002213538E+04  0.10002213538E+04  0.51100000000E-03 0. -1.
          2   -1    0    0  501    0 -0.00000000000E+00 -0.00000000000E+00 -0.10763277150E+02  0.10763277452E+02  0.25500000000E-02 0. -1.
         11    1    1    2    0    0  0.67651170232E+02  0.60143935454E+02  0.34824360027E+03  0.35981603485E+03  0.51100000000E-03 0. -1.
         22    1    1    2    0    0 -0.43176742989E+02 -0.16952581832E+01  0.15744289761E+03  0.16326472688E+03  0.00000000000E+00 0. -1.
          2    1    1    2  501    0 -0.24474427242E+02 -0.58448677271E+02  0.48377157882E+03  0.48790386957E+03  0.25500000000E-02 0. -1.
<mgrwt>
<rscale>  0 0.54579378E+02</rscale>
<asrwt>0</asrwt>
<pdfrwt beam="1">  1       11 0.10000000E+01 0.68940275E+02</pdfrwt>
<pdfrwt beam="2">  1        2 0.16562553E-02 0.54579378E+02</pdfrwt>
<totfact> 0.71234478E+03</totfact>
</mgrwt>
</event>
<event>
 5    1  0.1851087E-003  0.9843582E+02  0.7818608E-02  0.1444982E+00
         11   -1    0    0    0    0  0.00000000000E+00  0.00000000000E+00  0.10000753811E+04  0.10000753811E+04  0.51100000000E-03 0. -1.
          2   -1    0    0  501    0 -0.00000000000E+00 -0.00000000000E+00 -0.15796157165E+02  0.15796157371E+02  0.25500000000E-02 0. -1.
         11    1    1    2    0    0  0.94681030636E+02 -0.55643161574E+02  0.65010519178E+03  0.65931587223E+03  0.51100000000E-03 0. -1.
         22    1    1    2    0    0 -0.23050754545E+02  0.10822617010E+02  0.23694640097E+02  0.34783649799E+02  0.00000000000E+00 0. -1.
          2    1    1    2  501    0 -0.71630276092E+02  0.44820544563E+02  0.31047939209E+03  0.32177201648E+03  0.25500000000E-02 0. -1.
<mgrwt>
<rscale>  0 0.50066640E+02</rscale>
<asrwt>0</asrwt>
<pdfrwt beam="1">  1       11 0.10000000E+01 0.98435822E+02</pdfrwt>
<pdfrwt beam="2">  1        2 0.24303612E-02 0.50066640E+02</pdfrwt>
<totfact> 0.42339505E+03</totfact>
</mgrwt>
</event>
<event>
 5    1  0.1851087E-003  0.1020171E+03  0.7818608E-02  0.1395404E+00
         11   -1    0    0    0    0  0.00000000000E+00  0.00000000000E+00  0.10003389726E+04  0.10003389726E+04  0.51100000000E-03 0. -1.
          2   -1    0    0  501    0 -0.00000000000E+00 -0.00000000000E+00 -0.21178150169E+02  0.21178150323E+02  0.25500000000E-02 0. -1.
         11    1    1    2    0    0 -0.42784578988E+02  0.96162284964E+02  0.50722993264E+03  0.51803466082E+03  0.51100000000E-03 0. -1.
         22    1    1    2    0    0  0.89858201193E+02 -0.58026985075E+02  0.22359289368E+03  0.24786167397E+03  0.00000000000E+00 0. -1.
          2    1    1    2  501    0 -0.47073622205E+02 -0.38135299889E+02  0.24833799610E+03  0.25562078812E+03  0.25500000000E-02 0. -1.
<mgrwt>
<rscale>  0 0.60582399E+02</rscale>
<asrwt>0</asrwt>
<pdfrwt beam="1">  1       11 0.10000000E+01 0.10201708E+03</pdfrwt>
<pdfrwt beam="2">  1        2 0.32592813E-02 0.60582399E+02</pdfrwt>
<totfact> 0.29561044E+03</totfact>
</mgrwt>
</event>
<event>
 5    1  0.1851087E-003  0.1082912E+03  0.7818608E-02  0.1263767E+00
         11   -1    0    0    0    0  0.00000000000E+00  0.00000000000E+00  0.10003320438E+04  0.10003320438E+04  0.51100000000E-03 0. -1.
          2   -1    0    0  501    0 -0.00000000000E+00 -0.00000000000E+00 -0.12285993685E+02  0.12285993950E+02  0.25500000000E-02 0. -1.
         11    1    1    2    0    0  0.94097183970E+02  0.47614857429E+02  0.35340497219E+03  0.36880418794E+03  0.51100000000E-03 0. -1.
         22    1    1    2    0    0 -0.11582854278E+02 -0.11414876767E+01  0.39285315805E+02  0.40973180804E+02  0.00000000000E+00 0. -1.
          2    1    1    2  501    0 -0.82514329692E+02 -0.46473369752E+02  0.59535576210E+03  0.60284066897E+03  0.25500000000E-02 0. -1.
<mgrwt>
<rscale>  0 0.10829116E+03</rscale>
<asrwt>0</asrwt>
<pdfrwt beam="1">  1       11 0.10000000E+01 0.10545836E+03</pdfrwt>
<pdfrwt beam="2">  1        2 0.18907805E-02 0.10829116E+03</pdfrwt>
<totfact> 0.65630848E+03</totfact>
</mgrwt>
</event>
<event>
 5    1  0.1851087E-003  0.9833437E+02  0.7818608E-02  0.1283838E+00
         11   -1    0    0    0    0  0.00000000000E+00  0.00000000000E+00  0.99995588622E+03  0.99995588622E+03  0.51100000000E-03 0. -1.
          2   -1    0    0  501    0 -0.00000000000E+00 -0.00000000000E+00 -0.93581784523E+01  0.93581787997E+01  0.25500000000E-02 0. -1.
         11    1    1    2    0    0  0.45296292458E+02 -0.81059127967E+02  0.55866072744E+03  0.56632512281E+03  0.51100000000E-03 0. -1.
         22    1    1    2    0    0  0.36990080550E+01  0.14388582205E+02  0.48377780188E+02  0.50607544639E+02  0.00000000000E+00 0. -1.
          2    1    1    2  501    0 -0.48995300513E+02  0.66670545763E+02  0.38355920014E+03  0.39238139757E+03  0.25500000000E-02 0. -1.
<mgrwt>
<rscale>  0 0.98334368E+02</rscale>
<asrwt>0</asrwt>
<pdfrwt beam="1">  1       11 0.10000000E+01 0.92856536E+02</pdfrwt>
<pdfrwt beam="2">  1        2 0.14396562E-02 0.98334368E+02</pdfrwt>
<totfact> 0.93887280E+03</totfact>
</mgrwt>
</event>
<event>
 5    1  0.1851087E-003  0.9643124E+02  0.7818608E-02  0.1424649E+00
         11   -1    0    0    0    0  0.00000000000E+00  0.00000000000E+00  0.10002714934E+04  0.10002714934E+04  0.51100000000E-03 0. -1.
          2   -1    0    0  501    0 -0.00000000000E+00 -0.00000000000E+00 -0.15875764153E+02  0.15875764358E+02  0.25500000000E-02 0. -1.
         11    1    1    2    0    0  0.36965549401E+01 -0.11196977799E+03  0.60538402411E+03  0.61566282359E+03  0.51100000000E-03 0. -1.
         22    1    1    2    0    0 -0.40866146302E+01  0.30017508303E+02  0.32568313351E+02  0.44479728623E+02  0.00000000000E+00 0. -1.
          2    1    1    2  501    0  0.39005969014E+00  0.81952269688E+02  0.34644339184E+03  0.35600470560E+03  0.25500000000E-02 0. -1.
<mgrwt>
<rscale>  0 0.54049292E+02</rscale>
<asrwt>0</asrwt>
<pdfrwt beam="1">  1       11 0.10000000E+01 0.96431239E+02</pdfrwt>
<pdfrwt beam="2">  1        2 0.24430883E-02 0.54049292E+02</pdfrwt>
<totfact> 0.42500856E+03</totfact>
</mgrwt>
</event>
<event>
 5    1  0.1851087E-003  0.1667108E+03  0.7818608E-02  0.1291684E+00
         11   -1    0    0    0    0  0.00000000000E+00  0.00000000000E+00  0.10002385808E+04  0.10002385808E+04  0.51100000000E-03 0.  1.
          2   -1    0    0  501    0 -0.00000000000E+00 -0.00000000000E+00 -0.37783134986E+03  0.37783134986E+03  0.25500000000E-02 0.  1.
         11    1    1    2    0    0  0.14964270151E+03 -0.70444546035E+02  0.82922716380E+03  0.84556079697E+03  0.51100000000E-03 0.  1.
         22    1    1    2    0    0 -0.23379699017E+03  0.26851489581E+02 -0.31208204712E+03  0.39086729108E+03  0.00000000000E+00 0.  1.
          2    1    1    2  501    0  0.84154288659E+02  0.43593056454E+02  0.10526211422E+03  0.14164184257E+03  0.25500000000E-02 0.  1.
<mgrwt>
<rscale>  0 0.94774991E+02</rscale>
<asrwt>0</asrwt>
<pdfrwt beam="1">  1       11 0.10000000E+01 0.16671081E+03</pdfrwt>
<pdfrwt beam="2">  1        2 0.58141767E-01 0.94774991E+02</pdfrwt>
<totfact> 0.10610399E+02</totfact>
</mgrwt>
</event>
<event>
 5    1  0.1851087E-003  0.4694047E+03  0.7818608E-02  0.1022088E+00
         11   -1    0    0    0    0  0.00000000000E+00  0.00000000000E+00  0.10002528386E+04  0.10002528386E+04  0.51100000000E-03 0. -1.
          2   -1    0    0  501    0 -0.00000000000E+00 -0.00000000000E+00 -0.67366955457E+03  0.67366955458E+03  0.25500000000E-02 0. -1.
         11    1    1    2    0    0 -0.37833144590E+03  0.22782800713E+03  0.85793186771E+03  0.96492868826E+03  0.51100000000E-03 0. -1.
         22    1    1    2    0    0  0.95999466434E+02  0.14709562126E+02 -0.10467874530E+03  0.14279323685E+03  0.00000000000E+00 0. -1.
          2    1    1    2  501    0  0.28233197946E+03 -0.24253756926E+03 -0.42666983834E+03  0.56620046811E+03  0.25500000000E-02 0. -1.
<mgrwt>
<rscale>  0 0.46940468E+03</rscale>
<asrwt>0</asrwt>
<pdfrwt beam="1">  1       11 0.10000000E+01 0.44163365E+03</pdfrwt>
<pdfrwt beam="2">  1        2 0.10366767E+00 0.46940468E+03</pdfrwt>
<totfact> 0.53990254E+01</totfact>
</mgrwt>
</event>
<event>
 5    1  0.1851087E-003  0.2080128E+03  0.7818608E-02  0.1143149E+00
         11   -1    0    0    0    0  0.00000000000E+00  0.00000000000E+00  0.10002278819E+04  0.10002278819E+04  0.51100000000E-03 0. -1.
          2   -1    0    0  501    0 -0.00000000000E+00 -0.00000000000E+00 -0.11686223176E+03  0.11686223178E+03  0.25500000000E-02 0. -1.
         11    1    1    2    0    0  0.92284379118E+01 -0.20532973555E+03  0.88552562984E+03  0.90906606221E+03  0.51100000000E-03 0. -1.
         22    1    1    2    0    0  0.39839517733E+00  0.16448120983E+02 -0.90386287116E+01  0.18772219144E+02  0.00000000000E+00 0. -1.
          2    1    1    2  501    0 -0.96268330891E+01  0.18888161457E+03  0.68786490668E+01  0.18925183237E+03  0.25500000000E-02 0. -1.
<mgrwt>
<rscale>  0 0.20801284E+03</rscale>
<asrwt>0</asrwt>
<pdfrwt beam="1">  1       11 0.10000000E+01 0.20553701E+03</pdfrwt>
<pdfrwt beam="2">  1        2 0.17982901E-01 0.20801284E+03</pdfrwt>
<totfact> 0.38472761E+02</totfact>
</mgrwt>
</event>
<event>
 5    1  0.1851087E-003  0.4773469E+02  0.7818608E-02  0.1561178E+00
         11   -1    0    0    0    0  0.00000000000E+00  0.00000000000E+00  0.99990601787E+03  0.99990601787E+03  0.51100000000E-03 0. -1.
          2   -1    0    0  501    0 -0.00000000000E+00 -0.00000000000E+00 -0.60680332672E+01  0.60680338030E+01  0.25500000000E-02 0. -1.
         11    1    1    2    0    0  0.65056544785E+02 -0.10275601600E+02  0.27629461088E+03  0.28403636036E+03  0.51100000000E-03 0. -1.
         22    1    1    2    0    0 -0.20858423963E+02  0.11217305230E+02  0.98081673244E+02  0.10090052732E+03  0.00000000000E+00 0. -1.
          2    1    1    2  501    0 -0.44198120822E+02 -0.94170362955E+00  0.61946170048E+03  0.62103716399E+03  0.25500000000E-02 0. -1.
<mgrwt>
<rscale>  0 0.33623168E+02</rscale>
<asrwt>0</asrwt>
<pdfrwt beam="1">  1       11 0.10000000E+01 0.47734686E+02</pdfrwt>
<pdfrwt beam="2">  1        2 0.93345586E-03 0.33623168E+02</pdfrwt>
<totfact> 0.13990053E+04</totfact>
</mgrwt>
</event>
<event>
 5    1  0.1851087E-003  0.1492696E+03  0.7818608E-02  0.1201373E+00
         11   -1    0    0    0    0  0.00000000000E+00  0.00000000000E+00  0.10001516751E+04  0.10001516751E+04  0.51100000000E-03 0. -1.
          2   -1    0    0  501    0 -0.00000000000E+00 -0.00000000000E+00 -0.36898300628E+02  0.36898300716E+02  0.25500000000E-02 0. -1.
         11    1    1    2    0    0 -0.12268260786E+03 -0.74020117037E+02  0.81199559003E+03  0.82454037999E+03  0.51100000000E-03 0. -1.
         22    1    1    2    0    0  0.47929923954E+01  0.13807846421E+02  0.55129298630E+01  0.15621196963E+02  0.00000000000E+00 0. -1.
          2    1    1    2  501    0  0.11788961547E+03  0.60212270617E+02  0.14574485459E+03  0.19688839888E+03  0.25500000000E-02 0. -1.
<mgrwt>
<rscale>  0 0.14926959E+03</rscale>
<asrwt>0</asrwt>
<pdfrwt beam="1">  1       11 0.10000000E+01 0.14328294E+03</pdfrwt>
<pdfrwt beam="2">  1        2 0.56775225E-02 0.14926959E+03</pdfrwt>
<totfact> 0.15649531E+03</totfact>
</mgrwt>
</event>
<event>
 5    1  0.1851087E-003  0.3044964E+03  0.7818608E-02  0.1083014E+00
         11   -1    0    0    0    0  0.00000000000E+00  0.00000000000E+00  0.10002187157E+04  0.10002187157E+04  0.51100000000E-03 0. -1.
          2   -1    0    0  501    0 -0.00000000000E+00 -0.00000000000E+00 -0.25108830902E+03  0.25108830903E+03  0.25500000000E-02 0. -1.
         11    1    1    2    0    0 -0.28333300718E+02 -0.29845346989E+03  0.87265037086E+03  0.92271117874E+03  0.51100000000E-03 0. -1.
         22    1    1    2    0    0  0.12167382981E+02  0.44354825835E+02 -0.39057350264E+02  0.60339641970E+02  0.00000000000E+00 0.  1.
          2    1    1    2  501    0  0.16165917737E+02  0.25409864405E+03 -0.84462613960E+02  0.26825620397E+03  0.25500000000E-02 0. -1.
<mgrwt>
<rscale>  0 0.30449638E+03</rscale>
<asrwt>0</asrwt>
<pdfrwt beam="1">  1       11 0.10000000E+01 0.29979535E+03</pdfrwt>
<pdfrwt beam="2">  1        2 0.38637418E-01 0.30449638E+03</pdfrwt>
<totfact> 0.16466786E+02</totfact>
</mgrwt>
</event>
<event>
 5    1  0.1851087E-003  0.3384960E+03  0.7818608E-02  0.1199004E+00
         11   -1    0    0    0    0  0.00000000000E+00  0.00000000000E+00  0.10000033005E+04  0.10000033005E+04  0.51100000000E-03 0. -1.
         -2   -1    0    0    0  501 -0.00000000000E+00 -0.00000000000E+00 -0.62712071385E+03  0.62712071385E+03  0.25500000000E-02 0.  1.
         11    1    1    2    0    0 -0.20337248012E+03  0.27733446590E+03  0.90854107809E+03  0.97145337625E+03  0.51100000000E-03 0. -1.
         22    1    1    2    0    0  0.26512905321E+02 -0.62118147129E+02 -0.24056343474E+03  0.24986469235E+03  0.00000000000E+00 0.  1.
         -2    1    1    2    0  501  0.17685957480E+03 -0.21521631877E+03 -0.29509505674E+03  0.40580594572E+03  0.25500000000E-02 0.  1.
<mgrwt>
<rscale>  0 0.15120148E+03</rscale>
<asrwt>0</asrwt>
<pdfrwt beam="1">  1       11 0.10000000E+01 0.33849603E+03</pdfrwt>
<pdfrwt beam="2">  1       -2 0.96480425E-01 0.15120148E+03</pdfrwt>
<totfact> 0.77003048E+00</totfact>
</mgrwt>
</event>
<event>
 5    1  0.1851087E-003  0.8719884E+02  0.7818608E-02  0.1718015E+00
         11   -1    0    0    0    0  0.00000000000E+00  0.00000000000E+00  0.10002231442E+04  0.10002231442E+04  0.51100000000E-03 0. -1.
          2   -1    0    0  501    0 -0.00000000000E+00 -0.00000000000E+00 -0.10248742902E+02  0.10248743219E+02  0.25500000000E-02 0. -1.
         11    1    1    2    0    0 -0.20152403169E+02  0.87440702019E+02  0.54046046482E+03  0.54785902361E+03  0.51100000000E-03 0. -1.
         22    1    1    2    0    0  0.38475271017E+02 -0.76296272633E+02  0.39262857439E+03  0.40181919457E+03  0.00000000000E+00 0. -1.
          2    1    1    2  501    0 -0.18322867848E+02 -0.11144429386E+02  0.56885362090E+02  0.60793669235E+02  0.25500000000E-02 0. -1.
<mgrwt>
<rscale>  0 0.21445881E+02</rscale>
<asrwt>0</asrwt>
<pdfrwt beam="1">  1       11 0.10000000E+01 0.87198841E+02</pdfrwt>
<pdfrwt beam="2">  1        2 0.15770815E-02 0.21445881E+02</pdfrwt>
<totfact> 0.64308480E+03</totfact>
</mgrwt>
</event>
<event>
 5    1  0.1851087E-003  0.1173862E+03  0.7818608E-02  0.1307189E+00
         11   -1    0    0    0    0  0.00000000000E+00  0.00000000000E+00  0.10002731359E+04  0.10002731359E+04  0.51100000000E-03 0. -1.
          2   -1    0    0  501    0 -0.00000000000E+00 -0.00000000000E+00 -0.29639997679E+02  0.29639997789E+02  0.25500000000E-02 0.  1.
         11    1    1    2    0    0 -0.10770247904E+03 -0.77448018762E+02  0.73421271025E+03  0.74610074621E+03  0.51100000000E-03 0. -1.
         22    1    1    2    0    0  0.64775945431E+02  0.14224460656E+02  0.17030443989E+03  0.18276175922E+03  0.00000000000E+00 0. -1.
          2    1    1    2  501    0  0.42926533605E+02  0.63223558106E+02  0.66115988106E+02  0.10105062828E+03  0.25500000000E-02 0.  1.
<mgrwt>
<rscale>  0 0.88232530E+02</rscale>
<asrwt>0</asrwt>
<pdfrwt beam="1">  1       11 0.10000000E+01 0.11738621E+03</pdfrwt>
<pdfrwt beam="2">  1        2 0.45612450E-02 0.88232530E+02</pdfrwt>
<totfact> 0.19878132E+03</totfact>
</mgrwt>
</event>
<event>
 5    1  0.1851087E-003  0.1977291E+03  0.7818608E-02  0.1151669E+00
         11   -1    0    0    0    0  0.00000000000E+00  0.00000000000E+00  0.10001967622E+04  0.10001967622E+04  0.51100000000E-03 0.  1.
          2   -1    0    0  501    0 -0.00000000000E+00 -0.00000000000E+00 -0.69102372236E+02  0.69102372284E+02  0.25500000000E-02 0. -1.
         11    1    1    2    0    0  0.11197580214E+03  0.15676453987E+03  0.82035431182E+03  0.84267128712E+03  0.51100000000E-03 0.  1.
         22    1    1    2    0    0 -0.77761805846E+01 -0.35283426977E+02  0.99021062124E+01  0.37462526759E+02  0.00000000000E+00 0.  1.
          2    1    1    2  501    0 -0.10419962156E+03 -0.12148111289E+03  0.10083797190E+03  0.18916532057E+03  0.25500000000E-02 0. -1.
<mgrwt>
<rscale>  0 0.19772915E+03</rscale>
<asrwt>0</asrwt>
<pdfrwt beam="1">  1       11 0.10000000E+01 0.19264917E+03</pdfrwt>
<pdfrwt beam="2">  1        2 0.10633226E-01 0.19772915E+03</pdfrwt>
<totfact> 0.71954798E+02</totfact>
</mgrwt>
</event>
<event>
 5    1  0.1851087E-003  0.8500805E+02  0.7818608E-02  0.1315411E+00
         11   -1    0    0    0    0  0.00000000000E+00  0.00000000000E+00  0.10002139468E+04  0.10002139468E+04  0.51100000000E-03 0.  1.
          2   -1    0    0  501    0 -0.00000000000E+00 -0.00000000000E+00 -0.69179167168E+01  0.69179171867E+01  0.25500000000E-02 0.  1.
         11    1    1    2    0    0 -0.54203969136E+01  0.81165581924E+02  0.47982270579E+03  0.48666935530E+03  0.51100000000E-03 0.  1.
         22    1    1    2    0    0  0.14286961412E+02 -0.32183367553E+02  0.20750947493E+03  0.21047581476E+03  0.00000000000E+00 0. -1.
          2    1    1    2  501    0 -0.88665644986E+01 -0.48982214371E+02  0.30596384939E+03  0.30998669396E+03  0.25500000000E-02 0.  1.
<mgrwt>
<rscale>  0 0.85008048E+02</rscale>
<asrwt>0</asrwt>
<pdfrwt beam="1">  1       11 0.10000000E+01 0.81346414E+02</pdfrwt>
<pdfrwt beam="2">  1        2 0.10645226E-02 0.85008048E+02</pdfrwt>
<totfact> 0.13868794E+04</totfact>
</mgrwt>
</event>
<event>
 5    1  0.1851087E-003  0.1626499E+03  0.7818608E-02  0.1185737E+00
         11   -1    0    0    0    0  0.00000000000E+00  0.00000000000E+00  0.10002456719E+04  0.10002456719E+04  0.51100000000E-03 0. -1.
         -2   -1    0    0    0  501 -0.00000000000E+00 -0.00000000000E+00 -0.30254057033E+02  0.30254057140E+02  0.25500000000E-02 0.  1.
         11    1    1    2    0    0 -0.15452320682E+03  0.41472027911E+02  0.67435344749E+03  0.69307281196E+03  0.51100000000E-03 0. -1.
         22    1    1    2    0    0  0.12299191359E+02 -0.11011380591E+02  0.40612469495E+02  0.43839403384E+02  0.00000000000E+00 0.  1.
         -2    1    1    2    0  501  0.14222401546E+03 -0.30460647320E+02  0.25502569791E+03  0.29358751371E+03  0.25500000000E-02 0.  1.
<mgrwt>
<rscale>  0 0.16264993E+03</rscale>
<asrwt>0</asrwt>
<pdfrwt beam="1">  1       11 0.10000000E+01 0.15999172E+03</pdfrwt>
<pdfrwt beam="2">  1       -2 0.46556137E-02 0.16264993E+03</pdfrwt>
<totfact> 0.16704374E+03</totfact>
</mgrwt>
</event>
<event>
 5    1  0.1851087E-003  0.1397902E+03  0.7818608E-02  0.1213612E+00
         11   -1    0    0    0    0  0.00000000000E+00  0.00000000000E+00  0.10002602453E+04  0.10002602453E+04  0.51100000000E-03 0. -1.
          2   -1    0    0  501    0 -0.00000000000E+00 -0.00000000000E+00 -0.39390779532E+02  0.39390779615E+02  0.25500000000E-02 0. -1.
         11    1    1    2    0    0  0.84682957872E+02 -0.15236403069E+03  0.28207980989E+03  0.33159466272E+03  0.51100000000E-03 0. -1.
         22    1    1    2    0    0 -0.71846419361E+02  0.42126357243E+02  0.38729522461E+03  0.39614912464E+03  0.00000000000E+00 0. -1.
          2    1    1    2  501    0 -0.12836538512E+02  0.11023767344E+03  0.29149443128E+03  0.31190723755E+03  0.25500000000E-02 0. -1.
<mgrwt>
<rscale>  0 0.13979018E+03</rscale>
<asrwt>0</asrwt>
<pdfrwt beam="1">  1       11 0.10000000E+01 0.83285881E+02</pdfrwt>
<pdfrwt beam="2">  1        2 0.60616969E-02 0.13979018E+03</pdfrwt>
<totfact> 0.14309443E+03</totfact>
</mgrwt>
</event>
<event>
 5    1  0.1851087E-003  0.8631325E+02  0.7818608E-02  0.1515439E+00
         11   -1    0    0    0    0  0.00000000000E+00  0.00000000000E+00  0.10003345351E+04  0.10003345351E+04  0.51100000000E-03 0. -1.
          2   -1    0    0  501    0 -0.00000000000E+00 -0.00000000000E+00 -0.10871052891E+02  0.10871053190E+02  0.25500000000E-02 0. -1.
         11    1    1    2    0    0 -0.88084317068E+02  0.42067491218E+02  0.41681268691E+03  0.42809033708E+03  0.51100000000E-03 0. -1.
         22    1    1    2    0    0  0.17118761366E+02 -0.43101578249E+01  0.32221782816E+02  0.36740614298E+02  0.00000000000E+00 0. -1.
          2    1    1    2  501    0  0.70965555702E+02 -0.37757333393E+02  0.54042901245E+03  0.54637463688E+03  0.25500000000E-02 0. -1.
<mgrwt>
<rscale>  0 0.39034467E+02</rscale>
<asrwt>0</asrwt>
<pdfrwt beam="1">  1       11 0.10000000E+01 0.86313251E+02</pdfrwt>
<pdfrwt beam="2">  1        2 0.16730292E-02 0.39034467E+02</pdfrwt>
<totfact> 0.66559488E+03</totfact>
</mgrwt>
</event>
<event>
 5    1  0.1851087E-003  0.1799451E+03  0.7818608E-02  0.1167856E+00
         11   -1    0    0    0    0  0.00000000000E+00  0.00000000000E+00  0.10002701191E+04  0.10002701191E+04  0.51100000000E-03 0. -1.
          2   -1    0    0  501    0 -0.00000000000E+00 -0.00000000000E+00 -0.24597531455E+03  0.24597531456E+03  0.25500000000E-02 0. -1.
         11    1    1    2    0    0  0.15089362777E+03  0.70684190102E+02  0.95918730611E+03  0.97355299283E+03  0.51100000000E-03 0. -1.
         22    1    1    2    0    0 -0.98171732391E+02 -0.89074600537E+01 -0.11794401044E+03  0.15371343951E+03  0.00000000000E+00 0. -1.
          2    1    1    2  501    0 -0.52721895381E+02 -0.61776730049E+02 -0.86948491153E+02  0.11897900129E+03  0.25500000000E-02 0. -1.
<mgrwt>
<rscale>  0 0.17994508E+03</rscale>
<asrwt>0</asrwt>
<pdfrwt beam="1">  1       11 0.10000000E+01 0.16662875E+03</pdfrwt>
<pdfrwt beam="2">  1        2 0.37852577E-01 0.17994508E+03</pdfrwt>
<totfact> 0.16766370E+02</totfact>
</mgrwt>
</event>
<event>
 5    1  0.1851087E-003  0.1013781E+03  0.7818608E-02  0.1734763E+00
         11   -1    0    0    0    0  0.00000000000E+00  0.00000000000E+00  0.99982427907E+03  0.99982427907E+03  0.51100000000E-03 0. -1.
          2   -1    0    0  501    0 -0.00000000000E+00 -0.00000000000E+00 -0.28309294176E+02  0.28309294291E+02  0.25500000000E-02 0. -1.
         11    1    1    2    0    0 -0.62255500153E+02  0.82584654285E+02  0.44077897825E+03  0.45274946725E+03  0.51100000000E-03 0. -1.
         22    1    1    2    0    0  0.41919533937E+02 -0.85485695350E+02  0.80503006424E+02  0.12468273930E+03  0.00000000000E+00 0. -1.
          2    1    1    2  501    0  0.20335966216E+02  0.29010410646E+01  0.45023300022E+03  0.45070136682E+03  0.25500000000E-02 0. -1.
<mgrwt>
<rscale>  0 0.20541849E+02</rscale>
<asrwt>0</asrwt>
<pdfrwt beam="1">  1       11 0.10000000E+01 0.10137806E+03</pdfrwt>
<pdfrwt beam="2">  1        2 0.43545106E-02 0.20541849E+02</pdfrwt>
<totfact> 0.17738209E+03</totfact>
</mgrwt>
</event>
<event>
 5    1  0.1851087E-003  0.6873901E+03  0.7818608E-02  0.1147944E+00
         11   -1    0    0    0    0  0.00000000000E+00  0.00000000000E+00  0.10012379076E+04  0.10012379076E+04  0.51100000000E-03 0. -1.
          2   -1    0    0  501    0 -0.00000000000E+00 -0.00000000000E+00 -0.11545374915E+04  0.11545374915E+04  0.25500000000E-02 0. -1.
         11    1    1    2    0    0 -0.59530482741E+03  0.35795960700E+03  0.73391146745E+03  0.10105191536E+04  0.51100000000E-03 0. -1.
         22    1    1    2    0    0  0.55034372604E+02 -0.22469221949E+02 -0.77518756476E+01  0.59947807958E+02  0.00000000000E+00 0. -1.
          2    1    1    2  501    0  0.54027045481E+03 -0.33549038505E+03 -0.87945917574E+03  0.10853084375E+04  0.25500000000E-02 0. -1.
<mgrwt>
<rscale>  0 0.20214242E+03</rscale>
<asrwt>0</asrwt>
<pdfrwt beam="1">  1       11 0.10000000E+01 0.68739013E+03</pdfrwt>
<pdfrwt beam="2">  1        2 0.17784103E+00 0.20214242E+03</pdfrwt>
<totfact> 0.26971190E+01</totfact>
</mgrwt>
</event>
<event>
 5    1  0.1851087E-003  0.5745167E+02  0.7818608E-02  0.1408848E+00
         11   -1    0    0    0    0  0.00000000000E+00  0.00000000000E+00  0.10002358103E+04  0.10002358103E+04  0.51100000000E-03 0. -1.
          2   -1    0    0  501    0 -0.00000000000E+00 -0.00000000000E+00 -0.81663210321E+01  0.81663214302E+01  0.25500000000E-02 0. -1.
         11    1    1    2    0    0  0.57296003450E+02 -0.26617921594E+02  0.15222504379E+03  0.16481447060E+03  0.51100000000E-03 0. -1.
         22    1    1    2    0    0 -0.31569782763E+02  0.29739672671E+01  0.17665304717E+03  0.17947644620E+03  0.00000000000E+00 0. -1.
          2    1    1    2  501    0 -0.25726220688E+02  0.23643954327E+02  0.66319139832E+03  0.66411121495E+03  0.25500000000E-02 0. -1.
<mgrwt>
<rscale>  0 0.57451669E+02</rscale>
<asrwt>0</asrwt>
<pdfrwt beam="1">  1       11 0.10000000E+01 0.31709552E+02</pdfrwt>
<pdfrwt beam="2">  1        2 0.12566533E-02 0.57451669E+02</pdfrwt>
<totfact> 0.10394206E+04</totfact>
</mgrwt>
</event>
<event>
 5    1  0.1851087E-003  0.1677015E+03  0.7818608E-02  0.1258678E+00
         11   -1    0    0    0    0  0.00000000000E+00  0.00000000000E+00  0.10003547803E+04  0.10003547803E+04  0.51100000000E-03 0. -1.
          2   -1    0    0  501    0 -0.00000000000E+00 -0.00000000000E+00 -0.52159646340E+02  0.52159646403E+02  0.25500000000E-02 0. -1.
         11    1    1    2    0    0  0.18510298962E+03 -0.44165817407E+02  0.56390263188E+03  0.59514696877E+03  0.51100000000E-03 0. -1.
         22    1    1    2    0    0 -0.61090765638E+02 -0.40880307785E+02  0.44851484606E+02  0.86110027768E+02  0.00000000000E+00 0. -1.
          2    1    1    2  501    0 -0.12401222398E+03  0.85046125192E+02  0.33944101751E+03  0.37125743020E+03  0.25500000000E-02 0. -1.
<mgrwt>
<rscale>  0 0.11102809E+03</rscale>
<asrwt>0</asrwt>
<pdfrwt beam="1">  1       11 0.10000000E+01 0.16770150E+03</pdfrwt>
<pdfrwt beam="2">  1        2 0.80274077E-02 0.11102809E+03</pdfrwt>
<totfact> 0.98594105E+02</totfact>
</mgrwt>
</event>
<event>
 5    1  0.1851087E-003  0.1296612E+03  0.7818608E-02  0.1227959E+00
         11   -1    0    0    0    0  0.00000000000E+00  0.00000000000E+00  0.10002614019E+04  0.10002614019E+04  0.51100000000E-03 0. -1.
          2   -1    0    0  501    0 -0.00000000000E+00 -0.00000000000E+00 -0.20051963242E+02  0.20051963404E+02  0.25500000000E-02 0. -1.
         11    1    1    2    0    0 -0.85021588234E+02  0.86708261321E+02  0.71345421264E+03  0.72371534914E+03  0.51100000000E-03 0. -1.
         22    1    1    2    0    0  0.53180139616E+02 -0.59336970672E+02  0.12071444808E+03  0.14464087014E+03  0.00000000000E+00 0. -1.
          2    1    1    2  501    0  0.31841448618E+02 -0.27371290649E+02  0.14604077790E+03  0.15195714599E+03  0.25500000000E-02 0. -1.
<mgrwt>
<rscale>  0 0.12966122E+03</rscale>
<asrwt>0</asrwt>
<pdfrwt beam="1">  1       11 0.10000000E+01 0.12143720E+03</pdfrwt>
<pdfrwt beam="2">  1        2 0.30857237E-02 0.12966122E+03</pdfrwt>
<totfact> 0.34578723E+03</totfact>
</mgrwt>
</event>
<event>
 5    1  0.2256522E-003  0.2385666E+03  0.7818608E-02  0.1120751E+00
         11   -1    0    0    0    0  0.00000000000E+00  0.00000000000E+00  0.10004417070E+04  0.10004417070E+04  0.51100000000E-03 0. -1.
          2   -1    0    0  501    0 -0.00000000000E+00 -0.00000000000E+00 -0.58740904055E+03  0.58740904055E+03  0.25500000000E-02 0.  1.
         11    1    1    2    0    0  0.23525976713E+03 -0.73219844049E+01  0.96142302566E+03  0.98981564130E+03  0.51100000000E-03 0. -1.
         22    1    1    2    0    0 -0.28914158615E+02 -0.37713799918E+01 -0.10289441264E+03  0.10694630442E+03  0.00000000000E+00 0.  1.
          2    1    1    2  501    0 -0.20634560852E+03  0.11093364397E+02 -0.44549594656E+03  0.49108880184E+03  0.25500000000E-02 0.  1.
<mgrwt>
<rscale>  0 0.23856656E+03</rscale>
<asrwt>0</asrwt>
<pdfrwt beam="1">  1       11 0.10000000E+01 0.23537368E+03</pdfrwt>
<pdfrwt beam="2">  1        2 0.90410536E-01 0.23856656E+03</pdfrwt>
<totfact> 0.64651037E+01</totfact>
</mgrwt>
</event>
<event>
 5    1  0.1851087E-003  0.1831763E+03  0.7818608E-02  0.1164764E+00
         11   -1    0    0    0    0  0.00000000000E+00  0.00000000000E+00  0.10003790813E+04  0.10003790813E+04  0.51100000000E-03 0. -1.
         -2   -1    0    0    0  501 -0.00000000000E+00 -0.00000000000E+00 -0.51503312399E+02  0.51503312462E+02  0.25500000000E-02 0.  1.
         11    1    1    2    0    0  0.83347201002E+02  0.15975857785E+03  0.78720487128E+03  0.80756490047E+03  0.51100000000E-03 0. -1.
         22    1    1    2    0    0 -0.14569659541E+02 -0.28584310438E+02  0.13480373383E+02  0.34800262196E+02  0.00000000000E+00 0.  1.
         -2    1    1    2    0  501 -0.68777541462E+02 -0.13117426741E+03  0.14819052420E+03  0.20951723106E+03  0.25500000000E-02 0.  1.
<mgrwt>
<rscale>  0 0.18317630E+03</rscale>
<asrwt>0</asrwt>
<pdfrwt beam="1">  1       11 0.10000000E+01 0.18019312E+03</pdfrwt>
<pdfrwt beam="2">  1       -2 0.79265900E-02 0.18317630E+03</pdfrwt>
<totfact> 0.74775938E+02</totfact>
</mgrwt>
</event>
<event>
 5    1  0.1851087E-003  0.2702219E+03  0.7818608E-02  0.1101153E+00
         11   -1    0    0    0    0  0.00000000000E+00  0.00000000000E+00  0.99977259073E+03  0.99977259073E+03  0.51100000000E-03 0.  1.
          2   -1    0    0  501    0 -0.00000000000E+00 -0.00000000000E+00 -0.92352600926E+03  0.92352600927E+03  0.25500000000E-02 0.  1.
         11    1    1    2    0    0  0.13958696558E+03  0.19467002914E+03  0.96504487402E+03  0.99433020173E+03  0.51100000000E-03 0.  1.
         22    1    1    2    0    0 -0.12457715205E+03 -0.72071957036E+02 -0.41128873922E+03  0.43574334282E+03  0.00000000000E+00 0.  1.
          2    1    1    2  501    0 -0.15009813526E+02 -0.12259807211E+03 -0.47750955333E+03  0.49322505544E+03  0.25500000000E-02 0.  1.
<mgrwt>
<rscale>  0 0.27022191E+03</rscale>
<asrwt>0</asrwt>
<pdfrwt beam="1">  1       11 0.10000000E+01 0.23954319E+03</pdfrwt>
<pdfrwt beam="2">  1        2 0.14204861E+00 0.27022191E+03</pdfrwt>
<totfact> 0.36695224E+01</totfact>
</mgrwt>
</event>
<event>
 5    1  0.1851087E-003  0.1444191E+03  0.7818608E-02  0.1207503E+00
         11   -1    0    0    0    0  0.00000000000E+00  0.00000000000E+00  0.10002259247E+04  0.10002259247E+04  0.51100000000E-03 0. -1.
          2   -1    0    0  501    0 -0.00000000000E+00 -0.00000000000E+00 -0.19925195360E+02  0.19925195524E+02  0.25500000000E-02 0. -1.
         11    1    1    2    0    0  0.11778138137E+03  0.71655249711E+02  0.46822436511E+03  0.48809935945E+03  0.51100000000E-03 0. -1.
         22    1    1    2    0    0 -0.11997637327E+02 -0.25420945201E+02  0.12525421275E+03  0.12836972217E+03  0.00000000000E+00 0. -1.
          2    1    1    2  501    0 -0.10578374405E+03 -0.46234304510E+02  0.38682215145E+03  0.40368203858E+03  0.25500000000E-02 0. -1.
<mgrwt>
<rscale>  0 0.14441909E+03</rscale>
<asrwt>0</asrwt>
<pdfrwt beam="1">  1       11 0.10000000E+01 0.13786569E+03</pdfrwt>
<pdfrwt beam="2">  1        2 0.30661071E-02 0.14441909E+03</pdfrwt>
<totfact> 0.35255560E+03</totfact>
</mgrwt>
</event>
<event>
 5    1  0.2613751E-003  0.1732038E+03  0.7818608E-02  0.1174547E+00
         11   -1    0    0    0    0  0.00000000000E+00  0.00000000000E+00  0.10004085016E+04  0.10004085016E+04  0.51100000000E-03 0.  1.
          2   -1    0    0  501    0 -0.00000000000E+00 -0.00000000000E+00 -0.69065238777E+03  0.69065238778E+03  0.25500000000E-02 0.  1.
         11    1    1    2    0    0  0.99685630234E+02  0.13545612397E+03  0.98228892323E+03  0.99658271864E+03  0.51100000000E-03 0.  1.
         22    1    1    2    0    0 -0.27297895215E+02 -0.16292929309E+02 -0.88608733060E+02  0.94138951572E+02  0.00000000000E+00 0. -1.
          2    1    1    2  501    0 -0.72387735019E+02 -0.11916319466E+03 -0.58392407634E+03  0.60033921917E+03  0.25500000000E-02 0.  1.
<mgrwt>
<rscale>  0 0.17320378E+03</rscale>
<asrwt>0</asrwt>
<pdfrwt beam="1">  1       11 0.10000000E+01 0.16818319E+03</pdfrwt>
<pdfrwt beam="2">  1        2 0.10629762E+00 0.17320378E+03</pdfrwt>
<totfact> 0.53900276E+01</totfact>
</mgrwt>
</event>
<event>
 5    1  0.1851087E-003  0.8780972E+02  0.7818608E-02  0.1457937E+00
         11   -1    0    0    0    0  0.00000000000E+00  0.00000000000E+00  0.10003225224E+04  0.10003225224E+04  0.51100000000E-03 0.  1.
          2   -1    0    0  501    0 -0.00000000000E+00 -0.00000000000E+00 -0.47474745152E+02  0.47474745220E+02  0.25500000000E-02 0.  1.
         11    1    1    2    0    0 -0.10191969260E+02  0.87560994300E+02  0.52163063268E+03  0.52902676767E+03  0.51100000000E-03 0.  1.
         22    1    1    2    0    0  0.56704177145E+02 -0.76811642991E+02  0.11291365100E+02  0.96139935149E+02  0.00000000000E+00 0.  1.
          2    1    1    2  501    0 -0.46512207885E+02 -0.10749351309E+02  0.41992577945E+03  0.42263056479E+03  0.25500000000E-02 0.  1.
<mgrwt>
<rscale>  0 0.47738182E+02</rscale>
<asrwt>0</asrwt>
<pdfrwt beam="1">  1       11 0.10000000E+01 0.87809720E+02</pdfrwt>
<pdfrwt beam="2">  1        2 0.73061624E-02 0.47738182E+02</pdfrwt>
<totfact> 0.10364147E+03</totfact>
</mgrwt>
</event>
<event>
 5    1  0.1851087E-003  0.1857925E+03  0.7818608E-02  0.1162312E+00
         11   -1    0    0    0    0  0.00000000000E+00  0.00000000000E+00  0.99992612669E+03  0.99992612669E+03  0.51100000000E-03 0. -1.
          2   -1    0    0  501    0 -0.00000000000E+00 -0.00000000000E+00 -0.83198585884E+02  0.83198585923E+02  0.25500000000E-02 0.  1.
         11    1    1    2    0    0 -0.27395463259E+02 -0.18045908531E+03  0.87350403108E+03  0.89237059857E+03  0.51100000000E-03 0. -1.
         22    1    1    2    0    0  0.55321023469E+01  0.20279839653E+02 -0.58247274225E+01  0.21812920535E+02  0.00000000000E+00 0.  1.
          2    1    1    2  501    0  0.21863360912E+02  0.16017924566E+03  0.49048237154E+02  0.16894119351E+03  0.25500000000E-02 0.  1.
<mgrwt>
<rscale>  0 0.18579252E+03</rscale>
<asrwt>0</asrwt>
<pdfrwt beam="1">  1       11 0.10000000E+01 0.18252669E+03</pdfrwt>
<pdfrwt beam="2">  1        2 0.12798837E-01 0.18579252E+03</pdfrwt>
<totfact> 0.57248684E+02</totfact>
</mgrwt>
</event>
<event>
 5    1  0.1851087E-003  0.1055195E+03  0.7818608E-02  0.1446929E+00
         11   -1    0    0    0    0  0.00000000000E+00  0.00000000000E+00  0.10002392886E+04  0.10002392886E+04  0.51100000000E-03 0. -1.
          2   -1    0    0  501    0 -0.00000000000E+00 -0.00000000000E+00 -0.21825618843E+02  0.21825618991E+02  0.25500000000E-02 0. -1.
         11    1    1    2    0    0 -0.12046203510E+03 -0.17852311822E+02  0.37534277507E+03  0.39460360583E+03  0.51100000000E-03 0. -1.
         22    1    1    2    0    0  0.23415409670E+02  0.12885106769E-01  0.87372783163E+01  0.24992431023E+02  0.00000000000E+00 0. -1.
          2    1    1    2  501    0  0.97046625428E+02  0.17839426715E+02  0.59433361638E+03  0.60246887074E+03  0.25500000000E-02 0. -1.
<mgrwt>
<rscale>  0 0.49706945E+02</rscale>
<asrwt>0</asrwt>
<pdfrwt beam="1">  1       11 0.10000000E+01 0.10551946E+03</pdfrwt>
<pdfrwt beam="2">  1        2 0.33585909E-02 0.49706945E+02</pdfrwt>
<totfact> 0.27745410E+03</totfact>
</mgrwt>
</event>
<event>
 5    1  0.1851087E-003  0.1444050E+03  0.7818608E-02  0.1207522E+00
         11   -1    0    0    0    0  0.00000000000E+00  0.00000000000E+00  0.10001696839E+04  0.10001696839E+04  0.51100000000E-03 0. -1.
          2   -1    0    0  501    0 -0.00000000000E+00 -0.00000000000E+00 -0.20747876220E+02  0.20747876377E+02  0.25500000000E-02 0. -1.
         11    1    1    2    0    0 -0.35284779396E+02 -0.13567889574E+03  0.56206506674E+03  0.57928483292E+03  0.51100000000E-03 0. -1.
         22    1    1    2    0    0  0.63055061383E+01  0.18031731712E+02  0.28285389247E+02  0.34131598279E+02  0.00000000000E+00 0. -1.
          2    1    1    2  501    0  0.28979273258E+02  0.11764716402E+03  0.38907135165E+03  0.40750112903E+03  0.25500000000E-02 0. -1.
<mgrwt>
<rscale>  0 0.14440504E+03</rscale>
<asrwt>0</asrwt>
<pdfrwt beam="1">  1       11 0.10000000E+01 0.14019193E+03</pdfrwt>
<pdfrwt beam="2">  1        2 0.31925225E-02 0.14440504E+03</pdfrwt>
<totfact> 0.33391965E+03</totfact>
</mgrwt>
</event>
<event>
 5    1  0.1851087E-003  0.2573601E+03  0.7818608E-02  0.1108740E+00
         11   -1    0    0    0    0  0.00000000000E+00  0.00000000000E+00  0.99986416197E+03  0.99986416197E+03  0.51100000000E-03 0. -1.
          2   -1    0    0  501    0 -0.00000000000E+00 -0.00000000000E+00 -0.88379193733E+02  0.88379193769E+02  0.25500000000E-02 0. -1.
         11    1    1    2    0    0  0.24450560712E+03 -0.62211226752E+02  0.73258344167E+03  0.77481076894E+03  0.51100000000E-03 0. -1.
         22    1    1    2    0    0 -0.18055624818E+03  0.22498336129E+02  0.13105059962E+03  0.22423423812E+03  0.00000000000E+00 0. -1.
          2    1    1    2  501    0 -0.63949358942E+02  0.39712890623E+02  0.47850926943E+02  0.89198348676E+02  0.25500000000E-02 0. -1.
<mgrwt>
<rscale>  0 0.25736012E+03</rscale>
<asrwt>0</asrwt>
<pdfrwt beam="1">  1       11 0.10000000E+01 0.25229591E+03</pdfrwt>
<pdfrwt beam="2">  1        2 0.13594952E-01 0.25736012E+03</pdfrwt>
<totfact> 0.53951773E+02</totfact>
</mgrwt>
</event>
<event>
 5    1  0.1851087E-003  0.5418247E+03  0.7818608E-02  0.1210004E+00
         11   -1    0    0    0    0  0.00000000000E+00  0.00000000000E+00  0.10006766025E+04  0.10006766025E+04  0.51100000000E-03 0.  1.
          2   -1    0    0  501    0 -0.00000000000E+00 -0.00000000000E+00 -0.27085762584E+04  0.27085762584E+04  0.25500000000E-02 0.  1.
         11    1    1    2    0    0  0.53978560376E+03 -0.46934775325E+02  0.89282657198E+03  0.10443709393E+04  0.51100000000E-03 0.  1.
         22    1    1    2    0    0 -0.32025412198E+01 -0.37340361773E+02 -0.14071063115E+03  0.14561607262E+03  0.00000000000E+00 0. -1.
          2    1    1    2  501    0 -0.53658306254E+03  0.84275137098E+02 -0.24600155967E+04  0.25192658490E+04  0.25500000000E-02 0.  1.
<mgrwt>
<rscale>  0 0.14249984E+03</rscale>
<asrwt>0</asrwt>
<pdfrwt beam="1">  1       11 0.10000000E+01 0.54182470E+03</pdfrwt>
<pdfrwt beam="2">  1        2 0.41698597E+00 0.14249984E+03</pdfrwt>
<totfact> 0.41899855E+00</totfact>
</mgrwt>
</event>
<event>
 5    1  0.1851087E-003  0.3331323E+02  0.7818608E-02  0.1617905E+00
         11   -1    0    0    0    0  0.00000000000E+00  0.00000000000E+00  0.10008336161E+04  0.10008336161E+04  0.51100000000E-03 0.  1.
          2   -1    0    0  501    0 -0.00000000000E+00 -0.00000000000E+00 -0.65821679704E+01  0.65821684643E+01  0.25500000000E-02 0.  1.
         11    1    1    2    0    0  0.27612369667E+02  0.38695205183E+02  0.10756111627E+03  0.11759743023E+03  0.51100000000E-03 0.  1.
         22    1    1    2    0    0 -0.23160694042E+02 -0.63261404803E+01  0.11716331729E+03  0.11959799631E+03  0.00000000000E+00 0.  1.
          2    1    1    2  501    0 -0.44516756245E+01 -0.32369064703E+02  0.76952701457E+03  0.77022035804E+03  0.25500000000E-02 0.  1.
<mgrwt>
<rscale>  0 0.28281105E+02</rscale>
<asrwt>0</asrwt>
<pdfrwt beam="1">  1       11 0.10000000E+01 0.33313230E+02</pdfrwt>
<pdfrwt beam="2">  1        2 0.10134854E-02 0.28281105E+02</pdfrwt>
<totfact> 0.12104570E+04</totfact>
</mgrwt>
</event>
<event>
 5    1  0.1851087E-003  0.1437032E+03  0.7818608E-02  0.1208431E+00
         11   -1    0    0    0    0  0.00000000000E+00  0.00000000000E+00  0.10003753080E+04  0.10003753080E+04  0.51100000000E-03 0.  1.
          2   -1    0    0  501    0 -0.00000000000E+00 -0.00000000000E+00 -0.36874866820E+02  0.36874866908E+02  0.25500000000E-02 0.  1.
         11    1    1    2    0    0  0.58297721723E+01  0.13722860070E+03  0.82939942469E+03  0.84069559340E+03  0.51100000000E-03 0.  1.
         22    1    1    2    0    0 -0.23377640925E+01 -0.22802269908E+02  0.40183577452E+01  0.23271352622E+02  0.00000000000E+00 0.  1.
          2    1    1    2  501    0 -0.34920080798E+01 -0.11442633079E+03  0.13008265873E+03  0.17328322887E+03  0.25500000000E-02 0.  1.
<mgrwt>
<rscale>  0 0.14370324E+03</rscale>
<asrwt>0</asrwt>
<pdfrwt beam="1">  1       11 0.10000000E+01 0.13735238E+03</pdfrwt>
<pdfrwt beam="2">  1        2 0.56751854E-02 0.14370324E+03</pdfrwt>
<totfact> 0.15612709E+03</totfact>
</mgrwt>
</event>
<event>
 5    1  0.1851087E-003  0.1750398E+03  0.7818608E-02  0.1244546E+00
         11   -1    0    0    0    0  0.00000000000E+00  0.00000000000E+00  0.99998452775E+03  0.99998452775E+03  0.51100000000E-03 0. -1.
         -2   -1    0    0    0  501 -0.00000000000E+00 -0.00000000000E+00 -0.12374338023E+03  0.12374338025E+03  0.25500000000E-02 0. -1.
         11    1    1    2    0    0  0.51375272184E+02  0.17464284560E+03  0.87310284200E+03  0.89187897992E+03  0.51100000000E-03 0. -1.
         22    1    1    2    0    0 -0.41397379860E+02 -0.69707144169E+02  0.69925613333E+02  0.10706269382E+03  0.00000000000E+00 0. -1.
         -2    1    1    2    0  501 -0.99778923240E+01 -0.10493570143E+03 -0.66787307813E+02  0.12478623426E+03  0.25500000000E-02 0. -1.
<mgrwt>
<rscale>  0 0.11912596E+03</rscale>
<asrwt>0</asrwt>
<pdfrwt beam="1">  1       11 0.10000000E+01 0.17503975E+03</pdfrwt>
<pdfrwt beam="2">  1       -2 0.19037148E-01 0.11912596E+03</pdfrwt>
<totfact> 0.17885457E+02</totfact>
</mgrwt>
</event>
<event>
 5    1  0.1851087E-003  0.1005293E+03  0.7818608E-02  0.1279187E+00
         11   -1    0    0    0    0  0.00000000000E+00  0.00000000000E+00  0.10000652407E+04  0.10000652407E+04  0.51100000000E-03 0.  1.
          2   -1    0    0  501    0 -0.00000000000E+00 -0.00000000000E+00 -0.99415806946E+01  0.99415810216E+01  0.25500000000E-02 0.  1.
         11    1    1    2    0    0  0.51868017577E+02  0.83977480161E+02  0.46861270790E+03  0.47889495553E+03  0.51100000000E-03 0.  1.
         22    1    1    2    0    0 -0.12703771231E+02 -0.23531528443E+02  0.10115249911E+03  0.10462765748E+03  0.00000000000E+00 0. -1.
          2    1    1    2  501    0 -0.39164246346E+02 -0.60445951718E+02  0.42035845304E+03  0.42648420875E+03  0.25500000000E-02 0.  1.
<mgrwt>
<rscale>  0 0.10052931E+03</rscale>
<asrwt>0</asrwt>
<pdfrwt beam="1">  1       11 0.10000000E+01 0.98704195E+02</pdfrwt>
<pdfrwt beam="2">  1        2 0.15295737E-02 0.10052931E+03</pdfrwt>
<totfact> 0.86711368E+03</totfact>
</mgrwt>
</event>
<event>
 5    1  0.1851087E-003  0.1960826E+03  0.7818608E-02  0.1153087E+00
         11   -1    0    0    0    0  0.00000000000E+00  0.00000000000E+00  0.10001400852E+04  0.10001400852E+04  0.51100000000E-03 0. -1.
          2   -1    0    0  501    0 -0.00000000000E+00 -0.00000000000E+00 -0.10423224724E+03  0.10423224727E+03  0.25500000000E-02 0. -1.
         11    1    1    2    0    0 -0.12019480738E+03  0.14690047452E+03  0.88807640941E+03  0.90813338783E+03  0.51100000000E-03 0. -1.
         22    1    1    2    0    0  0.10775850111E+02 -0.45081206547E+02  0.62114823180E+01  0.46765549734E+02  0.00000000000E+00 0. -1.
          2    1    1    2  501    0  0.10941895726E+03 -0.10181926798E+03  0.16199461909E+01  0.14947339486E+03  0.25500000000E-02 0. -1.
<mgrwt>
<rscale>  0 0.19608262E+03</rscale>
<asrwt>0</asrwt>
<pdfrwt beam="1">  1       11 0.10000000E+01 0.18980659E+03</pdfrwt>
<pdfrwt beam="2">  1        2 0.16037976E-01 0.19608262E+03</pdfrwt>
<totfact> 0.43880492E+02</totfact>
</mgrwt>
</event>
<event>
 5    1  0.1851087E-003  0.5789915E+03  0.7818608E-02  0.1026385E+00
         11   -1    0    0    0    0  0.00000000000E+00  0.00000000000E+00  0.99981732725E+03  0.99981732725E+03  0.51100000000E-03 0. -1.
          2   -1    0    0  501    0 -0.00000000000E+00 -0.00000000000E+00 -0.71297214526E+03  0.71297214527E+03  0.25500000000E-02 0. -1.
         11    1    1    2    0    0  0.38356498668E+03 -0.48783158475E+03  0.45613875915E+03  0.77017161834E+03  0.51100000000E-03 0. -1.
         22    1    1    2    0    0  0.15712024545E+03  0.32033445299E+03 -0.11063226970E+03  0.37355111083E+03  0.00000000000E+00 0. -1.
          2    1    1    2  501    0 -0.54068523213E+03  0.16749713176E+03 -0.58661307461E+02  0.56906674336E+03  0.25500000000E-02 0. -1.
<mgrwt>
<rscale>  0 0.45451059E+03</rscale>
<asrwt>0</asrwt>
<pdfrwt beam="1">  1       11 0.10000000E+01 0.57899154E+03</pdfrwt>
<pdfrwt beam="2">  1        2 0.10966798E+00 0.45451059E+03</pdfrwt>
<totfact> 0.50402126E+01</totfact>
</mgrwt>
</event>
<event>
 5    1  0.1851087E-003  0.1102059E+03  0.7818608E-02  0.1260189E+00
         11   -1    0    0    0    0  0.00000000000E+00  0.00000000000E+00  0.10001574688E+04  0.10001574688E+04  0.51100000000E-03 0. -1.
          2   -1    0    0  501    0 -0.00000000000E+00 -0.00000000000E+00 -0.12107433934E+02  0.12107434202E+02  0.25500000000E-02 0. -1.
         11    1    1    2    0    0 -0.68530720596E+01  0.10718852495E+03  0.41217929095E+03  0.42594379015E+03  0.51100000000E-03 0. -1.
         22    1    1    2    0    0 -0.89526546188E+01 -0.26696384210E+02  0.15196164449E+03  0.15454833661E+03  0.00000000000E+00 0. -1.
          2    1    1    2  501    0  0.15805726678E+02 -0.80492140743E+02  0.42390909945E+03  0.43177277626E+03  0.25500000000E-02 0. -1.
<mgrwt>
<rscale>  0 0.11020587E+03</rscale>
<asrwt>0</asrwt>
<pdfrwt beam="1">  1       11 0.10000000E+01 0.10740743E+03</pdfrwt>
<pdfrwt beam="2">  1        2 0.18629754E-02 0.11020587E+03</pdfrwt>
<totfact> 0.67114495E+03</totfact>
</mgrwt>
</event>
<event>
 5    1  0.1851087E-003  0.1128726E+03  0.7818608E-02  0.1416782E+00
         11   -1    0    0    0    0  0.00000000000E+00  0.00000000000E+00  0.10003511543E+04  0.10003511543E+04  0.51100000000E-03 0. -1.
          2   -1    0    0  501    0 -0.00000000000E+00 -0.00000000000E+00 -0.16403647854E+02  0.16403648052E+02  0.25500000000E-02 0. -1.
         11    1    1    2    0    0  0.11852359016E+03 -0.11443808461E+02  0.45204912940E+03  0.46746894824E+03  0.51100000000E-03 0. -1.
         22    1    1    2    0    0 -0.10504187463E+02  0.25408503459E+02  0.86560283302E+02  0.90821873179E+02  0.00000000000E+00 0. -1.
          2    1    1    2  501    0 -0.10801940270E+03 -0.13964694998E+02  0.44533809370E+03  0.45846398089E+03  0.25500000000E-02 0. -1.
<mgrwt>
<rscale>  0 0.55707601E+02</rscale>
<asrwt>0</asrwt>
<pdfrwt beam="1">  1       11 0.10000000E+01 0.11287255E+03</pdfrwt>
<pdfrwt beam="2">  1        2 0.25245243E-02 0.55707601E+02</pdfrwt>
<totfact> 0.40873751E+03</totfact>
</mgrwt>
</event>
<event>
 5    1  0.1851087E-003  0.4794283E+02  0.7818608E-02  0.1559681E+00
         11   -1    0    0    0    0  0.00000000000E+00  0.00000000000E+00  0.10002239165E+04  0.10002239165E+04  0.51100000000E-03 0. -1.
          2   -1    0    0  501    0 -0.00000000000E+00 -0.00000000000E+00 -0.42869629457E+01  0.42869637041E+01  0.25500000000E-02 0. -1.
         11    1    1    2    0    0  0.45241670365E+02  0.21855262231E+02  0.28027826579E+03  0.28474614571E+03  0.51100000000E-03 0. -1.
         22    1    1    2    0    0 -0.16312146940E+02  0.17338007418E+02  0.13643648894E+03  0.13849768285E+03  0.00000000000E+00 0.  1.
          2    1    1    2  501    0 -0.28929523426E+02 -0.39193269649E+02  0.57922219884E+03  0.58126705166E+03  0.25500000000E-02 0. -1.
<mgrwt>
<rscale>  0 0.33783032E+02</rscale>
<asrwt>0</asrwt>
<pdfrwt beam="1">  1       11 0.10000000E+01 0.47942830E+02</pdfrwt>
<pdfrwt beam="2">  1        2 0.65968048E-03 0.33783032E+02</pdfrwt>
<totfact> 0.22203112E+04</totfact>
</mgrwt>
</event>
<event>
 5    1  0.1851087E-003  0.1203336E+03  0.7818608E-02  0.1543111E+00
         11   -1    0    0    0    0  0.00000000000E+00  0.00000000000E+00  0.10002846382E+04  0.10002846382E+04  0.51100000000E-03 0. -1.
         -2   -1    0    0    0  501 -0.00000000000E+00 -0.00000000000E+00 -0.20916200542E+02  0.20916200698E+02  0.25500000000E-02 0.  1.
         11    1    1    2    0    0 -0.12264231780E+03 -0.42201440643E+02  0.38405126347E+03  0.40536091657E+03  0.51100000000E-03 0. -1.
         22    1    1    2    0    0  0.11418216752E+03  0.75946081870E+01  0.35748297473E+03  0.37535226478E+03  0.00000000000E+00 0.  1.
         -2    1    1    2    0  501  0.84601502830E+01  0.34606832456E+02  0.23783419947E+03  0.24048765756E+03  0.25500000000E-02 0.  1.
<mgrwt>
<rscale>  0 0.35625932E+02</rscale>
<asrwt>0</asrwt>
<pdfrwt beam="1">  1       11 0.10000000E+01 0.12033365E+03</pdfrwt>
<pdfrwt beam="2">  1       -2 0.32187929E-02 0.35625932E+02</pdfrwt>
<totfact> 0.24084208E+03</totfact>
</mgrwt>
</event>
<event>
 5    1  0.1851087E-003  0.3024566E+02  0.7818608E-02  0.1651537E+00
         11   -1    0    0    0    0  0.00000000000E+00  0.00000000000E+00  0.10005961414E+04  0.10005961414E+04  0.51100000000E-03 0. -1.
          2   -1    0    0  501    0 -0.00000000000E+00 -0.00000000000E+00 -0.57545890280E+01  0.57545895930E+01  0.25500000000E-02 0. -1.
         11    1    1    2    0    0 -0.42013984703E+02 -0.15510333474E+02  0.13676365204E+03  0.14390983939E+03  0.51100000000E-03 0. -1.
         22    1    1    2    0    0  0.21151865497E+02 -0.52328502160E+01  0.60221445663E+02  0.64042225548E+02  0.00000000000E+00 0. -1.
          2    1    1    2  501    0  0.20862119206E+02  0.20743183690E+02  0.79785645463E+03  0.79839866601E+03  0.25500000000E-02 0. -1.
<mgrwt>
<rscale>  0 0.25671750E+02</rscale>
<asrwt>0</asrwt>
<pdfrwt beam="1">  1       11 0.10000000E+01 0.30245660E+02</pdfrwt>
<pdfrwt beam="2">  1        2 0.88584918E-03 0.25671750E+02</pdfrwt>
<totfact> 0.14140694E+04</totfact>
</mgrwt>
</event>
<event>
 5    1  0.1851087E-003  0.1269900E+03  0.7818608E-02  0.1231992E+00
         11   -1    0    0    0    0  0.00000000000E+00  0.00000000000E+00  0.99995892808E+03  0.99995892808E+03  0.51100000000E-03 0.  1.
          2   -1    0    0  501    0 -0.00000000000E+00 -0.00000000000E+00 -0.25757385035E+02  0.25757385161E+02  0.25500000000E-02 0.  1.
         11    1    1    2    0    0  0.19421890952E+02  0.52594865209E+02  0.21226129303E+03  0.21954108092E+03  0.51100000000E-03 0.  1.
         22    1    1    2    0    0 -0.82896006694E+02 -0.12472418641E+03  0.31187036767E+03  0.34596386637E+03  0.00000000000E+00 0.  1.
          2    1    1    2  501    0  0.63474115743E+02  0.72129321206E+02  0.45006988235E+03  0.46021136595E+03  0.25500000000E-02 0.  1.
<mgrwt>
<rscale>  0 0.12699001E+03</rscale>
<asrwt>0</asrwt>
<pdfrwt beam="1">  1       11 0.10000000E+01 0.56066297E+02</pdfrwt>
<pdfrwt beam="2">  1        2 0.39625118E-02 0.12699001E+03</pdfrwt>
<totfact> 0.24732689E+03</totfact>
</mgrwt>
</event>
<event>
 5    1  0.1851087E-003  0.2551845E+02  0.7818608E-02  0.1667580E+00
         11   -1    0    0    0    0  0.00000000000E+00  0.00000000000E+00  0.10000594661E+04  0.10000594661E+04  0.51100000000E-03 0. -1.
          2   -1    0    0  501    0 -0.00000000000E+00 -0.00000000000E+00 -0.64769410087E+01  0.64769415107E+01  0.25500000000E-02 0. -1.
         11    1    1    2    0    0 -0.45642931013E+02  0.23225982720E+01  0.10376562946E+03  0.11338420292E+03  0.51100000000E-03 0. -1.
         22    1    1    2    0    0  0.22600304805E+02  0.68463179608E+01  0.93059360373E+02  0.96008803762E+02  0.00000000000E+00 0. -1.
          2    1    1    2  501    0  0.23042626208E+02 -0.91689162328E+01  0.79675753525E+03  0.79714340092E+03  0.25500000000E-02 0. -1.
<mgrwt>
<rscale>  0 0.24548030E+02</rscale>
<asrwt>0</asrwt>
<pdfrwt beam="1">  1       11 0.10000000E+01 0.25518449E+02</pdfrwt>
<pdfrwt beam="2">  1        2 0.99651173E-03 0.24548030E+02</pdfrwt>
<totfact> 0.12001554E+04</totfact>
</mgrwt>
</event>
<event>
 5    1  0.1851087E-003  0.1075813E+03  0.7818608E-02  0.1460797E+00
         11   -1    0    0    0    0  0.00000000000E+00  0.00000000000E+00  0.10000226721E+04  0.10000226721E+04  0.51100000000E-03 0.  1.
          2   -1    0    0  501    0 -0.00000000000E+00 -0.00000000000E+00 -0.20738167114E+02  0.20738167270E+02  0.25500000000E-02 0.  1.
         11    1    1    2    0    0 -0.10436505961E+03  0.67300189063E+02  0.30389088933E+03  0.32828501905E+03  0.51100000000E-03 0.  1.
         22    1    1    2    0    0  0.99206946750E+02 -0.20338142118E+02  0.37697787343E+03  0.39034340697E+03  0.00000000000E+00 0.  1.
          2    1    1    2  501    0  0.51581128602E+01 -0.46962046945E+02  0.29841574218E+03  0.30213241331E+03  0.25500000000E-02 0.  1.
<mgrwt>
<rscale>  0 0.47244470E+02</rscale>
<asrwt>0</asrwt>
<pdfrwt beam="1">  1       11 0.10000000E+01 0.10758126E+03</pdfrwt>
<pdfrwt beam="2">  1        2 0.31905595E-02 0.47244470E+02</pdfrwt>
<totfact> 0.29458176E+03</totfact>
</mgrwt>
</event>
<event>
 5    1  0.1851087E-003  0.3752048E+03  0.7818608E-02  0.1052720E+00
         11   -1    0    0    0    0  0.00000000000E+00  0.00000000000E+00  0.10003424614E+04  0.10003424614E+04  0.51100000000E-03 0.  1.
          2   -1    0    0  501    0 -0.00000000000E+00 -0.00000000000E+00 -0.77290277987E+03  0.77290277988E+03  0.25500000000E-02 0.  1.
         11    1    1    2    0    0 -0.16366797151E+03 -0.29798768698E+02  0.75254086135E+03  0.77070936125E+03  0.51100000000E-03 0.  1.
         22    1    1    2    0    0  0.22358841299E+03 -0.33857918021E+03 -0.66332801014E+02  0.41112976076E+03  0.00000000000E+00 0.  1.
          2    1    1    2  501    0 -0.59920441479E+02  0.36837794891E+03 -0.45876837879E+03  0.59140611929E+03  0.25500000000E-02 0.  1.
<mgrwt>
<rscale>  0 0.37520481E+03</rscale>
<asrwt>0</asrwt>
<pdfrwt beam="1">  1       11 0.10000000E+01 0.16635856E+03</pdfrwt>
<pdfrwt beam="2">  1        2 0.11894884E+00 0.37520481E+03</pdfrwt>
<totfact> 0.45770193E+01</totfact>
</mgrwt>
</event>
<event>
 5    1  0.1851087E-003  0.1572804E+03  0.7818608E-02  0.1191802E+00
         11   -1    0    0    0    0  0.00000000000E+00  0.00000000000E+00  0.10004410157E+04  0.10004410157E+04  0.51100000000E-03 0.  1.
          2   -1    0    0  501    0 -0.00000000000E+00 -0.00000000000E+00 -0.24345822283E+02  0.24345822417E+02  0.25500000000E-02 0.  1.
         11    1    1    2    0    0  0.17628196819E+02  0.14415038518E+03  0.59596019131E+03  0.61339924722E+03  0.51100000000E-03 0.  1.
         22    1    1    2    0    0  0.22289335041E+02 -0.45180248565E+02  0.13135863776E+03  0.14068816948E+03  0.00000000000E+00 0.  1.
          2    1    1    2  501    0 -0.39917531860E+02 -0.98970136612E+02  0.24877636438E+03  0.27069942144E+03  0.25500000000E-02 0.  1.
<mgrwt>
<rscale>  0 0.15728042E+03</rscale>
<asrwt>0</asrwt>
<pdfrwt beam="1">  1       11 0.10000000E+01 0.14522426E+03</pdfrwt>
<pdfrwt beam="2">  1        2 0.37471629E-02 0.15728042E+03</pdfrwt>
<totfact> 0.27164695E+03</totfact>
</mgrwt>
</event>
<event>
 5    1  0.1851087E-003  0.1914449E+03  0.7818608E-02  0.1157165E+00
         11   -1    0    0    0    0  0.00000000000E+00  0.00000000000E+00  0.10003345334E+04  0.10003345334E+04  0.51100000000E-03 0. -1.
         -2   -1    0    0    0  501 -0.00000000000E+00 -0.00000000000E+00 -0.78205704777E+02  0.78205704818E+02  0.25500000000E-02 0.  1.
         11    1    1    2    0    0  0.18081135675E+03 -0.51325344371E+02  0.85538968452E+03  0.87579595231E+03  0.51100000000E-03 0. -1.
         22    1    1    2    0    0 -0.20133007324E+02 -0.34277670800E+01  0.14811528030E+02  0.25228335927E+02  0.00000000000E+00 0.  1.
         -2    1    1    2    0  501 -0.16067834943E+03  0.54753111451E+02  0.51927616111E+02  0.17751595002E+03  0.25500000000E-02 0.  1.
<mgrwt>
<rscale>  0 0.19144485E+03</rscale>
<asrwt>0</asrwt>
<pdfrwt beam="1">  1       11 0.10000000E+01 0.18795488E+03</pdfrwt>
<pdfrwt beam="2">  1       -2 0.12035672E-01 0.19144485E+03</pdfrwt>
<totfact> 0.38735957E+02</totfact>
</mgrwt>
</event>
<event>
 5    1  0.1851087E-003  0.2119952E+03  0.7818608E-02  0.1139996E+00
         11   -1    0    0    0    0  0.00000000000E+00  0.00000000000E+00  0.10003751595E+04  0.10003751595E+04  0.51100000000E-03 0. -1.
          2   -1    0    0  501    0 -0.00000000000E+00 -0.00000000000E+00 -0.12575873683E+03  0.12575873685E+03  0.25500000000E-02 0. -1.
         11    1    1    2    0    0 -0.20900713473E+03 -0.10920439753E+02  0.88933329567E+03  0.91362845247E+03  0.51100000000E-03 0. -1.
         22    1    1    2    0    0  0.12946154871E+02 -0.20798285812E+01 -0.90502823595E+01  0.15932238501E+02  0.00000000000E+00 0.  1.
          2    1    1    2  501    0  0.19606097986E+03  0.13000268334E+02 -0.56665906842E+01  0.19657320534E+03  0.25500000000E-02 0. -1.
<mgrwt>
<rscale>  0 0.21199523E+03</rscale>
<asrwt>0</asrwt>
<pdfrwt beam="1">  1       11 0.10000000E+01 0.20929223E+03</pdfrwt>
<pdfrwt beam="2">  1        2 0.19354756E-01 0.21199523E+03</pdfrwt>
<totfact> 0.35363275E+02</totfact>
</mgrwt>
</event>
<event>
 5    1  0.1851087E-003  0.1968677E+03  0.7818608E-02  0.1152409E+00
         11   -1    0    0    0    0  0.00000000000E+00  0.00000000000E+00  0.10002675644E+04  0.10002675644E+04  0.51100000000E-03 0. -1.
          2   -1    0    0  501    0 -0.00000000000E+00 -0.00000000000E+00 -0.39347175129E+02  0.39347175211E+02  0.25500000000E-02 0. -1.
         11    1    1    2    0    0  0.13307087013E+03  0.14179883607E+03  0.39174588223E+03  0.43735523620E+03  0.51100000000E-03 0. -1.
         22    1    1    2    0    0 -0.12530838374E+02 -0.38481672151E+01  0.50895956162E+02  0.52556908727E+02  0.00000000000E+00 0. -1.
          2    1    1    2  501    0 -0.12054003175E+03 -0.13795066885E+03  0.51827855083E+03  0.54970259464E+03  0.25500000000E-02 0. -1.
<mgrwt>
<rscale>  0 0.19686770E+03</rscale>
<asrwt>0</asrwt>
<pdfrwt beam="1">  1       11 0.10000000E+01 0.19446029E+03</pdfrwt>
<pdfrwt beam="2">  1        2 0.60550311E-02 0.19686770E+03</pdfrwt>
<totfact> 0.14684515E+03</totfact>
</mgrwt>
</event>
<event>
 5    1  0.1851087E-003  0.7194297E+02  0.7818608E-02  0.1470909E+00
         11   -1    0    0    0    0  0.00000000000E+00  0.00000000000E+00  0.10002081092E+04  0.10002081092E+04  0.51100000000E-03 0.  1.
          2   -1    0    0  501    0 -0.00000000000E+00 -0.00000000000E+00 -0.10750948066E+02  0.10750948369E+02  0.25500000000E-02 0.  1.
         11    1    1    2    0    0 -0.41703589724E+02  0.32848977112E+02  0.15974708084E+03  0.16833708602E+03  0.51100000000E-03 0.  1.
         22    1    1    2    0    0  0.59310316404E+02 -0.74863469297E+02  0.43928105865E+03  0.44954432613E+03  0.00000000000E+00 0.  1.
          2    1    1    2  501    0 -0.17606726680E+02  0.42014492185E+02  0.39042902162E+03  0.39307764539E+03  0.25500000000E-02 0.  1.
<mgrwt>
<rscale>  0 0.45554521E+02</rscale>
<asrwt>0</asrwt>
<pdfrwt beam="1">  1       11 0.10000000E+01 0.71942969E+02</pdfrwt>
<pdfrwt beam="2">  1        2 0.16543362E-02 0.45554521E+02</pdfrwt>
<totfact> 0.69314887E+03</totfact>
</mgrwt>
</event>
<event>
 5    1  0.1851087E-003  0.1432956E+03  0.7818608E-02  0.1208962E+00
         11   -1    0    0    0    0  0.00000000000E+00  0.00000000000E+00  0.10003577416E+04  0.10003577416E+04  0.51100000000E-03 0. -1.
          2   -1    0    0  501    0 -0.00000000000E+00 -0.00000000000E+00 -0.31400123438E+02  0.31400123541E+02  0.25500000000E-02 0. -1.
         11    1    1    2    0    0 -0.75944752749E+02  0.11556382180E+03  0.79236214666E+03  0.80433846970E+03  0.51100000000E-03 0. -1.
         22    1    1    2    0    0 -0.16294966978E+01 -0.12065104270E+02  0.67163222029E+01  0.13904351278E+02  0.00000000000E+00 0. -1.
          2    1    1    2  501    0  0.77574249447E+02 -0.10349871753E+03  0.16987914925E+03  0.21351504412E+03  0.25500000000E-02 0. -1.
<mgrwt>
<rscale>  0 0.14329557E+03</rscale>
<asrwt>0</asrwt>
<pdfrwt beam="1">  1       11 0.10000000E+01 0.13828450E+03</pdfrwt>
<pdfrwt beam="2">  1        2 0.48325163E-02 0.14329557E+03</pdfrwt>
<totfact> 0.19246342E+03</totfact>
</mgrwt>
</event>
<event>
 5    1  0.1851087E-003  0.2324296E+03  0.7818608E-02  0.1124941E+00
         11   -1    0    0    0    0  0.00000000000E+00  0.00000000000E+00  0.10001461606E+04  0.10001461606E+04  0.51100000000E-03 0. -1.
         -2   -1    0    0    0  501 -0.00000000000E+00 -0.00000000000E+00 -0.25042713505E+03  0.25042713506E+03  0.25500000000E-02 0.  1.
         11    1    1    2    0    0  0.93940321543E+02 -0.20403751508E+03  0.92979804787E+03  0.95654613135E+03  0.51100000000E-03 0. -1.
         22    1    1    2    0    0 -0.57701882054E+02  0.14708948810E+03 -0.91242488224E+02  0.18245551885E+03  0.00000000000E+00 0.  1.
         -2    1    1    2    0  501 -0.36238439488E+02  0.56948026974E+02 -0.88836534102E+02  0.11157164546E+03  0.25500000000E-02 0.  1.
<mgrwt>
<rscale>  0 0.23242960E+03</rscale>
<asrwt>0</asrwt>
<pdfrwt beam="1">  1       11 0.10000000E+01 0.22462433E+03</pdfrwt>
<pdfrwt beam="2">  1       -2 0.38532882E-01 0.23242960E+03</pdfrwt>
<totfact> 0.51688031E+01</totfact>
</mgrwt>
</event>
<event>
 5    1  0.1851087E-003  0.1695579E+03  0.7818608E-02  0.1178310E+00
         11   -1    0    0    0    0  0.00000000000E+00  0.00000000000E+00  0.10002229960E+04  0.10002229960E+04  0.51100000000E-03 0. -1.
          2   -1    0    0  501    0 -0.00000000000E+00 -0.00000000000E+00 -0.42544087482E+02  0.42544087558E+02  0.25500000000E-02 0. -1.
         11    1    1    2    0    0 -0.15614534706E+03  0.20108945803E+02  0.78547715701E+03  0.80109930926E+03  0.51100000000E-03 0. -1.
         22    1    1    2    0    0  0.51962420451E+02  0.19001169029E+02  0.37002795058E+02  0.66560832369E+02  0.00000000000E+00 0.  1.
          2    1    1    2  501    0  0.10418292661E+03 -0.39110114832E+02  0.13519895642E+03  0.17510694190E+03  0.25500000000E-02 0. -1.
<mgrwt>
<rscale>  0 0.16955787E+03</rscale>
<asrwt>0</asrwt>
<pdfrwt beam="1">  1       11 0.10000000E+01 0.15743487E+03</pdfrwt>
<pdfrwt beam="2">  1        2 0.65467036E-02 0.16955787E+03</pdfrwt>
<totfact> 0.13139170E+03</totfact>
</mgrwt>
</event>
<event>
 5    1  0.1851087E-003  0.2535168E+03  0.7818608E-02  0.1220615E+00
         11   -1    0    0    0    0  0.00000000000E+00  0.00000000000E+00  0.10002444271E+04  0.10002444271E+04  0.51100000000E-03 0.  1.
          2   -1    0    0  501    0 -0.00000000000E+00 -0.00000000000E+00 -0.61158998280E+03  0.61158998280E+03  0.25500000000E-02 0.  1.
         11    1    1    2    0    0  0.25067300630E+03  0.46374882308E+02  0.94048915936E+03  0.97442672617E+03  0.51100000000E-03 0.  1.
         22    1    1    2    0    0 -0.55129756609E+02  0.45672592948E+02 -0.40449952912E+02  0.82228185562E+02  0.00000000000E+00 0.  1.
          2    1    1    2  501    0 -0.19554324969E+03 -0.92047475256E+02 -0.51138476216E+03  0.55517949816E+03  0.25500000000E-02 0.  1.
<mgrwt>
<rscale>  0 0.13472018E+03</rscale>
<asrwt>0</asrwt>
<pdfrwt beam="1">  1       11 0.10000000E+01 0.25351677E+03</pdfrwt>
<pdfrwt beam="2">  1        2 0.94113762E-01 0.13472018E+03</pdfrwt>
<totfact> 0.62549243E+01</totfact>
</mgrwt>
</event>
<event>
 5    1  0.1851087E-003  0.2228020E+03  0.7818608E-02  0.1131811E+00
         11   -1    0    0    0    0  0.00000000000E+00  0.00000000000E+00  0.99989832170E+03  0.99989832170E+03  0.51100000000E-03 0. -1.
          2   -1    0    0  501    0 -0.00000000000E+00 -0.00000000000E+00 -0.57943348551E+02  0.57943348607E+02  0.25500000000E-02 0.  1.
         11    1    1    2    0    0  0.90490662436E+02 -0.19463058206E+03  0.68451369079E+03  0.71737620279E+03  0.51100000000E-03 0. -1.
         22    1    1    2    0    0 -0.76674967338E+02  0.10631391769E+03  0.12842052975E+03  0.18350349362E+03  0.00000000000E+00 0.  1.
          2    1    1    2  501    0 -0.13815695098E+02  0.88316664371E+02  0.12902075261E+03  0.15696197389E+03  0.25500000000E-02 0.  1.
<mgrwt>
<rscale>  0 0.22280198E+03</rscale>
<asrwt>0</asrwt>
<pdfrwt beam="1">  1       11 0.10000000E+01 0.21463836E+03</pdfrwt>
<pdfrwt beam="2">  1        2 0.89134547E-02 0.22280198E+03</pdfrwt>
<totfact> 0.90182357E+02</totfact>
</mgrwt>
</event>
<event>
 5    1  0.1851087E-003  0.3601457E+03  0.7818608E-02  0.1058526E+00
         11   -1    0    0    0    0  0.00000000000E+00  0.00000000000E+00  0.10002623957E+04  0.10002623957E+04  0.51100000000E-03 0. -1.
          2   -1    0    0  501    0 -0.00000000000E+00 -0.00000000000E+00 -0.65851512770E+03  0.65851512771E+03  0.25500000000E-02 0. -1.
         11    1    1    2    0    0  0.10361273591E+03  0.33747151564E+03  0.91558610704E+03  0.98128514832E+03  0.51100000000E-03 0. -1.
         22    1    1    2    0    0 -0.59897261397E+02 -0.11559651938E+03 -0.25866883373E+03  0.28958557071E+03  0.00000000000E+00 0. -1.
          2    1    1    2  501    0 -0.43715474513E+02 -0.22187499626E+03 -0.31517000527E+03  0.38790680441E+03  0.25500000000E-02 0. -1.
<mgrwt>
<rscale>  0 0.36014567E+03</rscale>
<asrwt>0</asrwt>
<pdfrwt beam="1">  1       11 0.10000000E+01 0.35301930E+03</pdfrwt>
<pdfrwt beam="2">  1        2 0.10133660E+00 0.36014567E+03</pdfrwt>
<totfact> 0.55917444E+01</totfact>
</mgrwt>
</event>
<event>
 5    1  0.1851087E-003  0.2276040E+03  0.7818608E-02  0.1128338E+00
         11   -1    0    0    0    0  0.00000000000E+00  0.00000000000E+00  0.10000846768E+04  0.10000846768E+04  0.51100000000E-03 0. -1.
          2   -1    0    0  501    0 -0.00000000000E+00 -0.00000000000E+00 -0.21272490966E+03  0.21272490967E+03  0.25500000000E-02 0. -1.
         11    1    1    2    0    0 -0.22279825378E+03  0.19819129236E+02  0.92174295695E+03  0.94849456428E+03  0.51100000000E-03 0. -1.
         22    1    1    2    0    0  0.35951428666E+02 -0.18732071345E+02 -0.19638211594E+02  0.45045033851E+02  0.00000000000E+00 0.  1.
          2    1    1    2  501    0  0.18684682512E+03 -0.10870578909E+01 -0.11474497822E+03  0.21926998834E+03  0.25500000000E-02 0. -1.
<mgrwt>
<rscale>  0 0.22760402E+03</rscale>
<asrwt>0</asrwt>
<pdfrwt beam="1">  1       11 0.10000000E+01 0.22367803E+03</pdfrwt>
<pdfrwt beam="2">  1        2 0.32729679E-01 0.22760402E+03</pdfrwt>
<totfact> 0.19681376E+02</totfact>
</mgrwt>
</event>
<event>
 5    1  0.3629138E-003  0.1806277E+03  0.7818608E-02  0.1167197E+00
         11   -1    0    0    0    0  0.00000000000E+00  0.00000000000E+00  0.10002777902E+04  0.10002777902E+04  0.51100000000E-03 0.  1.
          2   -1    0    0  501    0 -0.00000000000E+00 -0.00000000000E+00 -0.25465503871E+03  0.25465503873E+03  0.25500000000E-02 0.  1.
         11    1    1    2    0    0  0.15754882263E+03 -0.85455922919E+02  0.95886448498E+03  0.97547190981E+03  0.51100000000E-03 0.  1.
         22    1    1    2    0    0 -0.60760219951E+01  0.88606138528E+01 -0.15514762809E+02  0.18871576144E+02  0.00000000000E+00 0.  1.
          2    1    1    2  501    0 -0.15147280064E+03  0.76595309066E+02 -0.19772697071E+03  0.26058934295E+03  0.25500000000E-02 0.  1.
<mgrwt>
<rscale>  0 0.18062771E+03</rscale>
<asrwt>0</asrwt>
<pdfrwt beam="1">  1       11 0.10000000E+01 0.17923266E+03</pdfrwt>
<pdfrwt beam="2">  1        2 0.39188580E-01 0.18062771E+03</pdfrwt>
<totfact> 0.16153161E+02</totfact>
</mgrwt>
</event>
<event>
 5    1  0.1851087E-003  0.2054190E+03  0.7818608E-02  0.1145246E+00
         11   -1    0    0    0    0  0.00000000000E+00  0.00000000000E+00  0.10003154819E+04  0.10003154819E+04  0.51100000000E-03 0. -1.
          2   -1    0    0  501    0 -0.00000000000E+00 -0.00000000000E+00 -0.74153676346E+02  0.74153676389E+02  0.25500000000E-02 0. -1.
         11    1    1    2    0    0  0.14126976865E+03  0.14073393687E+03  0.81870982899E+03  0.84264403671E+03  0.51100000000E-03 0. -1.
         22    1    1    2    0    0 -0.24832608276E+01 -0.21893113060E+02  0.17667009315E+02  0.28241781140E+02  0.00000000000E+00 0.  1.
          2    1    1    2  501    0 -0.13878650782E+03 -0.11884082381E+03  0.89784967270E+02  0.20358334046E+03  0.25500000000E-02 0. -1.
<mgrwt>
<rscale>  0 0.20541899E+03</rscale>
<asrwt>0</asrwt>
<pdfrwt beam="1">  1       11 0.10000000E+01 0.19940709E+03</pdfrwt>
<pdfrwt beam="2">  1        2 0.11411857E-01 0.20541899E+03</pdfrwt>
<totfact> 0.66096241E+02</totfact>
</mgrwt>
</event>
<event>
 5    1  0.1851087E-003  0.1781300E+03  0.7818608E-02  0.1169625E+00
         11   -1    0    0    0    0  0.00000000000E+00  0.00000000000E+00  0.99995194112E+03  0.99995194112E+03  0.51100000000E-03 0. -1.
          2   -1    0    0  501    0 -0.00000000000E+00 -0.00000000000E+00 -0.70369178567E+02  0.70369178613E+02  0.25500000000E-02 0.  1.
         11    1    1    2    0    0 -0.14657598489E+03  0.87559578616E+02  0.86367444849E+03  0.88038897774E+03  0.51100000000E-03 0. -1.
         22    1    1    2    0    0  0.24291847790E+02 -0.12982082232E+02 -0.81011719075E+01  0.28709881825E+02  0.00000000000E+00 0.  1.
          2    1    1    2  501    0  0.12228413710E+03 -0.74577496384E+02  0.74009485973E+02  0.16122226017E+03  0.25500000000E-02 0.  1.
<mgrwt>
<rscale>  0 0.17813004E+03</rscale>
<asrwt>0</asrwt>
<pdfrwt beam="1">  1       11 0.10000000E+01 0.17073722E+03</pdfrwt>
<pdfrwt beam="2">  1        2 0.10825507E-01 0.17813004E+03</pdfrwt>
<totfact> 0.70022607E+02</totfact>
</mgrwt>
</event>
<event>
 5    1  0.1851087E-003  0.1446583E+03  0.7818608E-02  0.1207195E+00
         11   -1    0    0    0    0  0.00000000000E+00  0.00000000000E+00  0.99981918497E+03  0.99981918497E+03  0.51100000000E-03 0. -1.
          2   -1    0    0  501    0 -0.00000000000E+00 -0.00000000000E+00 -0.21145191342E+02  0.21145191495E+02  0.25500000000E-02 0. -1.
         11    1    1    2    0    0 -0.34663449986E+02 -0.13598431878E+03  0.58372816372E+03  0.60035977450E+03  0.51100000000E-03 0. -1.
         22    1    1    2    0    0 -0.27562679277E+01  0.33835079889E+02  0.67414475742E+02  0.75479276518E+02  0.00000000000E+00 0. -1.
          2    1    1    2  501    0  0.37419717914E+02  0.10214923890E+03  0.32753135417E+03  0.34512532545E+03  0.25500000000E-02 0. -1.
<mgrwt>
<rscale>  0 0.14465830E+03</rscale>
<asrwt>0</asrwt>
<pdfrwt beam="1">  1       11 0.10000000E+01 0.14033278E+03</pdfrwt>
<pdfrwt beam="2">  1        2 0.32525181E-02 0.14465830E+03</pdfrwt>
<totfact> 0.32573511E+03</totfact>
</mgrwt>
</event>
<event>
 5    1  0.1851087E-003  0.2626449E+03  0.7818608E-02  0.1105564E+00
         11   -1    0    0    0    0  0.00000000000E+00  0.00000000000E+00  0.10001469013E+04  0.10001469013E+04  0.51100000000E-03 0.  1.
         -2   -1    0    0    0  501 -0.00000000000E+00 -0.00000000000E+00 -0.14978045381E+03  0.14978045384E+03  0.25500000000E-02 0. -1.
         11    1    1    2    0    0  0.24464908546E+03 -0.84731724600E+02  0.84866232012E+03  0.88727694310E+03  0.51100000000E-03 0.  1.
         22    1    1    2    0    0 -0.34007397238E+02  0.65029464147E+01 -0.14126252672E+02  0.37394416609E+02  0.00000000000E+00 0. -1.
         -2    1    1    2    0  501 -0.21064168822E+03  0.78228778185E+02  0.15830380073E+02  0.22525599546E+03  0.25500000000E-02 0. -1.
<mgrwt>
<rscale>  0 0.26264488E+03</rscale>
<asrwt>0</asrwt>
<pdfrwt beam="1">  1       11 0.10000000E+01 0.25890662E+03</pdfrwt>
<pdfrwt beam="2">  1       -2 0.23046531E-01 0.26264488E+03</pdfrwt>
<totfact> 0.13193091E+02</totfact>
</mgrwt>
</event>
<event>
 5    1  0.1851087E-003  0.1430692E+03  0.7818608E-02  0.1209258E+00
         11   -1    0    0    0    0  0.00000000000E+00  0.00000000000E+00  0.99970378230E+03  0.99970378230E+03  0.51100000000E-03 0. -1.
          2   -1    0    0  501    0 -0.00000000000E+00 -0.00000000000E+00 -0.19393949197E+02  0.19393949365E+02  0.25500000000E-02 0. -1.
         11    1    1    2    0    0  0.80474523473E+02  0.10613350955E+03  0.40873354503E+03  0.42988787098E+03  0.51100000000E-03 0. -1.
         22    1    1    2    0    0 -0.37029391252E+02 -0.38673579334E+02  0.13334118209E+03  0.14368956954E+03  0.00000000000E+00 0. -1.
          2    1    1    2  501    0 -0.43445132221E+02 -0.67459930220E+02  0.43823510598E+03  0.44552029114E+03  0.25500000000E-02 0. -1.
<mgrwt>
<rscale>  0 0.14306924E+03</rscale>
<asrwt>0</asrwt>
<pdfrwt beam="1">  1       11 0.10000000E+01 0.13319343E+03</pdfrwt>
<pdfrwt beam="2">  1        2 0.29828006E-02 0.14306924E+03</pdfrwt>
<totfact> 0.36552803E+03</totfact>
</mgrwt>
</event>
<event>
 5    1  0.1851087E-003  0.2804881E+03  0.7818608E-02  0.1095423E+00
         11   -1    0    0    0    0  0.00000000000E+00  0.00000000000E+00  0.10000349234E+04  0.10000349234E+04  0.51100000000E-03 0.  1.
         -2   -1    0    0    0  501 -0.00000000000E+00 -0.00000000000E+00 -0.17977943519E+03  0.17977943521E+03  0.25500000000E-02 0. -1.
         11    1    1    2    0    0 -0.26649474427E+03 -0.65320721636E+02  0.85428681477E+03  0.89726930589E+03  0.51100000000E-03 0.  1.
         22    1    1    2    0    0  0.75086933654E+02 -0.75022614991E+01 -0.14300182490E+02  0.76803819908E+02  0.00000000000E+00 0. -1.
         -2    1    1    2    0  501  0.19140781062E+03  0.72822983135E+02 -0.19731144041E+02  0.20574123284E+03  0.25500000000E-02 0. -1.
<mgrwt>
<rscale>  0 0.28048810E+03</rscale>
<asrwt>0</asrwt>
<pdfrwt beam="1">  1       11 0.10000000E+01 0.27438339E+03</pdfrwt>
<pdfrwt beam="2">  1       -2 0.27659340E-01 0.28048810E+03</pdfrwt>
<totfact> 0.95558609E+01</totfact>
</mgrwt>
</event>
<event>
 5    1  0.1851087E-003  0.1996279E+03  0.7818608E-02  0.1150053E+00
         11   -1    0    0    0    0  0.00000000000E+00  0.00000000000E+00  0.10000425352E+04  0.10000425352E+04  0.51100000000E-03 0. -1.
         -2   -1    0    0    0  501 -0.00000000000E+00 -0.00000000000E+00 -0.51710604549E+02  0.51710604612E+02  0.25500000000E-02 0.  1.
         11    1    1    2    0    0  0.14827909512E+03 -0.11921877270E+03  0.73650195071E+03  0.76068056976E+03  0.51100000000E-03 0. -1.
         22    1    1    2    0    0 -0.53165155815E+02  0.92644483190E+01  0.50663451345E+02  0.74021274629E+02  0.00000000000E+00 0.  1.
         -2    1    1    2    0  501 -0.95113939303E+02  0.10995432438E+03  0.16116652861E+03  0.21705129544E+03  0.25500000000E-02 0.  1.
<mgrwt>
<rscale>  0 0.19962791E+03</rscale>
<asrwt>0</asrwt>
<pdfrwt beam="1">  1       11 0.10000000E+01 0.19026247E+03</pdfrwt>
<pdfrwt beam="2">  1       -2 0.79558158E-02 0.19962791E+03</pdfrwt>
<totfact> 0.74756910E+02</totfact>
</mgrwt>
</event>
<event>
 5    1  0.1851087E-003  0.5608917E+03  0.7818608E-02  0.9990039E-01
         11   -1    0    0    0    0  0.00000000000E+00  0.00000000000E+00  0.10001510832E+04  0.10001510832E+04  0.51100000000E-03 0. -1.
          2   -1    0    0  501    0 -0.00000000000E+00 -0.00000000000E+00 -0.35811172724E+03  0.35811172725E+03  0.25500000000E-02 0. -1.
         11    1    1    2    0    0  0.30049944525E+03  0.46657495308E+03  0.56523313896E+03  0.79213673367E+03  0.51100000000E-03 0. -1.
         22    1    1    2    0    0 -0.17061751744E+02 -0.84905133297E+01  0.14307560003E+02  0.23830620269E+02  0.00000000000E+00 0. -1.
          2    1    1    2  501    0 -0.28343769351E+03 -0.45808443975E+03  0.62498657024E+02  0.54229545654E+03  0.25500000000E-02 0. -1.
<mgrwt>
<rscale>  0 0.56089174E+03</rscale>
<asrwt>0</asrwt>
<pdfrwt beam="1">  1       11 0.10000000E+01 0.55497036E+03</pdfrwt>
<pdfrwt beam="2">  1        2 0.55102434E-01 0.56089174E+03</pdfrwt>
<totfact> 0.11154976E+02</totfact>
</mgrwt>
</event>
<event>
 5    1  0.1851087E-003  0.1658248E+03  0.7818608E-02  0.1182273E+00
         11   -1    0    0    0    0  0.00000000000E+00  0.00000000000E+00  0.10004238930E+04  0.10004238930E+04  0.51100000000E-03 0. -1.
          2   -1    0    0  501    0 -0.00000000000E+00 -0.00000000000E+00 -0.56429820748E+02  0.56429820806E+02  0.25500000000E-02 0. -1.
         11    1    1    2    0    0  0.82837998645E+02  0.14385991157E+03  0.78812859890E+03  0.80542193698E+03  0.51100000000E-03 0. -1.
         22    1    1    2    0    0  0.13641235198E+02 -0.88786502103E+01  0.54781042422E+02  0.57147846295E+02  0.00000000000E+00 0. -1.
          2    1    1    2  501    0 -0.96479233843E+02 -0.13498126136E+03  0.10108443095E+03  0.19428393055E+03  0.25500000000E-02 0. -1.
<mgrwt>
<rscale>  0 0.16582481E+03</rscale>
<asrwt>0</asrwt>
<pdfrwt beam="1">  1       11 0.10000000E+01 0.16276171E+02</pdfrwt>
<pdfrwt beam="2">  1        2 0.86851907E-02 0.16582481E+03</pdfrwt>
<totfact> 0.91641968E+02</totfact>
</mgrwt>
</event>
<event>
 5    1  0.1851087E-003  0.2900194E+03  0.7818608E-02  0.1090339E+00
         11   -1    0    0    0    0  0.00000000000E+00  0.00000000000E+00  0.10001212638E+04  0.10001212638E+04  0.51100000000E-03 0. -1.
          2   -1    0    0  501    0 -0.00000000000E+00 -0.00000000000E+00 -0.42987668354E+03  0.42987668355E+03  0.25500000000E-02 0.  1.
         11    1    1    2    0    0  0.14744210087E+02 -0.28384390795E+03  0.92736734381E+03  0.96994584703E+03  0.51100000000E-03 0. -1.
         22    1    1    2    0    0  0.15262317412E+01  0.15954777768E+02 -0.40072777526E+01  0.16520974304E+02  0.00000000000E+00 0. -1.
          2    1    1    2  501    0 -0.16270441828E+02  0.26788913019E+03 -0.35311548584E+03  0.44353112596E+03  0.25500000000E-02 0.  1.
<mgrwt>
<rscale>  0 0.29001942E+03</rscale>
<asrwt>0</asrwt>
<pdfrwt beam="1">  1       11 0.10000000E+01 0.28422659E+03</pdfrwt>
<pdfrwt beam="2">  1        2 0.66142892E-01 0.29001942E+03</pdfrwt>
<totfact> 0.91656362E+01</totfact>
</mgrwt>
</event>
<event>
 5    1  0.1851087E-003  0.3767734E+02  0.7818608E-02  0.1658056E+00
         11   -1    0    0    0    0  0.00000000000E+00  0.00000000000E+00  0.10000429256E+04  0.10000429256E+04  0.51100000000E-03 0.  1.
          2   -1    0    0  501    0 -0.00000000000E+00 -0.00000000000E+00 -0.52896879523E+01  0.52896885670E+01  0.25500000000E-02 0.  1.
         11    1    1    2    0    0  0.39043751883E+02 -0.35581037998E+02  0.18672024688E+03  0.19404864189E+03  0.51100000000E-03 0.  1.
         22    1    1    2    0    0 -0.14590450352E+02  0.29465821122E+02  0.19651703632E+03  0.19924874258E+03  0.00000000000E+00 0. -1.
          2    1    1    2  501    0 -0.24453301531E+02  0.61152168765E+01  0.61151595449E+03  0.61203522974E+03  0.25500000000E-02 0.  1.
<mgrwt>
<rscale>  0 0.25206345E+02</rscale>
<asrwt>0</asrwt>
<pdfrwt beam="1">  1       11 0.10000000E+01 0.37677336E+02</pdfrwt>
<pdfrwt beam="2">  1        2 0.81383310E-03 0.25206345E+02</pdfrwt>
<totfact> 0.15738109E+04</totfact>
</mgrwt>
</event>
<event>
 5    1  0.1851087E-003  0.2074976E+03  0.7818608E-02  0.1238205E+00
         11   -1    0    0    0    0  0.00000000000E+00  0.00000000000E+00  0.10003335845E+04  0.10003335845E+04  0.51100000000E-03 0. -1.
          2   -1    0    0  501    0 -0.00000000000E+00 -0.00000000000E+00 -0.58694436410E+03  0.58694436411E+03  0.25500000000E-02 0. -1.
         11    1    1    2    0    0 -0.75724106374E+02 -0.19439685953E+03  0.92894333309E+03  0.95208192682E+03  0.51100000000E-03 0. -1.
         22    1    1    2    0    0  0.16333565138E+03  0.10804347442E+03 -0.46052236231E+03  0.50043258643E+03  0.00000000000E+00 0. -1.
          2    1    1    2  501    0 -0.87611545006E+02  0.86353385110E+02 -0.55031750422E+02  0.13476343532E+03  0.25500000000E-02 0. -1.
<mgrwt>
<rscale>  0 0.12301500E+03</rscale>
<asrwt>0</asrwt>
<pdfrwt beam="1">  1       11 0.10000000E+01 0.20749762E+03</pdfrwt>
<pdfrwt beam="2">  1        2 0.90329253E-01 0.12301500E+03</pdfrwt>
<totfact> 0.65667398E+01</totfact>
</mgrwt>
</event>
<event>
 5    1  0.1851087E-003  0.2528887E+03  0.7818608E-02  0.1111493E+00
         11   -1    0    0    0    0  0.00000000000E+00  0.00000000000E+00  0.10001347428E+04  0.10001347428E+04  0.51100000000E-03 0.  1.
          2   -1    0    0  501    0 -0.00000000000E+00 -0.00000000000E+00 -0.60751611729E+02  0.60751611783E+02  0.25500000000E-02 0.  1.
         11    1    1    2    0    0 -0.14902679048E+03 -0.17200223983E+03  0.56481721088E+03  0.60894354130E+03  0.51100000000E-03 0.  1.
         22    1    1    2    0    0  0.12053618724E+02  0.82728613307E+02  0.17508045798E+03  0.19401670019E+03  0.00000000000E+00 0.  1.
          2    1    1    2  501    0  0.13697317176E+03  0.89273626522E+02  0.19948546217E+03  0.25792611306E+03  0.25500000000E-02 0.  1.
<mgrwt>
<rscale>  0 0.25288867E+03</rscale>
<asrwt>0</asrwt>
<pdfrwt beam="1">  1       11 0.10000000E+01 0.22758241E+03</pdfrwt>
<pdfrwt beam="2">  1        2 0.93476609E-02 0.25288867E+03</pdfrwt>
<totfact> 0.85503756E+02</totfact>
</mgrwt>
</event>
<event>
 5    1  0.1851087E-003  0.2570836E+03  0.7818608E-02  0.1108908E+00
         11   -1    0    0    0    0  0.00000000000E+00  0.00000000000E+00  0.10002436140E+04  0.10002436140E+04  0.51100000000E-03 0.  1.
          2   -1    0    0  501    0 -0.00000000000E+00 -0.00000000000E+00 -0.22730876347E+03  0.22730876348E+03  0.25500000000E-02 0.  1.
         11    1    1    2    0    0  0.24059125358E+03 -0.76884775430E+02  0.90425732096E+03  0.93886991778E+03  0.51100000000E-03 0.  1.
         22    1    1    2    0    0 -0.25983517492E+02 -0.16798565014E+01 -0.20515441835E+01  0.26118459615E+02  0.00000000000E+00 0.  1.
          2    1    1    2  501    0 -0.21460773609E+03  0.78564631931E+02 -0.12927092623E+03  0.26256400011E+03  0.25500000000E-02 0.  1.
<mgrwt>
<rscale>  0 0.25708359E+03</rscale>
<asrwt>0</asrwt>
<pdfrwt beam="1">  1       11 0.10000000E+01 0.25257755E+03</pdfrwt>
<pdfrwt beam="2">  1        2 0.34979097E-01 0.25708359E+03</pdfrwt>
<totfact> 0.18329158E+02</totfact>
</mgrwt>
</event>
<event>
 5    1  0.1851087E-003  0.7022297E+02  0.7818608E-02  0.1519828E+00
         11   -1    0    0    0    0  0.00000000000E+00  0.00000000000E+00  0.10001969149E+04  0.10001969149E+04  0.51100000000E-03 0.  1.
          2   -1    0    0  501    0 -0.00000000000E+00 -0.00000000000E+00 -0.11384122878E+02  0.11384123164E+02  0.25500000000E-02 0.  1.
         11    1    1    2    0    0 -0.55849230560E+02 -0.65765791736E+02  0.38463501547E+03  0.39419331684E+03  0.51100000000E-03 0.  1.
         22    1    1    2    0    0  0.22616704834E+02  0.46398659417E+02  0.10778716211E+03  0.11950909274E+03  0.00000000000E+00 0.  1.
          2    1    1    2  501    0  0.33232525726E+02  0.19367132319E+02  0.49639061449E+03  0.49787862853E+03  0.25500000000E-02 0.  1.
<mgrwt>
<rscale>  0 0.38464095E+02</rscale>
<asrwt>0</asrwt>
<pdfrwt beam="1">  1       11 0.10000000E+01 0.70222969E+02</pdfrwt>
<pdfrwt beam="2">  1        2 0.17517484E-02 0.38464095E+02</pdfrwt>
<totfact> 0.62498974E+03</totfact>
</mgrwt>
</event>
<event>
 5    1  0.1851087E-003  0.1298684E+03  0.7818608E-02  0.1435545E+00
         11   -1    0    0    0    0  0.00000000000E+00  0.00000000000E+00  0.10000406819E+04  0.10000406819E+04  0.51100000000E-03 0. -1.
         -2   -1    0    0    0  501 -0.00000000000E+00 -0.00000000000E+00 -0.25870075843E+02  0.25870075969E+02  0.25500000000E-02 0. -1.
         11    1    1    2    0    0  0.11003810295E+03 -0.72893465478E+02  0.72595336639E+03  0.73785508848E+03  0.51100000000E-03 0. -1.
         22    1    1    2    0    0  0.34661701088E+01  0.20419387492E+02  0.28244377795E+02  0.35024428587E+02  0.00000000000E+00 0. -1.
         -2    1    1    2    0  501 -0.11350427305E+03  0.52474077986E+02  0.21997286190E+03  0.25303124084E+03  0.25500000000E-02 0. -1.
<mgrwt>
<rscale>  0 0.51862971E+02</rscale>
<asrwt>0</asrwt>
<pdfrwt beam="1">  1       11 0.10000000E+01 0.12986840E+03</pdfrwt>
<pdfrwt beam="2">  1       -2 0.39801735E-02 0.51862971E+02</pdfrwt>
<totfact> 0.18702602E+03</totfact>
</mgrwt>
</event>
<event>
 5    1  0.1851087E-003  0.2436469E+03  0.7818608E-02  0.1117387E+00
         11   -1    0    0    0    0  0.00000000000E+00  0.00000000000E+00  0.10007379923E+04  0.10007379923E+04  0.51100000000E-03 0. -1.
          2   -1    0    0  501    0 -0.00000000000E+00 -0.00000000000E+00 -0.77803364228E+02  0.77803364270E+02  0.25500000000E-02 0. -1.
         11    1    1    2    0    0  0.94681619816E+02  0.22197815262E+03  0.72661777900E+03  0.76564502619E+03  0.51100000000E-03 0. -1.
         22    1    1    2    0    0 -0.10229698023E+02 -0.64956363818E+01  0.11666183698E+02  0.16820816143E+02  0.00000000000E+00 0. -1.
          2    1    1    2  501    0 -0.84451921793E+02 -0.21548251624E+03  0.18465066537E+03  0.29607551423E+03  0.25500000000E-02 0. -1.
<mgrwt>
<rscale>  0 0.24364689E+03</rscale>
<asrwt>0</asrwt>
<pdfrwt beam="1">  1       11 0.10000000E+01 0.24132739E+03</pdfrwt>
<pdfrwt beam="2">  1        2 0.11978582E-01 0.24364689E+03</pdfrwt>
<totfact> 0.62770425E+02</totfact>
</mgrwt>
</event>
<event>
 5    1  0.1851087E-003  0.1240989E+03  0.7818608E-02  0.1236484E+00
         11   -1    0    0    0    0  0.00000000000E+00  0.00000000000E+00  0.10006886057E+04  0.10006886057E+04  0.51100000000E-03 0.  1.
          2   -1    0    0  501    0 -0.00000000000E+00 -0.00000000000E+00 -0.18832384398E+02  0.18832384571E+02  0.25500000000E-02 0.  1.
         11    1    1    2    0    0  0.10345333539E+03  0.57833626626E+02  0.24354980204E+03  0.27085757705E+03  0.51100000000E-03 0.  1.
         22    1    1    2    0    0 -0.47711450499E+02 -0.34459808456E+02  0.26151196576E+03  0.26805292228E+03  0.00000000000E+00 0. -1.
          2    1    1    2  501    0 -0.55741884887E+02 -0.23373818169E+02  0.47679445354E+03  0.48061049098E+03  0.25500000000E-02 0.  1.
<mgrwt>
<rscale>  0 0.12409890E+03</rscale>
<asrwt>0</asrwt>
<pdfrwt beam="1">  1       11 0.10000000E+01 0.11852145E+03</pdfrwt>
<pdfrwt beam="2">  1        2 0.28992849E-02 0.12409890E+03</pdfrwt>
<totfact> 0.37422760E+03</totfact>
</mgrwt>
</event>
<event>
 5    1  0.1979003E-003  0.1950201E+03  0.7818608E-02  0.1154010E+00
         11   -1    0    0    0    0  0.00000000000E+00  0.00000000000E+00  0.10000684387E+04  0.10000684387E+04  0.51100000000E-03 0.  1.
         -2   -1    0    0    0  501 -0.00000000000E+00 -0.00000000000E+00 -0.26147219038E+03  0.26147219040E+03  0.25500000000E-02 0. -1.
         11    1    1    2    0    0 -0.14300930690E+03 -0.12333923862E+03  0.95310378469E+03  0.97163318903E+03  0.51100000000E-03 0.  1.
         22    1    1    2    0    0  0.71561490432E+01  0.18999902422E+02 -0.42773521219E+02  0.47347448492E+02  0.00000000000E+00 0. -1.
         -2    1    1    2    0  501  0.13585315785E+03  0.10433933620E+03 -0.17173401511E+03  0.24255999161E+03  0.25500000000E-02 0. -1.
<mgrwt>
<rscale>  0 0.19502010E+03</rscale>
<asrwt>0</asrwt>
<pdfrwt beam="1">  1       11 0.10000000E+01 0.18884975E+03</pdfrwt>
<pdfrwt beam="2">  1       -2 0.40229243E-01 0.19502010E+03</pdfrwt>
<totfact> 0.47582538E+01</totfact>
</mgrwt>
</event>
<event>
 5    1  0.1851087E-003  0.8630568E+02  0.7818608E-02  0.1312053E+00
         11   -1    0    0    0    0  0.00000000000E+00  0.00000000000E+00  0.10001594291E+04  0.10001594291E+04  0.51100000000E-03 0. -1.
          2   -1    0    0  501    0 -0.00000000000E+00 -0.00000000000E+00 -0.14793372232E+02  0.14793372452E+02  0.25500000000E-02 0. -1.
         11    1    1    2    0    0 -0.13051168061E+02  0.89065597980E+02  0.16201609533E+03  0.18534354285E+03  0.51100000000E-03 0. -1.
         22    1    1    2    0    0  0.18142333753E+02 -0.16632954386E+02  0.11850326253E+03  0.12103232079E+03  0.00000000000E+00 0.  1.
          2    1    1    2  501    0 -0.50911656921E+01 -0.72432643594E+02  0.70484669904E+03  0.70857693794E+03  0.25500000000E-02 0. -1.
<mgrwt>
<rscale>  0 0.86305683E+02</rscale>
<asrwt>0</asrwt>
<pdfrwt beam="1">  1       11 0.10000000E+01 0.24612993E+02</pdfrwt>
<pdfrwt beam="2">  1        2 0.22762662E-02 0.86305683E+02</pdfrwt>
<totfact> 0.49652896E+03</totfact>
</mgrwt>
</event>
<event>
 5    1  0.1851087E-003  0.2580493E+03  0.7818608E-02  0.1108321E+00
         11   -1    0    0    0    0  0.00000000000E+00  0.00000000000E+00  0.10001953414E+04  0.10001953414E+04  0.51100000000E-03 0. -1.
         -2   -1    0    0    0  501 -0.00000000000E+00 -0.00000000000E+00 -0.14283689474E+03  0.14283689476E+03  0.25500000000E-02 0.  1.
         11    1    1    2    0    0  0.18519842465E+03  0.17741553281E+03  0.84678007719E+03  0.88476619900E+03  0.51100000000E-03 0. -1.
         22    1    1    2    0    0 -0.83677275057E+01 -0.16933930797E+02  0.43803629138E+01  0.19389802864E+02  0.00000000000E+00 0. -1.
         -2    1    1    2    0  501 -0.17683069715E+03 -0.16048160201E+03  0.61980066023E+01  0.23887623433E+03  0.25500000000E-02 0.  1.
<mgrwt>
<rscale>  0 0.25804931E+03</rscale>
<asrwt>0</asrwt>
<pdfrwt beam="1">  1       11 0.10000000E+01 0.25646584E+03</pdfrwt>
<pdfrwt beam="2">  1       -2 0.21979199E-01 0.25804931E+03</pdfrwt>
<totfact> 0.14324613E+02</totfact>
</mgrwt>
</event>
<event>
 5    1  0.1851087E-003  0.9457005E+02  0.7818608E-02  0.1450870E+00
         11   -1    0    0    0    0  0.00000000000E+00  0.00000000000E+00  0.10001620697E+04  0.10001620697E+04  0.51100000000E-03 0. -1.
          2   -1    0    0  501    0 -0.00000000000E+00 -0.00000000000E+00 -0.14443257148E+02  0.14443257373E+02  0.25500000000E-02 0. -1.
         11    1    1    2    0    0 -0.43327433444E+02 -0.97827926931E+02  0.31319401552E+03  0.33096534733E+03  0.51100000000E-03 0. -1.
         22    1    1    2    0    0  0.23468184312E+02  0.96576443481E+01  0.71766597865E+02  0.76121418394E+02  0.00000000000E+00 0.  1.
          2    1    1    2  501    0  0.19859249132E+02  0.88170282583E+02  0.60075819912E+03  0.60751856130E+03  0.25500000000E-02 0. -1.
<mgrwt>
<rscale>  0 0.48989443E+02</rscale>
<asrwt>0</asrwt>
<pdfrwt beam="1">  1       11 0.10000000E+01 0.94570047E+02</pdfrwt>
<pdfrwt beam="2">  1        2 0.22223996E-02 0.48989443E+02</pdfrwt>
<totfact> 0.47472408E+03</totfact>
</mgrwt>
</event>
<event>
 5    1  0.1851087E-003  0.2065925E+03  0.7818608E-02  0.1144293E+00
         11   -1    0    0    0    0  0.00000000000E+00  0.00000000000E+00  0.10002517448E+04  0.10002517448E+04  0.51100000000E-03 0. -1.
          2   -1    0    0  501    0 -0.00000000000E+00 -0.00000000000E+00 -0.13603160548E+03  0.13603160550E+03  0.25500000000E-02 0.  1.
         11    1    1    2    0    0  0.13558278632E+03  0.12341418914E+03  0.90696902294E+03  0.92531430476E+03  0.51100000000E-03 0. -1.
         22    1    1    2    0    0 -0.86816623006E+02 -0.18324857535E+02 -0.40437134631E+01  0.88821608027E+02  0.00000000000E+00 0. -1.
          2    1    1    2  501    0 -0.48766163315E+02 -0.10508933160E+03 -0.38705170115E+02  0.12214743755E+03  0.25500000000E-02 0.  1.
<mgrwt>
<rscale>  0 0.20659252E+03</rscale>
<asrwt>0</asrwt>
<pdfrwt beam="1">  1       11 0.10000000E+01 0.18334054E+03</pdfrwt>
<pdfrwt beam="2">  1        2 0.20933207E-01 0.20659252E+03</pdfrwt>
<totfact> 0.32307320E+02</totfact>
</mgrwt>
</event>
<event>
 5    1  0.1851087E-003  0.2426999E+03  0.7818608E-02  0.1118007E+00
         11   -1    0    0    0    0  0.00000000000E+00  0.00000000000E+00  0.10001160981E+04  0.10001160981E+04  0.51100000000E-03 0.  1.
         -2   -1    0    0    0  501 -0.00000000000E+00 -0.00000000000E+00 -0.20609679916E+03  0.20609679917E+03  0.25500000000E-02 0. -1.
         11    1    1    2    0    0  0.12990467311E+03  0.19652732110E+03  0.90801273511E+03  0.93807533767E+03  0.51100000000E-03 0.  1.
         22    1    1    2    0    0 -0.20004519004E+01 -0.21363184722E+02 -0.26908808632E+02  0.34416151024E+02  0.00000000000E+00 0. -1.
         -2    1    1    2    0  501 -0.12790422121E+03 -0.17516413638E+03 -0.87084627522E+02  0.23372140859E+03  0.25500000000E-02 0. -1.
<mgrwt>
<rscale>  0 0.24269991E+03</rscale>
<asrwt>0</asrwt>
<pdfrwt beam="1">  1       11 0.10000000E+01 0.23558059E+03</pdfrwt>
<pdfrwt beam="2">  1       -2 0.31710880E-01 0.24269991E+03</pdfrwt>
<totfact> 0.74388618E+01</totfact>
</mgrwt>
</event>
<event>
 5    1  0.1851087E-003  0.1874158E+03  0.7818608E-02  0.1160813E+00
         11   -1    0    0    0    0  0.00000000000E+00  0.00000000000E+00  0.10003938358E+04  0.10003938358E+04  0.51100000000E-03 0. -1.
          2   -1    0    0  501    0 -0.00000000000E+00 -0.00000000000E+00 -0.28946136419E+03  0.28946136420E+03  0.25500000000E-02 0. -1.
         11    1    1    2    0    0 -0.37131725098E+02 -0.17632600839E+03  0.96077786720E+03  0.97752940434E+03  0.51100000000E-03 0. -1.
         22    1    1    2    0    0  0.30267821626E+02  0.52490679782E+02 -0.10857013825E+03  0.12433377421E+03  0.00000000000E+00 0.  1.
          2    1    1    2  501    0  0.68639034721E+01  0.12383532860E+03 -0.14127525735E+03  0.18799202145E+03  0.25500000000E-02 0. -1.
<mgrwt>
<rscale>  0 0.18741580E+03</rscale>
<asrwt>0</asrwt>
<pdfrwt beam="1">  1       11 0.10000000E+01 0.18019330E+03</pdfrwt>
<pdfrwt beam="2">  1        2 0.44550055E-01 0.18741580E+03</pdfrwt>
<totfact> 0.14083300E+02</totfact>
</mgrwt>
</event>
<event>
 5    1  0.1851087E-003  0.1463623E+03  0.7818608E-02  0.1205016E+00
         11   -1    0    0    0    0  0.00000000000E+00  0.00000000000E+00  0.10001615413E+04  0.10001615413E+04  0.51100000000E-03 0.  1.
          2   -1    0    0  501    0 -0.00000000000E+00 -0.00000000000E+00 -0.30285584437E+02  0.30285584544E+02  0.25500000000E-02 0.  1.
         11    1    1    2    0    0  0.54501280049E+02 -0.13375773747E+03  0.76585977793E+03  0.77936045660E+03  0.51100000000E-03 0.  1.
         22    1    1    2    0    0 -0.13090999644E+02  0.20313967187E+02  0.22188535969E+02  0.32807966456E+02  0.00000000000E+00 0.  1.
          2    1    1    2  501    0 -0.41410280405E+02  0.11344377028E+03  0.18182764298E+03  0.21827870280E+03  0.25500000000E-02 0.  1.
<mgrwt>
<rscale>  0 0.14636227E+03</rscale>
<asrwt>0</asrwt>
<pdfrwt beam="1">  1       11 0.10000000E+01 0.14443518E+03</pdfrwt>
<pdfrwt beam="2">  1        2 0.46600732E-02 0.14636227E+03</pdfrwt>
<totfact> 0.20221959E+03</totfact>
</mgrwt>
</event>
<event>
 5    1  0.1851087E-003  0.2170090E+03  0.7818608E-02  0.1136133E+00
         11   -1    0    0    0    0  0.00000000000E+00  0.00000000000E+00  0.10003356526E+04  0.10003356526E+04  0.51100000000E-03 0. -1.
          2   -1    0    0  501    0 -0.00000000000E+00 -0.00000000000E+00 -0.79976393896E+02  0.79976393937E+02  0.25500000000E-02 0. -1.
         11    1    1    2    0    0  0.14274601660E+03 -0.16101670171E+03  0.80756201993E+03  0.83573872683E+03  0.51100000000E-03 0. -1.
         22    1    1    2    0    0 -0.19168963060E+02  0.14786457266E+02  0.45378033310E+01  0.24630877417E+02  0.00000000000E+00 0. -1.
          2    1    1    2  501    0 -0.12357705354E+03  0.14623024444E+03  0.10825943543E+03  0.21994244228E+03  0.25500000000E-02 0. -1.
<mgrwt>
<rscale>  0 0.21700897E+03</rscale>
<asrwt>0</asrwt>
<pdfrwt beam="1">  1       11 0.10000000E+01 0.21518086E+03</pdfrwt>
<pdfrwt beam="2">  1        2 0.12308190E-01 0.21700897E+03</pdfrwt>
<totfact> 0.60426369E+02</totfact>
</mgrwt>
</event>
<event>
 5    1  0.1851087E-003  0.9580207E+02  0.7818608E-02  0.1289380E+00
         11   -1    0    0    0    0  0.00000000000E+00  0.00000000000E+00  0.10001593358E+04  0.10001593358E+04  0.51100000000E-03 0.  1.
          2   -1    0    0  501    0 -0.00000000000E+00 -0.00000000000E+00 -0.92351407668E+01  0.92351411188E+01  0.25500000000E-02 0.  1.
         11    1    1    2    0    0 -0.46215494164E+02 -0.82290536173E+02  0.41863809434E+03  0.42914503175E+03  0.51100000000E-03 0.  1.
         22    1    1    2    0    0  0.11405372954E+02  0.16319896446E+02  0.85920417747E+02  0.88197164002E+02  0.00000000000E+00 0.  1.
          2    1    1    2  501    0  0.34810121210E+02  0.65970639727E+02  0.48636568291E+03  0.49205228113E+03  0.25500000000E-02 0.  1.
<mgrwt>
<rscale>  0 0.95802075E+02</rscale>
<asrwt>0</asrwt>
<pdfrwt beam="1">  1       11 0.10000000E+01 0.94380152E+02</pdfrwt>
<pdfrwt beam="2">  1        2 0.14210173E-02 0.95802075E+02</pdfrwt>
<totfact> 0.95219405E+03</totfact>
</mgrwt>
</event>
<event>
 5    1  0.1851087E-003  0.1592006E+03  0.7818608E-02  0.1189602E+00
         11   -1    0    0    0    0  0.00000000000E+00  0.00000000000E+00  0.99995036208E+03  0.99995036208E+03  0.51100000000E-03 0.  1.
         -2   -1    0    0    0  501 -0.00000000000E+00 -0.00000000000E+00 -0.41278718969E+02  0.41278719048E+02  0.25500000000E-02 0. -1.
         11    1    1    2    0    0 -0.91553284132E+02  0.12818830338E+03  0.80392404790E+03  0.81921188941E+03  0.51100000000E-03 0.  1.
         22    1    1    2    0    0  0.11161534955E+02 -0.18429798415E+02  0.11363950095E+02  0.24359324579E+02  0.00000000000E+00 0.  1.
         -2    1    1    2    0  501  0.80391749178E+02 -0.10975850497E+03  0.14338364511E+03  0.19765786714E+03  0.25500000000E-02 0. -1.
<mgrwt>
<rscale>  0 0.15920055E+03</rscale>
<asrwt>0</asrwt>
<pdfrwt beam="1">  1       11 0.10000000E+01 0.15752538E+03</pdfrwt>
<pdfrwt beam="2">  1       -2 0.63502567E-02 0.15920055E+03</pdfrwt>
<totfact> 0.10420680E+03</totfact>
</mgrwt>
</event>
<event>
 5    1  0.1851087E-003  0.2578962E+03  0.7818608E-02  0.1108414E+00
         11   -1    0    0    0    0  0.00000000000E+00  0.00000000000E+00  0.99965062932E+03  0.99965062932E+03  0.51100000000E-03 0.  1.
          2   -1    0    0  501    0 -0.00000000000E+00 -0.00000000000E+00 -0.74602609643E+02  0.74602609686E+02  0.25500000000E-02 0.  1.
         11    1    1    2    0    0 -0.12760578986E+03  0.22399207948E+03  0.47712905156E+03  0.54231708541E+03  0.51100000000E-03 0.  1.
         22    1    1    2    0    0  0.21118735387E+02  0.11542596746E+02  0.70422409141E+02  0.74421423214E+02  0.00000000000E+00 0. -1.
          2    1    1    2  501    0  0.10648705447E+03 -0.23553467623E+03  0.37749655897E+03  0.45751473038E+03  0.25500000000E-02 0.  1.
<mgrwt>
<rscale>  0 0.25789616E+03</rscale>
<asrwt>0</asrwt>
<pdfrwt beam="1">  1       11 0.10000000E+01 0.24067250E+02</pdfrwt>
<pdfrwt beam="2">  1        2 0.11473314E-01 0.25789616E+03</pdfrwt>
<totfact> 0.66336838E+02</totfact>
</mgrwt>
</event>
<event>
 5    1  0.1851087E-003  0.1791979E+03  0.7818608E-02  0.1168582E+00
         11   -1    0    0    0    0  0.00000000000E+00  0.00000000000E+00  0.10000714196E+04  0.10000714196E+04  0.51100000000E-03 0. -1.
          2   -1    0    0  501    0 -0.00000000000E+00 -0.00000000000E+00 -0.35279395789E+02  0.35279395881E+02  0.25500000000E-02 0. -1.
         11    1    1    2    0    0 -0.54112722664E+02  0.16262379446E+03  0.65898178552E+03  0.68090504398E+03  0.51100000000E-03 0. -1.
         22    1    1    2    0    0 -0.10515772961E+02 -0.21965227529E+02  0.38771196378E+02  0.45784914218E+02  0.00000000000E+00 0.  1.
          2    1    1    2  501    0  0.64628495625E+02 -0.14065856694E+03  0.26703904189E+03  0.30866085725E+03  0.25500000000E-02 0. -1.
<mgrwt>
<rscale>  0 0.17919794E+03</rscale>
<asrwt>0</asrwt>
<pdfrwt beam="1">  1       11 0.10000000E+01 0.17139045E+03</pdfrwt>
<pdfrwt beam="2">  1        2 0.54279868E-02 0.17919794E+03</pdfrwt>
<totfact> 0.16821093E+03</totfact>
</mgrwt>
</event>
<event>
 5    1  0.1851087E-003  0.1308777E+03  0.7818608E-02  0.1226159E+00
         11   -1    0    0    0    0  0.00000000000E+00  0.00000000000E+00  0.99986118294E+03  0.99986118294E+03  0.51100000000E-03 0. -1.
          2   -1    0    0  501    0 -0.00000000000E+00 -0.00000000000E+00 -0.16767042673E+02  0.16767042867E+02  0.25500000000E-02 0.  1.
         11    1    1    2    0    0  0.10221801261E+02  0.12762721903E+03  0.47682149479E+03  0.49371239619E+03  0.51100000000E-03 0. -1.
         22    1    1    2    0    0  0.40237038640E+01 -0.16736007252E+02  0.42414587024E+02  0.45774243019E+02  0.00000000000E+00 0. -1.
          2    1    1    2  501    0 -0.14245505125E+02 -0.11089121177E+03  0.46385805845E+03  0.47714158660E+03  0.25500000000E-02 0.  1.
<mgrwt>
<rscale>  0 0.13087770E+03</rscale>
<asrwt>0</asrwt>
<pdfrwt beam="1">  1       11 0.10000000E+01 0.12803597E+03</pdfrwt>
<pdfrwt beam="2">  1        2 0.25791869E-02 0.13087770E+03</pdfrwt>
<totfact> 0.44061522E+03</totfact>
</mgrwt>
</event>
<event>
 5    1  0.1851087E-003  0.3015899E+03  0.7818608E-02  0.1088524E+00
         11   -1    0    0    0    0  0.00000000000E+00  0.00000000000E+00  0.10001544128E+04  0.10001544128E+04  0.51100000000E-03 0.  1.
          2   -1    0    0  501    0 -0.00000000000E+00 -0.00000000000E+00 -0.13291493658E+03  0.13291493661E+03  0.25500000000E-02 0.  1.
         11    1    1    2    0    0  0.76617168145E+02 -0.83565527379E+02  0.35128877728E+02  0.11869046243E+03  0.51100000000E-03 0.  1.
         22    1    1    2    0    0  0.17609712456E+03 -0.65736318445E+02  0.75027395622E+02  0.20238718075E+03  0.00000000000E+00 0.  1.
          2    1    1    2  501    0 -0.25271429270E+03  0.14930184582E+03  0.75708320285E+03  0.81199170621E+03  0.25500000000E-02 0.  1.
<mgrwt>
<rscale>  0 0.29352267E+03</rscale>
<asrwt>0</asrwt>
<pdfrwt beam="1">  1       11 0.10000000E+01 0.30158987E+03</pdfrwt>
<pdfrwt beam="2">  1        2 0.20451609E-01 0.29352267E+03</pdfrwt>
<totfact> 0.33485507E+02</totfact>
</mgrwt>
</event>
<event>
 5    1  0.1851087E-003  0.1355573E+03  0.7818608E-02  0.1219435E+00
         11   -1    0    0    0    0  0.00000000000E+00  0.00000000000E+00  0.10007784128E+04  0.10007784128E+04  0.51100000000E-03 0. -1.
          2   -1    0    0  501    0 -0.00000000000E+00 -0.00000000000E+00 -0.24966564990E+02  0.24966565121E+02  0.25500000000E-02 0. -1.
         11    1    1    2    0    0 -0.72998045847E+02  0.10497625141E+03  0.76150037748E+03  0.77216031559E+03  0.51100000000E-03 0. -1.
         22    1    1    2    0    0 -0.39955523043E+01 -0.18897947003E+02  0.40964227137E+02  0.45289786311E+02  0.00000000000E+00 0. -1.
          2    1    1    2  501    0  0.76993598151E+02 -0.86078304411E+02  0.17334724314E+03  0.20829487598E+03  0.25500000000E-02 0. -1.
<mgrwt>
<rscale>  0 0.13555727E+03</rscale>
<asrwt>0</asrwt>
<pdfrwt beam="1">  1       11 0.10000000E+01 0.12786214E+03</pdfrwt>
<pdfrwt beam="2">  1        2 0.38439998E-02 0.13555727E+03</pdfrwt>
<totfact> 0.25904221E+03</totfact>
</mgrwt>
</event>
<event>
 5    1  0.1851087E-003  0.1887026E+03  0.7818608E-02  0.1159637E+00
         11   -1    0    0    0    0  0.00000000000E+00  0.00000000000E+00  0.10003170636E+04  0.10003170636E+04  0.51100000000E-03 0. -1.
          2   -1    0    0  501    0 -0.00000000000E+00 -0.00000000000E+00 -0.54064989769E+03  0.54064989769E+03  0.25500000000E-02 0. -1.
         11    1    1    2    0    0  0.38907149029E+02 -0.17441536411E+03  0.97548368128E+03  0.99171714613E+03  0.51100000000E-03 0. -1.
         22    1    1    2    0    0  0.15414556541E+02  0.22564796287E+02 -0.81260977627E+02  0.85732870416E+02  0.00000000000E+00 0. -1.
          2    1    1    2  501    0 -0.54321705570E+02  0.15185056783E+03 -0.43455553776E+03  0.46351694473E+03  0.25500000000E-02 0. -1.
<mgrwt>
<rscale>  0 0.18870263E+03</rscale>
<asrwt>0</asrwt>
<pdfrwt beam="1">  1       11 0.10000000E+01 0.17870223E+03</pdfrwt>
<pdfrwt beam="2">  1        2 0.83203277E-01 0.18870263E+03</pdfrwt>
<totfact> 0.71422823E+01</totfact>
</mgrwt>
</event>
<event>
 5    1  0.1851087E-003  0.1450255E+03  0.7818608E-02  0.1357271E+00
         11   -1    0    0    0    0  0.00000000000E+00  0.00000000000E+00  0.10003047954E+04  0.10003047954E+04  0.51100000000E-03 0.  1.
          2   -1    0    0  501    0 -0.00000000000E+00 -0.00000000000E+00 -0.44415168488E+02  0.44415168561E+02  0.25500000000E-02 0.  1.
         11    1    1    2    0    0  0.17873234284E+02 -0.14858943613E+03  0.77758526526E+03  0.79185675333E+03  0.51100000000E-03 0.  1.
         22    1    1    2    0    0 -0.30446771260E+02  0.16435824293E+02  0.56249277499E+01  0.35053987113E+02  0.00000000000E+00 0. -1.
          2    1    1    2  501    0  0.12573536976E+02  0.13215361184E+03  0.17267943391E+03  0.21780922354E+03  0.25500000000E-02 0.  1.
<mgrwt>
<rscale>  0 0.70836744E+02</rscale>
<asrwt>0</asrwt>
<pdfrwt beam="1">  1       11 0.10000000E+01 0.14502548E+03</pdfrwt>
<pdfrwt beam="2">  1        2 0.68351854E-02 0.70836744E+02</pdfrwt>
<totfact> 0.11646659E+03</totfact>
</mgrwt>
</event>
<event>
 5    1  0.1851087E-003  0.3184574E+03  0.7818608E-02  0.1324410E+00
         11   -1    0    0    0    0  0.00000000000E+00  0.00000000000E+00  0.10006297283E+04  0.10006297283E+04  0.51100000000E-03 0.  1.
          2   -1    0    0  501    0 -0.00000000000E+00 -0.00000000000E+00 -0.15627673880E+03  0.15627673882E+03  0.25500000000E-02 0.  1.
         11    1    1    2    0    0  0.26997584796E+03  0.17552068657E+03  0.73099838568E+03  0.79878226681E+03  0.51100000000E-03 0.  1.
         22    1    1    2    0    0 -0.38772479448E+01 -0.20576681692E+02 -0.13696438019E+02  0.25020497507E+02  0.00000000000E+00 0. -1.
          2    1    1    2  501    0 -0.26609860002E+03 -0.15494400488E+03  0.12705104182E+03  0.33310370279E+03  0.25500000000E-02 0.  1.
<mgrwt>
<rscale>  0 0.81658509E+02</rscale>
<asrwt>0</asrwt>
<pdfrwt beam="1">  1       11 0.10000000E+01 0.31845739E+03</pdfrwt>
<pdfrwt beam="2">  1        2 0.24057715E-01 0.81658509E+02</pdfrwt>
<totfact> 0.26921626E+02</totfact>
</mgrwt>
</event>
<event>
 5    1  0.1851087E-003  0.1135842E+03  0.7818608E-02  0.1526652E+00
         11   -1    0    0    0    0  0.00000000000E+00  0.00000000000E+00  0.10004343654E+04  0.10004343654E+04  0.51100000000E-03 0. -1.
          2   -1    0    0  501    0 -0.00000000000E+00 -0.00000000000E+00 -0.25722797418E+02  0.25722797545E+02  0.25500000000E-02 0. -1.
         11    1    1    2    0    0 -0.93314750379E+02 -0.67710144656E+02  0.14029915278E+03  0.18159338809E+03  0.51100000000E-03 0. -1.
         22    1    1    2    0    0 -0.50568442617E+01  0.11373465705E+02  0.34868138895E+02  0.37023161751E+02  0.00000000000E+00 0.  1.
          2    1    1    2  501    0  0.98371594640E+02  0.56336678950E+02  0.79954427632E+03  0.80754061311E+03  0.25500000000E-02 0. -1.
<mgrwt>
<rscale>  0 0.37600268E+02</rscale>
<asrwt>0</asrwt>
<pdfrwt beam="1">  1       11 0.10000000E+01 0.11358422E+03</pdfrwt>
<pdfrwt beam="2">  1        2 0.39590723E-02 0.37600268E+02</pdfrwt>
<totfact> 0.21693046E+03</totfact>
</mgrwt>
</event>
<event>
 5    1  0.1851087E-003  0.2388492E+03  0.7818608E-02  0.1397083E+00
         11   -1    0    0    0    0  0.00000000000E+00  0.00000000000E+00  0.10000317736E+04  0.10000317736E+04  0.51100000000E-03 0.  1.
         -2   -1    0    0    0  501 -0.00000000000E+00 -0.00000000000E+00 -0.86210764259E+02  0.86210764296E+02  0.25500000000E-02 0. -1.
         11    1    1    2    0    0 -0.28768612760E+02 -0.23819187896E+03  0.72769018960E+03  0.76622191063E+03  0.51100000000E-03 0.  1.
         22    1    1    2    0    0  0.14946864678E+02  0.25467328079E+01 -0.53436023605E+01  0.16076339692E+02  0.00000000000E+00 0. -1.
         -2    1    1    2    0  501  0.13821748082E+02  0.23564514616E+03  0.19147442211E+03  0.30394428758E+03  0.25500000000E-02 0. -1.
<mgrwt>
<rscale>  0 0.60178879E+02</rscale>
<asrwt>0</asrwt>
<pdfrwt beam="1">  1       11 0.10000000E+01 0.23884920E+03</pdfrwt>
<pdfrwt beam="2">  1       -2 0.13263616E-01 0.60178879E+02</pdfrwt>
<totfact> 0.31095604E+02</totfact>
</mgrwt>
</event>
<event>
 5    1  0.2042319E-003  0.2174200E+03  0.7818608E-02  0.1135821E+00
         11   -1    0    0    0    0  0.00000000000E+00  0.00000000000E+00  0.99993873678E+03  0.99993873678E+03  0.51100000000E-03 0. -1.
          2   -1    0    0  501    0 -0.00000000000E+00 -0.00000000000E+00 -0.44313105788E+03  0.44313105789E+03  0.25500000000E-02 0. -1.
         11    1    1    2    0    0  0.21421435284E+03 -0.26283795280E+02  0.96055552504E+03  0.98450268844E+03  0.51100000000E-03 0. -1.
         22    1    1    2    0    0 -0.17691601196E+02 -0.50324696144E+01 -0.32288363755E+02  0.37159883440E+02  0.00000000000E+00 0. -1.
          2    1    1    2  501    0 -0.19652275164E+03  0.31316264894E+02 -0.37145948239E+03  0.42140722279E+03  0.25500000000E-02 0. -1.
<mgrwt>
<rscale>  0 0.21742003E+03</rscale>
<asrwt>0</asrwt>
<pdfrwt beam="1">  1       11 0.10000000E+01 0.21582082E+03</pdfrwt>
<pdfrwt beam="2">  1        2 0.68169830E-01 0.21742003E+03</pdfrwt>
<totfact> 0.88939332E+01</totfact>
</mgrwt>
</event>
<event>
 5    1  0.1851087E-003  0.1829542E+03  0.7818608E-02  0.1164974E+00
         11   -1    0    0    0    0  0.00000000000E+00  0.00000000000E+00  0.10010822349E+04  0.10010822349E+04  0.51100000000E-03 0.  1.
          2   -1    0    0  501    0 -0.00000000000E+00 -0.00000000000E+00 -0.11360809788E+04  0.11360809789E+04  0.25500000000E-02 0.  1.
         11    1    1    2    0    0  0.17683630905E+03  0.26106385660E+02  0.98562492609E+03  0.10017031090E+04  0.51100000000E-03 0.  1.
         22    1    1    2    0    0 -0.60320655803E+02  0.77935384094E+01 -0.32616310962E+03  0.33178561578E+03  0.00000000000E+00 0.  1.
          2    1    1    2  501    0 -0.11651565325E+03 -0.33899924070E+02 -0.79446056039E+03  0.80367448904E+03  0.25500000000E-02 0.  1.
<mgrwt>
<rscale>  0 0.18295420E+03</rscale>
<asrwt>0</asrwt>
<pdfrwt beam="1">  1       11 0.10000000E+01 0.17875297E+03</pdfrwt>
<pdfrwt beam="2">  1        2 0.17497084E+00 0.18295420E+03</pdfrwt>
<totfact> 0.27799367E+01</totfact>
</mgrwt>
</event>
<event>
 5    1  0.1851087E-003  0.1881257E+03  0.7818608E-02  0.1160163E+00
         11   -1    0    0    0    0  0.00000000000E+00  0.00000000000E+00  0.10002239328E+04  0.10002239328E+04  0.51100000000E-03 0. -1.
         -2   -1    0    0    0  501 -0.00000000000E+00 -0.00000000000E+00 -0.79072307628E+02  0.79072307669E+02  0.25500000000E-02 0.  1.
         11    1    1    2    0    0 -0.29784251964E+02 -0.16266741638E+03  0.86827177703E+03  0.88387989501E+03  0.51100000000E-03 0. -1.
         22    1    1    2    0    0 -0.29203634554E+02  0.68698016091E+02  0.57410610516E+01  0.74868080435E+02  0.00000000000E+00 0.  1.
         -2    1    1    2    0  501  0.58987886519E+02  0.93969400290E+02  0.47138787101E+02  0.12054826503E+03  0.25500000000E-02 0.  1.
<mgrwt>
<rscale>  0 0.18812568E+03</rscale>
<asrwt>0</asrwt>
<pdfrwt beam="1">  1       11 0.10000000E+01 0.16537167E+03</pdfrwt>
<pdfrwt beam="2">  1       -2 0.12167694E-01 0.18812568E+03</pdfrwt>
<totfact> 0.38028564E+02</totfact>
</mgrwt>
</event>
<event>
 5    1  0.1851087E-003  0.1243779E+03  0.7818608E-02  0.1236045E+00
         11   -1    0    0    0    0  0.00000000000E+00  0.00000000000E+00  0.99982144089E+03  0.99982144089E+03  0.51100000000E-03 0. -1.
          2   -1    0    0  501    0 -0.00000000000E+00 -0.00000000000E+00 -0.14670309902E+02  0.14670310124E+02  0.25500000000E-02 0. -1.
         11    1    1    2    0    0 -0.75666463606E+01 -0.11713836195E+03  0.44714004394E+03  0.46229089205E+03  0.51100000000E-03 0. -1.
         22    1    1    2    0    0  0.21427643125E+02  0.37664254748E+02  0.20881723073E+03  0.21326597437E+03  0.00000000000E+00 0.  1.
          2    1    1    2  501    0 -0.13860996765E+02  0.79474107207E+02  0.32919385632E+03  0.33893488459E+03  0.25500000000E-02 0. -1.
<mgrwt>
<rscale>  0 0.12437789E+03</rscale>
<asrwt>0</asrwt>
<pdfrwt beam="1">  1       11 0.10000000E+01 0.11738255E+03</pdfrwt>
<pdfrwt beam="2">  1        2 0.22565677E-02 0.12437789E+03</pdfrwt>
<totfact> 0.52495617E+03</totfact>
</mgrwt>
</event>
<event>
 5    1  0.1851087E-003  0.1051045E+03  0.7818608E-02  0.1269914E+00
         11   -1    0    0    0    0  0.00000000000E+00  0.00000000000E+00  0.10001406594E+04  0.10001406594E+04  0.51100000000E-03 0. -1.
          2   -1    0    0  501    0 -0.00000000000E+00 -0.00000000000E+00 -0.10427618267E+02  0.10427618579E+02  0.25500000000E-02 0. -1.
         11    1    1    2    0    0 -0.72469993247E+02  0.67269817799E+02  0.50536077983E+03  0.51494334261E+03  0.51100000000E-03 0. -1.
         22    1    1    2    0    0 -0.38104380496E+00 -0.15799644542E+02  0.81015138139E+02  0.82542271412E+02  0.00000000000E+00 0.  1.
          2    1    1    2  501    0  0.72851037052E+02 -0.51470173257E+02  0.40333712320E+03  0.41308266399E+03  0.25500000000E-02 0. -1.
<mgrwt>
<rscale>  0 0.10510454E+03</rscale>
<asrwt>0</asrwt>
<pdfrwt beam="1">  1       11 0.10000000E+01 0.98879362E+02</pdfrwt>
<pdfrwt beam="2">  1        2 0.16044746E-02 0.10510454E+03</pdfrwt>
<totfact> 0.81736102E+03</totfact>
</mgrwt>
</event>
<event>
 5    1  0.1851087E-003  0.1189892E+03  0.7818608E-02  0.1244774E+00
         11   -1    0    0    0    0  0.00000000000E+00  0.00000000000E+00  0.10000989820E+04  0.10000989820E+04  0.51100000000E-03 0.  1.
          2   -1    0    0  501    0 -0.00000000000E+00 -0.00000000000E+00 -0.18373728718E+02  0.18373728895E+02  0.25500000000E-02 0.  1.
         11    1    1    2    0    0  0.17955434184E+02  0.11763715811E+03  0.27521437669E+03  0.29983971005E+03  0.51100000000E-03 0.  1.
         22    1    1    2    0    0 -0.11145455231E+02  0.15049768241E+01  0.41368645506E+02  0.42870163967E+02  0.00000000000E+00 0. -1.
          2    1    1    2  501    0 -0.68099789523E+01 -0.11914213493E+03  0.66514223111E+03  0.67576283691E+03  0.25500000000E-02 0.  1.
<mgrwt>
<rscale>  0 0.11898924E+03</rscale>
<asrwt>0</asrwt>
<pdfrwt beam="1">  1       11 0.10000000E+01 0.11246605E+02</pdfrwt>
<pdfrwt beam="2">  1        2 0.28270072E-02 0.11898924E+03</pdfrwt>
<totfact> 0.38539693E+03</totfact>
</mgrwt>
</event>
<event>
 5    1  0.1851087E-003  0.1830716E+03  0.7818608E-02  0.1164863E+00
         11   -1    0    0    0    0  0.00000000000E+00  0.00000000000E+00  0.10000606059E+04  0.10000606059E+04  0.51100000000E-03 0.  1.
         -2   -1    0    0    0  501 -0.00000000000E+00 -0.00000000000E+00 -0.31662731676E+03  0.31662731677E+03  0.25500000000E-02 0.  1.
         11    1    1    2    0    0 -0.10595191911E+03 -0.13732021476E+03  0.96520587842E+03  0.98066560982E+03  0.51100000000E-03 0.  1.
         22    1    1    2    0    0  0.64834394604E+02  0.93464485837E+02 -0.23038264734E+03  0.25693437496E+03  0.00000000000E+00 0.  1.
         -2    1    1    2    0  501  0.41117524501E+02  0.43855728923E+02 -0.51389941946E+02  0.79087937893E+02  0.25500000000E-02 0.  1.
<mgrwt>
<rscale>  0 0.18307158E+03</rscale>
<asrwt>0</asrwt>
<pdfrwt beam="1">  1       11 0.10000000E+01 0.17344351E+03</pdfrwt>
<pdfrwt beam="2">  1       -2 0.48714846E-01 0.18307158E+03</pdfrwt>
<totfact> 0.32806469E+01</totfact>
</mgrwt>
</event>
<event>
 5    1  0.1851087E-003  0.1483099E+03  0.7818608E-02  0.1202565E+00
         11   -1    0    0    0    0  0.00000000000E+00  0.00000000000E+00  0.99990148333E+03  0.99990148333E+03  0.51100000000E-03 0. -1.
          2   -1    0    0  501    0 -0.00000000000E+00 -0.00000000000E+00 -0.45877551911E+02  0.45877551982E+02  0.25500000000E-02 0.  1.
         11    1    1    2    0    0 -0.30247518473E+02 -0.14414562694E+03  0.85466470378E+03  0.86726272260E+03  0.51100000000E-03 0. -1.
         22    1    1    2    0    0  0.54302388084E+01  0.12569547094E+02  0.44600585500E+01  0.14400455893E+02  0.00000000000E+00 0.  1.
          2    1    1    2  501    0  0.24817279664E+02  0.13157607984E+03  0.94899169093E+02  0.16411585681E+03  0.25500000000E-02 0.  1.
<mgrwt>
<rscale>  0 0.14830987E+03</rscale>
<asrwt>0</asrwt>
<pdfrwt beam="1">  1       11 0.10000000E+01 0.14728501E+03</pdfrwt>
<pdfrwt beam="2">  1        2 0.70573894E-02 0.14830987E+03</pdfrwt>
<totfact> 0.11826684E+03</totfact>
</mgrwt>
</event>
<event>
 5    1  0.1851087E-003  0.1566005E+03  0.7818608E-02  0.1390113E+00
         11   -1    0    0    0    0  0.00000000000E+00  0.00000000000E+00  0.10003432493E+04  0.10003432493E+04  0.51100000000E-03 0.  1.
          2   -1    0    0  501    0 -0.00000000000E+00 -0.00000000000E+00 -0.10100539432E+03  0.10100539435E+03  0.25500000000E-02 0.  1.
         11    1    1    2    0    0 -0.13818533024E+03 -0.82417748060E+02  0.84496323308E+03  0.86014576436E+03  0.51100000000E-03 0.  1.
         22    1    1    2    0    0  0.76318324569E+02  0.83610811445E+02 -0.46888170913E+02  0.12253062893E+03  0.00000000000E+00 0.  1.
          2    1    1    2  501    0  0.61867005672E+02 -0.11930633858E+01  0.10126279282E+03  0.11867225037E+03  0.25500000000E-02 0.  1.
<mgrwt>
<rscale>  0 0.61878508E+02</rscale>
<asrwt>0</asrwt>
<pdfrwt beam="1">  1       11 0.10000000E+01 0.15660053E+03</pdfrwt>
<pdfrwt beam="2">  1        2 0.15544625E-01 0.61878508E+02</pdfrwt>
<totfact> 0.43259958E+02</totfact>
</mgrwt>
</event>
<event>
 5    1  0.1851087E-003  0.1909546E+03  0.7818608E-02  0.1402208E+00
         11   -1    0    0    0    0  0.00000000000E+00  0.00000000000E+00  0.10003505304E+04  0.10003505304E+04  0.51100000000E-03 0.  1.
          2   -1    0    0  501    0 -0.00000000000E+00 -0.00000000000E+00 -0.11568473183E+03  0.11568473186E+03  0.25500000000E-02 0. -1.
         11    1    1    2    0    0 -0.78916685844E+02  0.17499744250E+03  0.89497225501E+03  0.91532905855E+03  0.51100000000E-03 0.  1.
         22    1    1    2    0    0  0.17803260377E+02 -0.38298283835E+01  0.30563821985E+01  0.18465241338E+02  0.00000000000E+00 0.  1.
          2    1    1    2  501    0  0.61113425467E+02 -0.17116761412E+03 -0.13362838661E+02  0.18224096235E+03  0.25500000000E-02 0. -1.
<mgrwt>
<rscale>  0 0.58969370E+02</rscale>
<asrwt>0</asrwt>
<pdfrwt beam="1">  1       11 0.10000000E+01 0.19095464E+03</pdfrwt>
<pdfrwt beam="2">  1        2 0.17803889E-01 0.58969370E+02</pdfrwt>
<totfact> 0.37036084E+02</totfact>
</mgrwt>
</event>
<event>
 5    1  0.1851087E-003  0.1265018E+03  0.7818608E-02  0.1232741E+00
         11   -1    0    0    0    0  0.00000000000E+00  0.00000000000E+00  0.10001357492E+04  0.10001357492E+04  0.51100000000E-03 0. -1.
          2   -1    0    0  501    0 -0.00000000000E+00 -0.00000000000E+00 -0.15395002923E+02  0.15395003134E+02  0.25500000000E-02 0. -1.
         11    1    1    2    0    0  0.28067255320E+02 -0.11734841686E+03  0.43507364197E+03  0.45149473496E+03  0.51100000000E-03 0. -1.
         22    1    1    2    0    0 -0.27897375959E+02  0.41718687733E+02  0.24856799991E+03  0.25358383835E+03  0.00000000000E+00 0. -1.
          2    1    1    2  501    0 -0.16987936059E+00  0.75629729125E+02  0.30109910439E+03  0.31045217902E+03  0.25500000000E-02 0. -1.
<mgrwt>
<rscale>  0 0.12650179E+03</rscale>
<asrwt>0</asrwt>
<pdfrwt beam="1">  1       11 0.10000000E+01 0.12065835E+03</pdfrwt>
<pdfrwt beam="2">  1        2 0.23687835E-02 0.12650179E+03</pdfrwt>
<totfact> 0.49249797E+03</totfact>
</mgrwt>
</event>
<event>
 5    1  0.1851087E-003  0.2114759E+03  0.7818608E-02  0.1328543E+00
         11   -1    0    0    0    0  0.00000000000E+00  0.00000000000E+00  0.10001281796E+04  0.10001281796E+04  0.51100000000E-03 0. -1.
          2   -1    0    0  501    0 -0.00000000000E+00 -0.00000000000E+00 -0.26395135461E+03  0.26395135463E+03  0.25500000000E-02 0. -1.
         11    1    1    2    0    0  0.74962496901E+02  0.19827357827E+03  0.93364328679E+03  0.95740355898E+03  0.51100000000E-03 0. -1.
         22    1    1    2    0    0 -0.30383044911E+02  0.10011608853E+01 -0.23646956752E+02  0.38513767730E+02  0.00000000000E+00 0. -1.
          2    1    1    2  501    0 -0.44579451990E+02 -0.19927473916E+03 -0.17381950504E+03  0.26816220753E+03  0.25500000000E-02 0. -1.
<mgrwt>
<rscale>  0 0.80179607E+02</rscale>
<asrwt>0</asrwt>
<pdfrwt beam="1">  1       11 0.10000000E+01 0.21147591E+03</pdfrwt>
<pdfrwt beam="2">  1        2 0.40613105E-01 0.80179607E+02</pdfrwt>
<totfact> 0.15420905E+02</totfact>
</mgrwt>
</event>
<event>
 5    1  0.1851087E-003  0.1712706E+03  0.7818608E-02  0.1176529E+00
         11   -1    0    0    0    0  0.00000000000E+00  0.00000000000E+00  0.10002708893E+04  0.10002708893E+04  0.51100000000E-03 0. -1.
         -2   -1    0    0    0  501 -0.00000000000E+00 -0.00000000000E+00 -0.36612449212E+02  0.36612449301E+02  0.25500000000E-02 0.  1.
         11    1    1    2    0    0  0.16665388137E+03 -0.34892457069E+02  0.71469569120E+03  0.73469784998E+03  0.51100000000E-03 0. -1.
         22    1    1    2    0    0 -0.11862558847E+02  0.48689047721E+00  0.10712982999E+02  0.15991415493E+02  0.00000000000E+00 0. -1.
         -2    1    1    2    0  501 -0.15479132252E+03  0.34405566591E+02  0.23824976584E+03  0.28619407308E+03  0.25500000000E-02 0.  1.
<mgrwt>
<rscale>  0 0.17127060E+03</rscale>
<asrwt>0</asrwt>
<pdfrwt beam="1">  1       11 0.10000000E+01 0.17026744E+03</pdfrwt>
<pdfrwt beam="2">  1       -2 0.56342102E-02 0.17127060E+03</pdfrwt>
<totfact> 0.12573328E+03</totfact>
</mgrwt>
</event>
<event>
 5    1  0.1851087E-003  0.9655021E+02  0.7818608E-02  0.1355651E+00
         11   -1    0    0    0    0  0.00000000000E+00  0.00000000000E+00  0.99995184092E+03  0.99995184092E+03  0.51100000000E-03 0.  1.
          2   -1    0    0  501    0 -0.00000000000E+00 -0.00000000000E+00 -0.24693195769E+02  0.24693195901E+02  0.25500000000E-02 0.  1.
         11    1    1    2    0    0 -0.95012877069E+02 -0.90067017910E+02  0.25564391888E+03  0.28721651726E+03  0.51100000000E-03 0.  1.
         22    1    1    2    0    0  0.23776532995E+02  0.86552020616E+02  0.39444842741E+03  0.40453199834E+03  0.00000000000E+00 0.  1.
          2    1    1    2  501    0  0.71236344074E+02  0.35149972936E+01  0.32516629886E+03  0.33289652122E+03  0.25500000000E-02 0.  1.
<mgrwt>
<rscale>  0 0.71323011E+02</rscale>
<asrwt>0</asrwt>
<pdfrwt beam="1">  1       11 0.10000000E+01 0.96550214E+02</pdfrwt>
<pdfrwt beam="2">  1        2 0.37987701E-02 0.71323011E+02</pdfrwt>
<totfact> 0.24668401E+03</totfact>
</mgrwt>
</event>
<event>
 5    1  0.1851087E-003  0.1152080E+03  0.7818608E-02  0.1251218E+00
         11   -1    0    0    0    0  0.00000000000E+00  0.00000000000E+00  0.10002163298E+04  0.10002163298E+04  0.51100000000E-03 0. -1.
          2   -1    0    0  501    0 -0.00000000000E+00 -0.00000000000E+00 -0.29636039348E+02  0.29636039458E+02  0.25500000000E-02 0. -1.
         11    1    1    2    0    0 -0.33295785857E+01  0.12665494767E+03  0.14958623085E+03  0.19603214615E+03  0.51100000000E-03 0. -1.
         22    1    1    2    0    0  0.11474361111E+01 -0.55165815400E+02  0.16594365394E+03  0.17487675684E+03  0.00000000000E+00 0. -1.
          2    1    1    2  501    0  0.21821424747E+01 -0.71489132274E+02  0.65505040567E+03  0.65894346628E+03  0.25500000000E-02 0. -1.
<mgrwt>
<rscale>  0 0.11520799E+03</rscale>
<asrwt>0</asrwt>
<pdfrwt beam="1">  1       11 0.10000000E+01 0.55177747E+02</pdfrwt>
<pdfrwt beam="2">  1        2 0.45603769E-02 0.11520799E+03</pdfrwt>
<totfact> 0.20378651E+03</totfact>
</mgrwt>
</event>
<event>
 5    1  0.1851087E-003  0.8284795E+02  0.7818608E-02  0.1321158E+00
         11   -1    0    0    0    0  0.00000000000E+00  0.00000000000E+00  0.10003784705E+04  0.10003784705E+04  0.51100000000E-03 0. -1.
          2   -1    0    0  501    0 -0.00000000000E+00 -0.00000000000E+00 -0.66457340274E+01  0.66457345166E+01  0.25500000000E-02 0. -1.
         11    1    1    2    0    0  0.57745274032E+01 -0.79983631893E+02  0.47852048397E+03  0.48519334302E+03  0.51100000000E-03 0. -1.
         22    1    1    2    0    0 -0.91247402372E+01  0.34562410067E+02  0.17772426610E+03  0.18128357850E+03  0.00000000000E+00 0. -1.
          2    1    1    2  501    0  0.33502128340E+01  0.45421221827E+02  0.33748798638E+03  0.34054728347E+03  0.25500000000E-02 0. -1.
<mgrwt>
<rscale>  0 0.82847953E+02</rscale>
<asrwt>0</asrwt>
<pdfrwt beam="1">  1       11 0.10000000E+01 0.80191851E+02</pdfrwt>
<pdfrwt beam="2">  1        2 0.10228076E-02 0.82847953E+02</pdfrwt>
<totfact> 0.14586401E+04</totfact>
</mgrwt>
</event>
<event>
 5    1  0.1851087E-003  0.1176678E+03  0.7818608E-02  0.1285518E+00
         11   -1    0    0    0    0  0.00000000000E+00  0.00000000000E+00  0.10003189136E+04  0.10003189136E+04  0.51100000000E-03 0. -1.
          2   -1    0    0  501    0 -0.00000000000E+00 -0.00000000000E+00 -0.42144474868E+02  0.42144474945E+02  0.25500000000E-02 0. -1.
         11    1    1    2    0    0 -0.14160638659E+03  0.77593833152E+02  0.71187349471E+03  0.72995687827E+03  0.51100000000E-03 0. -1.
         22    1    1    2    0    0  0.73294195532E+02 -0.34207949207E+02  0.38650462054E+02  0.89644191695E+02  0.00000000000E+00 0. -1.
          2    1    1    2  501    0  0.68312191061E+02 -0.43385883945E+02  0.20765048196E+03  0.22286231857E+03  0.25500000000E-02 0. -1.
<mgrwt>
<rscale>  0 0.97557374E+02</rscale>
<asrwt>0</asrwt>
<pdfrwt beam="1">  1       11 0.10000000E+01 0.11766783E+03</pdfrwt>
<pdfrwt beam="2">  1        2 0.64858329E-02 0.97557374E+02</pdfrwt>
<totfact> 0.12768523E+03</totfact>
</mgrwt>
</event>
<event>
 5    1  0.1851087E-003  0.8788325E+02  0.7818608E-02  0.1308060E+00
         11   -1    0    0    0    0  0.00000000000E+00  0.00000000000E+00  0.99999898199E+03  0.99999898199E+03  0.51100000000E-03 0.  1.
          2   -1    0    0  501    0 -0.00000000000E+00 -0.00000000000E+00 -0.10445965176E+02  0.10445965487E+02  0.25500000000E-02 0.  1.
         11    1    1    2    0    0 -0.35293979615E+02 -0.84131983456E+02  0.39247299860E+03  0.40293784913E+03  0.51100000000E-03 0.  1.
         22    1    1    2    0    0  0.25940079481E+02 -0.13758255078E+01  0.14830627942E+03  0.15056404994E+03  0.00000000000E+00 0.  1.
          2    1    1    2  501    0  0.93539001334E+01  0.85507808964E+02  0.44877373880E+03  0.45694304840E+03  0.25500000000E-02 0.  1.
<mgrwt>
<rscale>  0 0.87883246E+02</rscale>
<asrwt>0</asrwt>
<pdfrwt beam="1">  1       11 0.10000000E+01 0.25976540E+02</pdfrwt>
<pdfrwt beam="2">  1        2 0.16070699E-02 0.87883246E+02</pdfrwt>
<totfact> 0.79585063E+03</totfact>
</mgrwt>
</event>
<event>
 5    1  0.1851087E-003  0.2186006E+03  0.7818608E-02  0.1134931E+00
         11   -1    0    0    0    0  0.00000000000E+00  0.00000000000E+00  0.10000791543E+04  0.10000791543E+04  0.51100000000E-03 0. -1.
          2   -1    0    0  501    0 -0.00000000000E+00 -0.00000000000E+00 -0.13176827963E+03  0.13176827965E+03  0.25500000000E-02 0. -1.
         11    1    1    2    0    0 -0.85627513568E+02  0.20008001966E+03  0.88618498510E+03  0.91251734952E+03  0.51100000000E-03 0. -1.
         22    1    1    2    0    0  0.51841494690E+01 -0.10098039490E+02  0.35905054015E+01  0.11905357462E+02  0.00000000000E+00 0.  1.
          2    1    1    2  501    0  0.80443364099E+02 -0.18998198017E+03 -0.21464615835E+02  0.20742472697E+03  0.25500000000E-02 0. -1.
<mgrwt>
<rscale>  0 0.21860055E+03</rscale>
<asrwt>0</asrwt>
<pdfrwt beam="1">  1       11 0.10000000E+01 0.21763291E+03</pdfrwt>
<pdfrwt beam="2">  1        2 0.20273647E-01 0.21860055E+03</pdfrwt>
<totfact> 0.33561360E+02</totfact>
</mgrwt>
</event>
<event>
 5    1  0.1851087E-003  0.1166753E+03  0.7818608E-02  0.1248685E+00
         11   -1    0    0    0    0  0.00000000000E+00  0.00000000000E+00  0.10000275315E+04  0.10000275315E+04  0.51100000000E-03 0. -1.
          2   -1    0    0  501    0 -0.00000000000E+00 -0.00000000000E+00 -0.23488458548E+02  0.23488458686E+02  0.25500000000E-02 0. -1.
         11    1    1    2    0    0 -0.42098255908E+01  0.11322772179E+03  0.14593538136E+03  0.18475761188E+03  0.51100000000E-03 0. -1.
         22    1    1    2    0    0 -0.52189280672E+00 -0.14655007456E+02  0.55782049025E+02  0.57677366523E+02  0.00000000000E+00 0.  1.
          2    1    1    2  501    0  0.47317183976E+01 -0.98572714339E+02  0.77482164256E+03  0.78108101178E+03  0.25500000000E-02 0. -1.
<mgrwt>
<rscale>  0 0.11667530E+03</rscale>
<asrwt>0</asrwt>
<pdfrwt beam="1">  1       11 0.10000000E+01 0.11330601E+03</pdfrwt>
<pdfrwt beam="2">  1        2 0.36137084E-02 0.11667530E+03</pdfrwt>
<totfact> 0.27717045E+03</totfact>
</mgrwt>
</event>
<event>
 5    1  0.1851087E-003  0.9189582E+02  0.7818608E-02  0.1298325E+00
         11   -1    0    0    0    0  0.00000000000E+00  0.00000000000E+00  0.10004889801E+04  0.10004889801E+04  0.51100000000E-03 0. -1.
          2   -1    0    0  501    0 -0.00000000000E+00 -0.00000000000E+00 -0.84060952518E+01  0.84060956385E+01  0.25500000000E-02 0. -1.
         11    1    1    2    0    0  0.88927765918E+02 -0.17029728625E+02  0.54434272098E+03  0.55182167146E+03  0.51100000000E-03 0. -1.
         22    1    1    2    0    0 -0.12196009848E+02 -0.29704255834E+01  0.66428723548E+02  0.67604300134E+02  0.00000000000E+00 0. -1.
          2    1    1    2  501    0 -0.76731756070E+02  0.20000154209E+02  0.38131144030E+03  0.38946910413E+03  0.25500000000E-02 0. -1.
<mgrwt>
<rscale>  0 0.91895824E+02</rscale>
<asrwt>0</asrwt>
<pdfrwt beam="1">  1       11 0.10000000E+01 0.90543687E+02</pdfrwt>
<pdfrwt beam="2">  1        2 0.12938778E-02 0.91895824E+02</pdfrwt>
<totfact> 0.10755090E+04</totfact>
</mgrwt>
</event>
<event>
 5    1  0.1851087E-003  0.1464694E+03  0.7818608E-02  0.1204880E+00
         11   -1    0    0    0    0  0.00000000000E+00  0.00000000000E+00  0.10002335912E+04  0.10002335912E+04  0.51100000000E-03 0.  1.
          2   -1    0    0  501    0 -0.00000000000E+00 -0.00000000000E+00 -0.39786945924E+02  0.39786946006E+02  0.25500000000E-02 0.  1.
         11    1    1    2    0    0  0.95603825084E+02 -0.10585103597E+03  0.83523325008E+03  0.84732468112E+03  0.51100000000E-03 0.  1.
         22    1    1    2    0    0 -0.41877531870E+02  0.30231270582E+02  0.29834103472E+02  0.59646719327E+02  0.00000000000E+00 0.  1.
          2    1    1    2  501    0 -0.53726293214E+02  0.75619765387E+02  0.95379291754E+02  0.13304913679E+03  0.25500000000E-02 0.  1.
<mgrwt>
<rscale>  0 0.14646945E+03</rscale>
<asrwt>0</asrwt>
<pdfrwt beam="1">  1       11 0.10000000E+01 0.14263426E+03</pdfrwt>
<pdfrwt beam="2">  1        2 0.61224983E-02 0.14646945E+03</pdfrwt>
<totfact> 0.14175249E+03</totfact>
</mgrwt>
</event>
<event>
 5    1  0.1851087E-003  0.1549694E+03  0.7818608E-02  0.1194496E+00
         11   -1    0    0    0    0  0.00000000000E+00  0.00000000000E+00  0.10002476481E+04  0.10002476481E+04  0.51100000000E-03 0.  1.
         -2   -1    0    0    0  501 -0.00000000000E+00 -0.00000000000E+00 -0.65768141505E+02  0.65768141555E+02  0.25500000000E-02 0. -1.
         11    1    1    2    0    0 -0.15003788603E+03 -0.70185651172E+01  0.89306500914E+03  0.90560793838E+03  0.51100000000E-03 0.  1.
         22    1    1    2    0    0  0.17267263704E+02  0.91147259265E+01  0.15925647216E+02  0.25196485147E+02  0.00000000000E+00 0. -1.
         -2    1    1    2    0  501  0.13277062232E+03 -0.20961608093E+01  0.25488850256E+02  0.13521136615E+03  0.25500000000E-02 0. -1.
<mgrwt>
<rscale>  0 0.15496941E+03</rscale>
<asrwt>0</asrwt>
<pdfrwt beam="1">  1       11 0.10000000E+01 0.15020196E+03</pdfrwt>
<pdfrwt beam="2">  1       -2 0.10120681E-01 0.15496941E+03</pdfrwt>
<totfact> 0.50485198E+02</totfact>
</mgrwt>
</event>
<event>
 5    1  0.1851087E-003  0.6302036E+02  0.7818608E-02  0.1418695E+00
         11   -1    0    0    0    0  0.00000000000E+00  0.00000000000E+00  0.10000277841E+04  0.10000277841E+04  0.51100000000E-03 0. -1.
          2   -1    0    0  501    0 -0.00000000000E+00 -0.00000000000E+00 -0.11271501964E+02  0.11271502253E+02  0.25500000000E-02 0. -1.
         11    1    1    2    0    0 -0.53464675791E+02 -0.19637226711E+02  0.33615573877E+03  0.34094687700E+03  0.51100000000E-03 0. -1.
         22    1    1    2    0    0  0.87753725004E+02 -0.23746375058E+02  0.30097043045E+03  0.31440071022E+03  0.00000000000E+00 0. -1.
          2    1    1    2  501    0 -0.34289049213E+02  0.43383601769E+02  0.35163011288E+03  0.35595169909E+03  0.25500000000E-02 0. -1.
<mgrwt>
<rscale>  0 0.55298063E+02</rscale>
<asrwt>0</asrwt>
<pdfrwt beam="1">  1       11 0.10000000E+01 0.63020360E+02</pdfrwt>
<pdfrwt beam="2">  1        2 0.17341254E-02 0.55298063E+02</pdfrwt>
<totfact> 0.67139626E+03</totfact>
</mgrwt>
</event>
<event>
 5    1  0.1851087E-003  0.7176603E+02  0.7818608E-02  0.1516020E+00
         11   -1    0    0    0    0  0.00000000000E+00  0.00000000000E+00  0.99980430660E+03  0.99980430660E+03  0.51100000000E-03 0.  1.
          2   -1    0    0  501    0 -0.00000000000E+00 -0.00000000000E+00 -0.79459117717E+01  0.79459121808E+01  0.25500000000E-02 0.  1.
         11    1    1    2    0    0 -0.66902209708E+02  0.51023225924E+02  0.45697040465E+03  0.46465172546E+03  0.51100000000E-03 0.  1.
         22    1    1    2    0    0  0.20332747185E+02 -0.58172476232E+01  0.56506904812E+02  0.60334826340E+02  0.00000000000E+00 0. -1.
          2    1    1    2  501    0  0.46569462523E+02 -0.45205978301E+02  0.47838108537E+03  0.48276366699E+03  0.25500000000E-02 0.  1.
<mgrwt>
<rscale>  0 0.38958266E+02</rscale>
<asrwt>0</asrwt>
<pdfrwt beam="1">  1       11 0.10000000E+01 0.71766034E+02</pdfrwt>
<pdfrwt beam="2">  1        2 0.12222087E-02 0.38958266E+02</pdfrwt>
<totfact> 0.10074624E+04</totfact>
</mgrwt>
</event>
<event>
 5    1  0.1851087E-003  0.3025484E+03  0.7818608E-02  0.1083974E+00
         11   -1    0    0    0    0  0.00000000000E+00  0.00000000000E+00  0.10002758917E+04  0.10002758917E+04  0.51100000000E-03 0.  1.
         -2   -1    0    0    0  501 -0.00000000000E+00 -0.00000000000E+00 -0.15157799920E+03  0.15157799922E+03  0.25500000000E-02 0. -1.
         11    1    1    2    0    0  0.18233764673E+03 -0.23678013511E+03  0.78868978852E+03  0.84341178099E+03  0.51100000000E-03 0.  1.
         22    1    1    2    0    0 -0.15655430944E+03  0.20772584581E+03  0.67840872151E+02  0.26881529487E+03  0.00000000000E+00 0. -1.
         -2    1    1    2    0  501 -0.25783337287E+02  0.29054289304E+02 -0.78327681702E+01  0.39626815066E+02  0.25500000000E-02 0. -1.
<mgrwt>
<rscale>  0 0.30254845E+03</rscale>
<asrwt>0</asrwt>
<pdfrwt beam="1">  1       11 0.10000000E+01 0.29885088E+03</pdfrwt>
<pdfrwt beam="2">  1       -2 0.23326125E-01 0.30254845E+03</pdfrwt>
<totfact> 0.12954607E+02</totfact>
</mgrwt>
</event>
<event>
 5    1  0.1851087E-003  0.2282082E+03  0.7818608E-02  0.1127907E+00
         11   -1    0    0    0    0  0.00000000000E+00  0.00000000000E+00  0.10002989888E+04  0.10002989888E+04  0.51100000000E-03 0. -1.
          2   -1    0    0  501    0 -0.00000000000E+00 -0.00000000000E+00 -0.76235542219E+02  0.76235542262E+02  0.25500000000E-02 0. -1.
         11    1    1    2    0    0 -0.11785606712E+03  0.18519420658E+03  0.77126582563E+03  0.80189645248E+03  0.51100000000E-03 0. -1.
         22    1    1    2    0    0  0.29985610216E+02 -0.10482514097E+03  0.77036225092E+02  0.13349916470E+03  0.00000000000E+00 0. -1.
          2    1    1    2  501    0  0.87870456904E+02 -0.80369065605E+02  0.75761395853E+02  0.14113891388E+03  0.25500000000E-02 0. -1.
<mgrwt>
<rscale>  0 0.22820815E+03</rscale>
<asrwt>0</asrwt>
<pdfrwt beam="1">  1       11 0.10000000E+01 0.21951525E+03</pdfrwt>
<pdfrwt beam="2">  1        2 0.11732051E-01 0.22820815E+03</pdfrwt>
<totfact> 0.64203920E+02</totfact>
</mgrwt>
</event>
<event>
 5    1  0.1851087E-003  0.1154866E+04  0.7818608E-02  0.9153306E-01
         11   -1    0    0    0    0  0.00000000000E+00  0.00000000000E+00  0.10002337392E+04  0.10002337392E+04  0.51100000000E-03 0. -1.
          2   -1    0    0  501    0 -0.00000000000E+00 -0.00000000000E+00 -0.14695325962E+04  0.14695325962E+04  0.25500000000E-02 0. -1.
         11    1    1    2    0    0  0.84899858316E+03  0.71990641137E+03  0.20588336322E+03  0.11320122767E+04  0.51100000000E-03 0. -1.
         22    1    1    2    0    0 -0.42172074985E+03 -0.54445919763E+03 -0.46009551427E+03  0.82823432130E+03  0.00000000000E+00 0. -1.
          2    1    1    2  501    0 -0.42727783332E+03 -0.17544721375E+03 -0.21508670603E+03  0.50951973737E+03  0.25500000000E-02 0. -1.
<mgrwt>
<rscale>  0 0.11548657E+04</rscale>
<asrwt>0</asrwt>
<pdfrwt beam="1">  1       11 0.10000000E+01 0.11131324E+04</pdfrwt>
<pdfrwt beam="2">  1        2 0.22613478E+00 0.11548657E+04</pdfrwt>
<totfact> 0.16076609E+01</totfact>
</mgrwt>
</event>
<event>
 5    1  0.1851087E-003  0.1637892E+03  0.7818608E-02  0.1184484E+00
         11   -1    0    0    0    0  0.00000000000E+00  0.00000000000E+00  0.10001159690E+04  0.10001159690E+04  0.51100000000E-03 0. -1.
         -2   -1    0    0    0  501 -0.00000000000E+00 -0.00000000000E+00 -0.22516364599E+03  0.22516364601E+03  0.25500000000E-02 0. -1.
         11    1    1    2    0    0  0.65014600068E+02  0.14682124362E+03  0.96277445081E+03  0.97607275289E+03  0.51100000000E-03 0. -1.
         22    1    1    2    0    0 -0.94680820223E+01 -0.44082456044E+02 -0.36226104539E+02  0.57838033837E+02  0.00000000000E+00 0.  1.
         -2    1    1    2    0  501 -0.55546518045E+02 -0.10273878758E+03 -0.15159602329E+03  0.19136882825E+03  0.25500000000E-02 0. -1.
<mgrwt>
<rscale>  0 0.16378922E+03</rscale>
<asrwt>0</asrwt>
<pdfrwt beam="1">  1       11 0.10000000E+01 0.16057203E+03</pdfrwt>
<pdfrwt beam="2">  1       -2 0.34644577E-01 0.16378922E+03</pdfrwt>
<totfact> 0.62921400E+01</totfact>
</mgrwt>
</event>
<event>
 5    1  0.1851087E-003  0.2439005E+03  0.7818608E-02  0.1117221E+00
         11   -1    0    0    0    0  0.00000000000E+00  0.00000000000E+00  0.10000250007E+04  0.10000250007E+04  0.51100000000E-03 0. -1.
          2   -1    0    0  501    0 -0.00000000000E+00 -0.00000000000E+00 -0.61617897675E+02  0.61617897728E+02  0.25500000000E-02 0. -1.
         11    1    1    2    0    0  0.20002368672E+02  0.22990825555E+03  0.30187066279E+03  0.37997868069E+03  0.51100000000E-03 0. -1.
         22    1    1    2    0    0  0.13224424626E+02 -0.17375005454E+03  0.40031066729E+03  0.43659202604E+03  0.00000000000E+00 0. -1.
          2    1    1    2  501    0 -0.33226793298E+02 -0.56158201009E+02  0.23622577294E+03  0.24507219169E+03  0.25500000000E-02 0. -1.
<mgrwt>
<rscale>  0 0.24390052E+03</rscale>
<asrwt>0</asrwt>
<pdfrwt beam="1">  1       11 0.10000000E+01 0.23077685E+03</pdfrwt>
<pdfrwt beam="2">  1        2 0.94799133E-02 0.24390052E+03</pdfrwt>
<totfact> 0.83857668E+02</totfact>
</mgrwt>
</event>
<event>
 5    1  0.1851087E-003  0.9032219E+02  0.7818608E-02  0.1472666E+00
         11   -1    0    0    0    0  0.00000000000E+00  0.00000000000E+00  0.10001595447E+04  0.10001595447E+04  0.51100000000E-03 0. -1.
          2   -1    0    0  501    0 -0.00000000000E+00 -0.00000000000E+00 -0.14416111099E+02  0.14416111325E+02  0.25500000000E-02 0. -1.
         11    1    1    2    0    0  0.35749096798E+02  0.98111884587E+02  0.38841838223E+03  0.40220986993E+03  0.51100000000E-03 0. -1.
         22    1    1    2    0    0 -0.60691768683E+02 -0.60333647448E+02  0.45621291954E+03  0.46417008495E+03  0.00000000000E+00 0. -1.
          2    1    1    2  501    0  0.24942671886E+02 -0.37778237139E+02  0.14111213183E+03  0.14819570115E+03  0.25500000000E-02 0. -1.
<mgrwt>
<rscale>  0 0.45269549E+02</rscale>
<asrwt>0</asrwt>
<pdfrwt beam="1">  1       11 0.10000000E+01 0.90322192E+02</pdfrwt>
<pdfrwt beam="2">  1        2 0.22182170E-02 0.45269549E+02</pdfrwt>
<totfact> 0.47038228E+03</totfact>
</mgrwt>
</event>
<event>
 5    1  0.1851087E-003  0.1637668E+03  0.7818608E-02  0.1184509E+00
         11   -1    0    0    0    0  0.00000000000E+00  0.00000000000E+00  0.10002548576E+04  0.10002548576E+04  0.51100000000E-03 0.  1.
          2   -1    0    0  501    0 -0.00000000000E+00 -0.00000000000E+00 -0.40864908738E+02  0.40864908818E+02  0.25500000000E-02 0. -1.
         11    1    1    2    0    0 -0.70836961598E+02 -0.14530504936E+03  0.78665561395E+03  0.80309307521E+03  0.51100000000E-03 0.  1.
         22    1    1    2    0    0  0.96348338136E-01  0.18898357389E+02  0.18970802163E+02  0.26777761851E+02  0.00000000000E+00 0. -1.
          2    1    1    2  501    0  0.70740613260E+02  0.12640669197E+03  0.15376353272E+03  0.21124892932E+03  0.25500000000E-02 0. -1.
<mgrwt>
<rscale>  0 0.16376677E+03</rscale>
<asrwt>0</asrwt>
<pdfrwt beam="1">  1       11 0.10000000E+01 0.16165220E+03</pdfrwt>
<pdfrwt beam="2">  1        2 0.62885111E-02 0.16376677E+03</pdfrwt>
<totfact> 0.13805176E+03</totfact>
</mgrwt>
</event>
<event>
 5    1  0.1851087E-003  0.1350492E+03  0.7818608E-02  0.1220150E+00
         11   -1    0    0    0    0  0.00000000000E+00  0.00000000000E+00  0.10001524969E+04  0.10001524969E+04  0.51100000000E-03 0. -1.
          2   -1    0    0  501    0 -0.00000000000E+00 -0.00000000000E+00 -0.27890622088E+02  0.27890622204E+02  0.25500000000E-02 0. -1.
         11    1    1    2    0    0 -0.10950226435E+03  0.72834952872E+02  0.79178148014E+03  0.80262917250E+03  0.51100000000E-03 0. -1.
         22    1    1    2    0    0  0.49352720034E+02 -0.18901193227E+02  0.55861260564E+02  0.76898806961E+02  0.00000000000E+00 0. -1.
          2    1    1    2  501    0  0.60149544313E+02 -0.53933759645E+02  0.12461913410E+03  0.14851513964E+03  0.25500000000E-02 0. -1.
<mgrwt>
<rscale>  0 0.13504916E+03</rscale>
<asrwt>0</asrwt>
<pdfrwt beam="1">  1       11 0.10000000E+01 0.13151303E+03</pdfrwt>
<pdfrwt beam="2">  1        2 0.42915192E-02 0.13504916E+03</pdfrwt>
<totfact> 0.22384916E+03</totfact>
</mgrwt>
</event>
<event>
 5    1  0.1851087E-003  0.3117417E+03  0.7818608E-02  0.1079514E+00
         11   -1    0    0    0    0  0.00000000000E+00  0.00000000000E+00  0.10000597075E+04  0.10000597075E+04  0.51100000000E-03 0. -1.
         -2   -1    0    0    0  501 -0.00000000000E+00 -0.00000000000E+00 -0.23723053532E+03  0.23723053533E+03  0.25500000000E-02 0.  1.
         11    1    1    2    0    0  0.46119920440E+02 -0.29890648703E+03  0.72372022691E+03  0.78437433786E+03  0.51100000000E-03 0. -1.
         22    1    1    2    0    0  0.87713568681E+02  0.13551990176E+02  0.98069206997E+02  0.13226827257E+03  0.00000000000E+00 0. -1.
         -2    1    1    2    0  501 -0.13383348912E+03  0.28535449685E+03 -0.58960261741E+02  0.32064763239E+03  0.25500000000E-02 0.  1.
<mgrwt>
<rscale>  0 0.31174169E+03</rscale>
<asrwt>0</asrwt>
<pdfrwt beam="1">  1       11 0.10000000E+01 0.88754305E+02</pdfrwt>
<pdfrwt beam="2">  1       -2 0.36499184E-01 0.31174169E+03</pdfrwt>
<totfact> 0.57350809E+01</totfact>
</mgrwt>
</event>
<event>
 5    1  0.1851087E-003  0.1142051E+03  0.7818608E-02  0.1252975E+00
         11   -1    0    0    0    0  0.00000000000E+00  0.00000000000E+00  0.10001722242E+04  0.10001722242E+04  0.51100000000E-03 0.  1.
          2   -1    0    0  501    0 -0.00000000000E+00 -0.00000000000E+00 -0.13690089147E+02  0.13690089385E+02  0.25500000000E-02 0.  1.
         11    1    1    2    0    0 -0.10192270449E+03  0.43972846857E+02  0.34889884759E+03  0.36613147202E+03  0.51100000000E-03 0.  1.
         22    1    1    2    0    0  0.75469790601E+01 -0.12709149617E+02  0.80567279199E+02  0.81911939633E+02  0.00000000000E+00 0. -1.
          2    1    1    2  501    0  0.94375725435E+02 -0.31263697240E+02  0.55701600825E+03  0.56581890192E+03  0.25500000000E-02 0.  1.
<mgrwt>
<rscale>  0 0.11420506E+03</rscale>
<asrwt>0</asrwt>
<pdfrwt beam="1">  1       11 0.10000000E+01 0.11100388E+03</pdfrwt>
<pdfrwt beam="2">  1        2 0.21065303E-02 0.11420506E+03</pdfrwt>
<totfact> 0.57052739E+03</totfact>
</mgrwt>
</event>
<event>
 5    1  0.1851087E-003  0.3587543E+03  0.7818608E-02  0.1059078E+00
         11   -1    0    0    0    0  0.00000000000E+00  0.00000000000E+00  0.10002773248E+04  0.10002773248E+04  0.51100000000E-03 0.  1.
         -2   -1    0    0    0  501 -0.00000000000E+00 -0.00000000000E+00 -0.33239747646E+03  0.33239747647E+03  0.25500000000E-02 0. -1.
         11    1    1    2    0    0  0.19847935497E+03 -0.29253467866E+03  0.85705432372E+03  0.92709908121E+03  0.51100000000E-03 0.  1.
         22    1    1    2    0    0 -0.69483822471E+01  0.43475123362E+02 -0.30771653643E+02  0.53714625895E+02  0.00000000000E+00 0.  1.
         -2    1    1    2    0  501 -0.19153097272E+03  0.24905955530E+03 -0.15840282178E+03  0.35186109412E+03  0.25500000000E-02 0. -1.
<mgrwt>
<rscale>  0 0.35875435E+03</rscale>
<asrwt>0</asrwt>
<pdfrwt beam="1">  1       11 0.10000000E+01 0.35351180E+03</pdfrwt>
<pdfrwt beam="2">  1       -2 0.51152254E-01 0.35875435E+03</pdfrwt>
<totfact> 0.29650341E+01</totfact>
</mgrwt>
</event>
<event>
 5    1  0.1851087E-003  0.2672702E+03  0.7818608E-02  0.1102852E+00
         11   -1    0    0    0    0  0.00000000000E+00  0.00000000000E+00  0.10002912453E+04  0.10002912453E+04  0.51100000000E-03 0. -1.
          2   -1    0    0  501    0 -0.00000000000E+00 -0.00000000000E+00 -0.51502995639E+03  0.51502995639E+03  0.25500000000E-02 0. -1.
         11    1    1    2    0    0  0.24826685772E+03 -0.51256295714E+02  0.94779991974E+03  0.98111585878E+03  0.51100000000E-03 0. -1.
         22    1    1    2    0    0 -0.14091874342E+03 -0.23254102791E+01 -0.30669549969E+03  0.33752870887E+03  0.00000000000E+00 0. -1.
          2    1    1    2  501    0 -0.10734811430E+03  0.53581705993E+02 -0.15584313112E+03  0.19667663406E+03  0.25500000000E-02 0. -1.
<mgrwt>
<rscale>  0 0.26727021E+03</rscale>
<asrwt>0</asrwt>
<pdfrwt beam="1">  1       11 0.10000000E+01 0.25350274E+03</pdfrwt>
<pdfrwt beam="2">  1        2 0.79258453E-01 0.26727021E+03</pdfrwt>
<totfact> 0.74980759E+01</totfact>
</mgrwt>
</event>
<event>
 5    1  0.1851087E-003  0.3789812E+03  0.7818608E-02  0.1051311E+00
         11   -1    0    0    0    0  0.00000000000E+00  0.00000000000E+00  0.10002480649E+04  0.10002480649E+04  0.51100000000E-03 0.  1.
          2   -1    0    0  501    0 -0.00000000000E+00 -0.00000000000E+00 -0.19755171869E+03  0.19755171871E+03  0.25500000000E-02 0.  1.
         11    1    1    2    0    0 -0.16391703220E+03  0.33065251567E+03  0.72121994455E+03  0.81015929790E+03  0.51100000000E-03 0.  1.
         22    1    1    2    0    0  0.85068090091E+02 -0.22087750828E+03  0.15394785181E+02  0.23719286040E+03  0.00000000000E+00 0. -1.
          2    1    1    2  501    0  0.78848942106E+02 -0.10977500739E+03  0.66081616503E+02  0.15044762532E+03  0.25500000000E-02 0.  1.
<mgrwt>
<rscale>  0 0.37898119E+03</rscale>
<asrwt>0</asrwt>
<pdfrwt beam="1">  1       11 0.10000000E+01 0.36905268E+03</pdfrwt>
<pdfrwt beam="2">  1        2 0.30400111E-01 0.37898119E+03</pdfrwt>
<totfact> 0.21487009E+02</totfact>
</mgrwt>
</event>
<event>
 5    1  0.1851087E-003  0.2619688E+03  0.7818608E-02  0.1105966E+00
         11   -1    0    0    0    0  0.00000000000E+00  0.00000000000E+00  0.10004224376E+04  0.10004224376E+04  0.51100000000E-03 0.  1.
          2   -1    0    0  501    0 -0.00000000000E+00 -0.00000000000E+00 -0.10402781853E+03  0.10402781856E+03  0.25500000000E-02 0.  1.
         11    1    1    2    0    0  0.19836181354E+02 -0.25417814818E+03  0.77474121356E+03  0.81561262441E+03  0.51100000000E-03 0.  1.
         22    1    1    2    0    0 -0.56223244729E+01  0.40079324866E+02 -0.31798063974E+01  0.40596477470E+02  0.00000000000E+00 0.  1.
          2    1    1    2  501    0 -0.14213856881E+02  0.21409882331E+03  0.12483321186E+03  0.24824115424E+03  0.25500000000E-02 0.  1.
<mgrwt>
<rscale>  0 0.26196875E+03</rscale>
<asrwt>0</asrwt>
<pdfrwt beam="1">  1       11 0.10000000E+01 0.25495099E+03</pdfrwt>
<pdfrwt beam="2">  1        2 0.16011040E-01 0.26196875E+03</pdfrwt>
<totfact> 0.44409128E+02</totfact>
</mgrwt>
</event>
<event>
 5    1  0.1851087E-003  0.1556996E+03  0.7818608E-02  0.1193639E+00
         11   -1    0    0    0    0  0.00000000000E+00  0.00000000000E+00  0.10002220745E+04  0.10002220745E+04  0.51100000000E-03 0. -1.
          2   -1    0    0  501    0 -0.00000000000E+00 -0.00000000000E+00 -0.64510359141E+02  0.64510359192E+02  0.25500000000E-02 0. -1.
         11    1    1    2    0    0 -0.14617499418E+03  0.17476156642E+02  0.89052082538E+03  0.90260727086E+03  0.51100000000E-03 0. -1.
         22    1    1    2    0    0  0.48318687957E+02 -0.57134416723E+01 -0.92524387150E+01  0.49527231336E+02  0.00000000000E+00 0. -1.
          2    1    1    2  501    0  0.97856306220E+02 -0.11762714970E+02  0.54443328687E+02  0.11259793149E+03  0.25500000000E-02 0. -1.
<mgrwt>
<rscale>  0 0.15569956E+03</rscale>
<asrwt>0</asrwt>
<pdfrwt beam="1">  1       11 0.10000000E+01 0.14721598E+03</pdfrwt>
<pdfrwt beam="2">  1        2 0.99268744E-02 0.15569956E+03</pdfrwt>
<totfact> 0.77347235E+02</totfact>
</mgrwt>
</event>
<event>
 5    1  0.1851087E-003  0.1565415E+03  0.7818608E-02  0.1357790E+00
         11   -1    0    0    0    0  0.00000000000E+00  0.00000000000E+00  0.10002638685E+04  0.10002638685E+04  0.51100000000E-03 0.  1.
          2   -1    0    0  501    0 -0.00000000000E+00 -0.00000000000E+00 -0.66680419053E+02  0.66680419102E+02  0.25500000000E-02 0.  1.
         11    1    1    2    0    0 -0.63383299196E+02  0.14700955619E+03  0.86375946034E+03  0.87847006640E+03  0.51100000000E-03 0.  1.
         22    1    1    2    0    0  0.28973856519E+02 -0.13380176986E+02 -0.36867033812E+01  0.32126395372E+02  0.00000000000E+00 0. -1.
          2    1    1    2  501    0  0.34409442677E+02 -0.13362937921E+03  0.73510692525E+02  0.15634782587E+03  0.25500000000E-02 0.  1.
<mgrwt>
<rscale>  0 0.70681622E+02</rscale>
<asrwt>0</asrwt>
<pdfrwt beam="1">  1       11 0.10000000E+01 0.15654155E+03</pdfrwt>
<pdfrwt beam="2">  1        2 0.10261233E-01 0.70681622E+02</pdfrwt>
<totfact> 0.70823043E+02</totfact>
</mgrwt>
</event>
<event>
 5    1  0.1851087E-003  0.9740564E+02  0.7818608E-02  0.1285848E+00
         11   -1    0    0    0    0  0.00000000000E+00  0.00000000000E+00  0.10002713464E+04  0.10002713464E+04  0.51100000000E-03 0.  1.
          2   -1    0    0  501    0 -0.00000000000E+00 -0.00000000000E+00 -0.93348386978E+01  0.93348390461E+01  0.25500000000E-02 0.  1.
         11    1    1    2    0    0  0.93823704553E+02  0.33443875396E+01  0.41462620925E+03  0.42512229518E+03  0.51100000000E-03 0.  1.
         22    1    1    2    0    0 -0.35948363452E+02  0.40846712130E+01  0.15586711397E+03  0.16001102022E+03  0.00000000000E+00 0.  1.
          2    1    1    2  501    0 -0.57875341101E+02 -0.74290587526E+01  0.42044318453E+03  0.42447287009E+03  0.25500000000E-02 0.  1.
<mgrwt>
<rscale>  0 0.97405636E+02</rscale>
<asrwt>0</asrwt>
<pdfrwt beam="1">  1       11 0.10000000E+01 0.93883339E+02</pdfrwt>
<pdfrwt beam="2">  1        2 0.14365187E-02 0.97405636E+02</pdfrwt>
<totfact> 0.94041530E+03</totfact>
</mgrwt>
</event>
<event>
 5    1  0.1851087E-003  0.2108446E+03  0.7818608E-02  0.1226465E+00
         11   -1    0    0    0    0  0.00000000000E+00  0.00000000000E+00  0.10002830620E+04  0.10002830620E+04  0.51100000000E-03 0.  1.
          2   -1    0    0  501    0 -0.00000000000E+00 -0.00000000000E+00 -0.94987783387E+03  0.94987783387E+03  0.25500000000E-02 0.  1.
         11    1    1    2    0    0  0.19479757371E+03 -0.79390307992E+02  0.94867891916E+03  0.97172043685E+03  0.51100000000E-03 0.  1.
         22    1    1    2    0    0  0.69742002409E+01 -0.80681177004E+02 -0.58077820222E+02  0.99655029945E+02  0.00000000000E+00 0. -1.
          2    1    1    2  501    0 -0.20177177395E+03  0.16007148500E+03 -0.84019587079E+03  0.87878542909E+03  0.25500000000E-02 0.  1.
<mgrwt>
<rscale>  0 0.13066992E+03</rscale>
<asrwt>0</asrwt>
<pdfrwt beam="1">  1       11 0.10000000E+01 0.21084460E+03</pdfrwt>
<pdfrwt beam="2">  1        2 0.14617641E+00 0.13066992E+03</pdfrwt>
<totfact> 0.36477297E+01</totfact>
</mgrwt>
</event>
<event>
 5    1  0.1851087E-003  0.1593736E+03  0.7818608E-02  0.1189406E+00
         11   -1    0    0    0    0  0.00000000000E+00  0.00000000000E+00  0.99997267070E+03  0.99997267070E+03  0.51100000000E-03 0.  1.
          2   -1    0    0  501    0 -0.00000000000E+00 -0.00000000000E+00 -0.10796657753E+03  0.10796657756E+03  0.25500000000E-02 0.  1.
         11    1    1    2    0    0  0.77887762994E+02 -0.13671875392E+03  0.93072322088E+03  0.94393020674E+03  0.51100000000E-03 0.  1.
         22    1    1    2    0    0 -0.30946754732E+01  0.14998553654E+02  0.20309008841E+01  0.15448565836E+02  0.00000000000E+00 0.  1.
          2    1    1    2  501    0 -0.74793087521E+02  0.12172020027E+03 -0.40748028598E+02  0.14856047569E+03  0.25500000000E-02 0.  1.
<mgrwt>
<rscale>  0 0.15937362E+03</rscale>
<asrwt>0</asrwt>
<pdfrwt beam="1">  1       11 0.10000000E+01 0.15734841E+03</pdfrwt>
<pdfrwt beam="2">  1        2 0.16609788E-01 0.15937362E+03</pdfrwt>
<totfact> 0.41803856E+02</totfact>
</mgrwt>
</event>
<event>
 5    1  0.1851087E-003  0.1808648E+03  0.7818608E-02  0.1454388E+00
         11   -1    0    0    0    0  0.00000000000E+00  0.00000000000E+00  0.10000073384E+04  0.10000073384E+04  0.51100000000E-03 0. -1.
          2   -1    0    0  501    0 -0.00000000000E+00 -0.00000000000E+00 -0.36836070737E+02  0.36836070825E+02  0.25500000000E-02 0. -1.
         11    1    1    2    0    0 -0.16839063778E+03 -0.77781715400E+02  0.53463764250E+03  0.56590000081E+03  0.51100000000E-03 0. -1.
         22    1    1    2    0    0  0.55335736654E+01  0.11687349348E+02  0.81186962820E+01  0.15268523229E+02  0.00000000000E+00 0. -1.
          2    1    1    2  501    0  0.16285706411E+03  0.66094366053E+02  0.42041492891E+03  0.45567488522E+03  0.25500000000E-02 0. -1.
<mgrwt>
<rscale>  0 0.48361038E+02</rscale>
<asrwt>0</asrwt>
<pdfrwt beam="1">  1       11 0.10000000E+01 0.18086485E+03</pdfrwt>
<pdfrwt beam="2">  1        2 0.56671292E-02 0.48361038E+02</pdfrwt>
<totfact> 0.14208155E+03</totfact>
</mgrwt>
</event>
<event>
 5    1  0.1851087E-003  0.1965421E+03  0.7818608E-02  0.1152690E+00
         11   -1    0    0    0    0  0.00000000000E+00  0.00000000000E+00  0.10005839339E+04  0.10005839339E+04  0.51100000000E-03 0. -1.
          2   -1    0    0  501    0 -0.00000000000E+00 -0.00000000000E+00 -0.94809518576E+02  0.94809518610E+02  0.25500000000E-02 0.  1.
         11    1    1    2    0    0 -0.18481742520E+03 -0.52755473471E+02  0.87572390699E+03  0.89656733261E+03  0.51100000000E-03 0. -1.
         22    1    1    2    0    0  0.94538884326E+01  0.65451064360E+01  0.11936425081E+02  0.16573854967E+02  0.00000000000E+00 0.  1.
          2    1    1    2  501    0  0.17536353677E+03  0.46210367035E+02  0.18114083243E+02  0.18225226492E+03  0.25500000000E-02 0.  1.
<mgrwt>
<rscale>  0 0.19654209E+03</rscale>
<asrwt>0</asrwt>
<pdfrwt beam="1">  1       11 0.10000000E+01 0.19219943E+03</pdfrwt>
<pdfrwt beam="2">  1        2 0.14594597E-01 0.19654209E+03</pdfrwt>
<totfact> 0.49050029E+02</totfact>
</mgrwt>
</event>
<event>
 5    1  0.1851087E-003  0.1353442E+03  0.7818608E-02  0.1219735E+00
         11   -1    0    0    0    0  0.00000000000E+00  0.00000000000E+00  0.99966545277E+03  0.99966545277E+03  0.51100000000E-03 0. -1.
          2   -1    0    0  501    0 -0.00000000000E+00 -0.00000000000E+00 -0.20079816361E+02  0.20079816523E+02  0.25500000000E-02 0. -1.
         11    1    1    2    0    0 -0.70004458428E+02  0.10127357292E+03  0.67932267042E+03  0.69038847856E+03  0.51100000000E-03 0. -1.
         22    1    1    2    0    0 -0.21312657667E+01 -0.37357379818E+02  0.10782763329E+03  0.11413550991E+03  0.00000000000E+00 0. -1.
          2    1    1    2  501    0  0.72135724195E+02 -0.63916193105E+02  0.19243533269E+03  0.21522128083E+03  0.25500000000E-02 0. -1.
<mgrwt>
<rscale>  0 0.13534418E+03</rscale>
<asrwt>0</asrwt>
<pdfrwt beam="1">  1       11 0.10000000E+01 0.12311361E+03</pdfrwt>
<pdfrwt beam="2">  1        2 0.30881690E-02 0.13534418E+03</pdfrwt>
<totfact> 0.34692546E+03</totfact>
</mgrwt>
</event>
<event>
 5    1  0.1851087E-003  0.1830610E+03  0.7818608E-02  0.1164873E+00
         11   -1    0    0    0    0  0.00000000000E+00  0.00000000000E+00  0.99978769588E+03  0.99978769588E+03  0.51100000000E-03 0. -1.
         -2   -1    0    0    0  501 -0.00000000000E+00 -0.00000000000E+00 -0.56750015738E+02  0.56750015795E+02  0.25500000000E-02 0.  1.
         11    1    1    2    0    0 -0.13735924406E+02 -0.20571791693E+03  0.26551387202E+03  0.33616387849E+03  0.51100000000E-03 0. -1.
         22    1    1    2    0    0 -0.32308222480E+02  0.53081962932E+02  0.35723174801E+03  0.36259624628E+03  0.00000000000E+00 0.  1.
         -2    1    1    2    0  501  0.46044146886E+02  0.15263595400E+03  0.32029206011E+03  0.35777758691E+03  0.25500000000E-02 0.  1.
<mgrwt>
<rscale>  0 0.18306099E+03</rscale>
<asrwt>0</asrwt>
<pdfrwt beam="1">  1       11 0.10000000E+01 0.62141098E+02</pdfrwt>
<pdfrwt beam="2">  1       -2 0.87289178E-02 0.18306099E+03</pdfrwt>
<totfact> 0.64332571E+02</totfact>
</mgrwt>
</event>
<event>
 5    1  0.1851087E-003  0.5151150E+02  0.7818608E-02  0.1455409E+00
         11   -1    0    0    0    0  0.00000000000E+00  0.00000000000E+00  0.10004308077E+04  0.10004308077E+04  0.51100000000E-03 0.  1.
          2   -1    0    0  501    0 -0.00000000000E+00 -0.00000000000E+00 -0.66286166020E+01  0.66286170925E+01  0.25500000000E-02 0.  1.
         11    1    1    2    0    0  0.47545370667E+02  0.38773639102E+02  0.37113489618E+03  0.37617159452E+03  0.51100000000E-03 0.  1.
         22    1    1    2    0    0 -0.12499674444E+01 -0.52119763987E+02  0.27504404137E+03  0.27994152409E+03  0.00000000000E+00 0.  1.
          2    1    1    2  501    0 -0.46295403223E+02  0.13346124885E+02  0.34762325351E+03  0.35094630614E+03  0.25500000000E-02 0.  1.
<mgrwt>
<rscale>  0 0.48180737E+02</rscale>
<asrwt>0</asrwt>
<pdfrwt beam="1">  1       11 0.10000000E+01 0.51511496E+02</pdfrwt>
<pdfrwt beam="2">  1        2 0.10202265E-02 0.48180737E+02</pdfrwt>
<totfact> 0.13331869E+04</totfact>
</mgrwt>
</event>
<event>
 5    1  0.1851087E-003  0.2254529E+03  0.7818608E-02  0.1210147E+00
         11   -1    0    0    0    0  0.00000000000E+00  0.00000000000E+00  0.99995410419E+03  0.99995410419E+03  0.51100000000E-03 0. -1.
          2   -1    0    0  501    0 -0.00000000000E+00 -0.00000000000E+00 -0.82211263053E+03  0.82211263053E+03  0.25500000000E-02 0. -1.
         11    1    1    2    0    0 -0.22427250485E+03 -0.41722349994E+02  0.96298906982E+03  0.98963976249E+03  0.51100000000E-03 0. -1.
         22    1    1    2    0    0  0.81263626634E+02 -0.38522102768E+02 -0.45493453243E+03  0.46373824321E+03  0.00000000000E+00 0. -1.
          2    1    1    2  501    0  0.14300887822E+03  0.80244452762E+02 -0.33021306372E+03  0.36868872902E+03  0.25500000000E-02 0. -1.
<mgrwt>
<rscale>  0 0.14239167E+03</rscale>
<asrwt>0</asrwt>
<pdfrwt beam="1">  1       11 0.10000000E+01 0.22545291E+03</pdfrwt>
<pdfrwt beam="2">  1        2 0.12647306E+00 0.14239167E+03</pdfrwt>
<totfact> 0.43853820E+01</totfact>
</mgrwt>
</event>
<event>
 5    1  0.1851087E-003  0.2013401E+03  0.7818608E-02  0.1148613E+00
         11   -1    0    0    0    0  0.00000000000E+00  0.00000000000E+00  0.10006142988E+04  0.10006142988E+04  0.51100000000E-03 0. -1.
         -2   -1    0    0    0  501 -0.00000000000E+00 -0.00000000000E+00 -0.94519228375E+02  0.94519228410E+02  0.25500000000E-02 0. -1.
         11    1    1    2    0    0  0.15226283836E+02  0.19226899987E+03  0.86932493055E+03  0.89046338662E+03  0.51100000000E-03 0. -1.
         22    1    1    2    0    0  0.12346597619E+02 -0.40661034711E+02  0.26829041582E+02  0.50254907111E+02  0.00000000000E+00 0. -1.
         -2    1    1    2    0  501 -0.27572881454E+02 -0.15160796516E+03  0.99410983061E+01  0.15441523349E+03  0.25500000000E-02 0. -1.
<mgrwt>
<rscale>  0 0.20134007E+03</rscale>
<asrwt>0</asrwt>
<pdfrwt beam="1">  1       11 0.10000000E+01 0.19287096E+03</pdfrwt>
<pdfrwt beam="2">  1       -2 0.14550352E-01 0.20134007E+03</pdfrwt>
<totfact> 0.28514349E+02</totfact>
</mgrwt>
</event>
<event>
 5    1  0.1851087E-003  0.2205749E+03  0.7818608E-02  0.1342629E+00
         11   -1    0    0    0    0  0.00000000000E+00  0.00000000000E+00  0.10003583814E+04  0.10003583814E+04  0.51100000000E-03 0.  1.
          2   -1    0    0  501    0 -0.00000000000E+00 -0.00000000000E+00 -0.49096001786E+03  0.49096001787E+03  0.25500000000E-02 0.  1.
         11    1    1    2    0    0  0.15198453676E+03  0.16255864713E+03  0.94027044988E+03  0.96624693121E+03  0.51100000000E-03 0.  1.
         22    1    1    2    0    0 -0.81598069838E+02 -0.13551648151E+03 -0.42011024845E+03  0.44890487034E+03  0.00000000000E+00 0.  1.
          2    1    1    2  501    0 -0.70386466920E+02 -0.27042165614E+02 -0.10761837890E+02  0.76166597717E+02  0.25500000000E-02 0.  1.
<mgrwt>
<rscale>  0 0.75402476E+02</rscale>
<asrwt>0</asrwt>
<pdfrwt beam="1">  1       11 0.10000000E+01 0.22057491E+03</pdfrwt>
<pdfrwt beam="2">  1        2 0.75559378E-01 0.75402476E+02</pdfrwt>
<totfact> 0.80547514E+01</totfact>
</mgrwt>
</event>
<event>
 5    1  0.1851087E-003  0.2097886E+03  0.7818608E-02  0.1141734E+00
         11   -1    0    0    0    0  0.00000000000E+00  0.00000000000E+00  0.10001645054E+04  0.10001645054E+04  0.51100000000E-03 0.  1.
          2   -1    0    0  501    0 -0.00000000000E+00 -0.00000000000E+00 -0.64269641813E+02  0.64269641863E+02  0.25500000000E-02 0.  1.
         11    1    1    2    0    0 -0.18429497341E+03 -0.91234357899E+02  0.76997619281E+03  0.79696404108E+03  0.51100000000E-03 0.  1.
         22    1    1    2    0    0  0.38795639044E+02  0.34476211158E+02  0.27274867989E+02  0.58631298540E+02  0.00000000000E+00 0.  1.
          2    1    1    2  501    0  0.14549933436E+03  0.56758146740E+02  0.13864380280E+03  0.20883880766E+03  0.25500000000E-02 0.  1.
<mgrwt>
<rscale>  0 0.20978859E+03</rscale>
<asrwt>0</asrwt>
<pdfrwt beam="1">  1       11 0.10000000E+01 0.20564130E+03</pdfrwt>
<pdfrwt beam="2">  1        2 0.98892635E-02 0.20978859E+03</pdfrwt>
<totfact> 0.78942648E+02</totfact>
</mgrwt>
</event>
<event>
 5    1  0.1851087E-003  0.1628667E+03  0.7818608E-02  0.1286793E+00
         11   -1    0    0    0    0  0.00000000000E+00  0.00000000000E+00  0.10002104646E+04  0.10002104646E+04  0.51100000000E-03 0. -1.
          2   -1    0    0  501    0 -0.00000000000E+00 -0.00000000000E+00 -0.71067585640E+03  0.71067585641E+03  0.25500000000E-02 0. -1.
         11    1    1    2    0    0 -0.93661957865E+02 -0.13442121511E+03  0.97188787054E+03  0.98560015134E+03  0.51100000000E-03 0. -1.
         22    1    1    2    0    0  0.36808412799E+01  0.98266568339E+02 -0.56290756823E+03  0.57143223344E+03  0.00000000000E+00 0. -1.
          2    1    1    2  501    0  0.89981116585E+02  0.36154646767E+02 -0.11944569415E+03  0.15385393619E+03  0.25500000000E-02 0. -1.
<mgrwt>
<rscale>  0 0.96972985E+02</rscale>
<asrwt>0</asrwt>
<pdfrwt beam="1">  1       11 0.10000000E+01 0.16286675E+03</pdfrwt>
<pdfrwt beam="2">  1        2 0.10935776E+00 0.96972985E+02</pdfrwt>
<totfact> 0.53036992E+01</totfact>
</mgrwt>
</event>
<event>
 5    1  0.1851087E-003  0.1799930E+03  0.7818608E-02  0.1167810E+00
         11   -1    0    0    0    0  0.00000000000E+00  0.00000000000E+00  0.10001599468E+04  0.10001599468E+04  0.51100000000E-03 0. -1.
          2   -1    0    0  501    0 -0.00000000000E+00 -0.00000000000E+00 -0.20292518004E+03  0.20292518005E+03  0.25500000000E-02 0. -1.
         11    1    1    2    0    0 -0.89211725032E+02  0.13799545076E+03  0.95177199624E+03  0.96585268501E+03  0.51100000000E-03 0. -1.
         22    1    1    2    0    0  0.16452473079E+02 -0.70389093475E+02 -0.10158293142E+03  0.12467718438E+03  0.00000000000E+00 0. -1.
          2    1    1    2  501    0  0.72759251953E+02 -0.67606357288E+02 -0.52954298067E+02  0.11255525745E+03  0.25500000000E-02 0. -1.
<mgrwt>
<rscale>  0 0.17999299E+03</rscale>
<asrwt>0</asrwt>
<pdfrwt beam="1">  1       11 0.10000000E+01 0.16432126E+03</pdfrwt>
<pdfrwt beam="2">  1        2 0.31224251E-01 0.17999299E+03</pdfrwt>
<totfact> 0.20648175E+02</totfact>
</mgrwt>
</event>
<event>
 5    1  0.1851087E-003  0.1584681E+03  0.7818608E-02  0.1190437E+00
         11   -1    0    0    0    0  0.00000000000E+00  0.00000000000E+00  0.10003770709E+04  0.10003770709E+04  0.51100000000E-03 0. -1.
          2   -1    0    0  501    0 -0.00000000000E+00 -0.00000000000E+00 -0.26985723328E+02  0.26985723448E+02  0.25500000000E-02 0. -1.
         11    1    1    2    0    0 -0.14386078581E+03  0.52555856219E+02  0.64220823479E+03  0.66021925188E+03  0.51100000000E-03 0. -1.
         22    1    1    2    0    0  0.10197562766E+02 -0.16057174854E+02  0.54135551775E+02  0.57380145666E+02  0.00000000000E+00 0. -1.
          2    1    1    2  501    0  0.13366322305E+03 -0.36498681364E+02  0.27704756106E+03  0.30976339685E+03  0.25500000000E-02 0. -1.
<mgrwt>
<rscale>  0 0.15846806E+03</rscale>
<asrwt>0</asrwt>
<pdfrwt beam="1">  1       11 0.10000000E+01 0.15316019E+03</pdfrwt>
<pdfrwt beam="2">  1        2 0.41532151E-02 0.15846806E+03</pdfrwt>
<totfact> 0.23704234E+03</totfact>
</mgrwt>
</event>
<event>
 5    1  0.1851087E-003  0.1687514E+03  0.7818608E-02  0.1244890E+00
         11   -1    0    0    0    0  0.00000000000E+00  0.00000000000E+00  0.99966660196E+03  0.99966660196E+03  0.51100000000E-03 0. -1.
          2   -1    0    0  501    0 -0.00000000000E+00 -0.00000000000E+00 -0.15446845530E+03  0.15446845532E+03  0.25500000000E-02 0.  1.
         11    1    1    2    0    0  0.15432578876E+03 -0.83197381682E+02  0.91404695114E+03  0.93070945106E+03  0.51100000000E-03 0. -1.
         22    1    1    2    0    0 -0.30449310840E+02  0.78075856547E+02 -0.51166709788E+02  0.98188757486E+02  0.00000000000E+00 0.  1.
          2    1    1    2  501    0 -0.12387647792E+03  0.51215251359E+01 -0.17682094702E+02  0.12523684874E+03  0.25500000000E-02 0.  1.
<mgrwt>
<rscale>  0 0.11891985E+03</rscale>
<asrwt>0</asrwt>
<pdfrwt beam="1">  1       11 0.10000000E+01 0.16875139E+03</pdfrwt>
<pdfrwt beam="2">  1        2 0.23756454E-01 0.11891985E+03</pdfrwt>
<totfact> 0.27607276E+02</totfact>
</mgrwt>
</event>
<event>
 5    1  0.1851087E-003  0.1039151E+03  0.7818608E-02  0.1488633E+00
         11   -1    0    0    0    0  0.00000000000E+00  0.00000000000E+00  0.10005256855E+04  0.10005256855E+04  0.51100000000E-03 0. -1.
          2   -1    0    0  501    0 -0.00000000000E+00 -0.00000000000E+00 -0.17707762349E+02  0.17707762533E+02  0.25500000000E-02 0. -1.
         11    1    1    2    0    0 -0.11262871428E+03  0.56397245974E+02  0.44928927577E+03  0.46661196937E+03  0.51100000000E-03 0. -1.
         22    1    1    2    0    0  0.80203376631E+02 -0.28477074892E+02  0.23291299753E+03  0.24797578477E+03  0.00000000000E+00 0. -1.
          2    1    1    2  501    0  0.32425337652E+02 -0.27920171081E+02  0.30061564981E+03  0.30364569385E+03  0.25500000000E-02 0. -1.
<mgrwt>
<rscale>  0 0.42789467E+02</rscale>
<asrwt>0</asrwt>
<pdfrwt beam="1">  1       11 0.10000000E+01 0.10391513E+03</pdfrwt>
<pdfrwt beam="2">  1        2 0.27257032E-02 0.42789467E+02</pdfrwt>
<totfact> 0.35652912E+03</totfact>
</mgrwt>
</event>
<event>
 5    1  0.1851087E-003  0.9321785E+02  0.7818608E-02  0.1491026E+00
         11   -1    0    0    0    0  0.00000000000E+00  0.00000000000E+00  0.10003194243E+04  0.10003194243E+04  0.51100000000E-03 0. -1.
         -2   -1    0    0    0  501 -0.00000000000E+00 -0.00000000000E+00 -0.13892777573E+02  0.13892777807E+02  0.25500000000E-02 0.  1.
         11    1    1    2    0    0 -0.83547923383E+02  0.57083697974E+02  0.41722842054E+03  0.42932314052E+03  0.51100000000E-03 0. -1.
         22    1    1    2    0    0  0.31149852089E+01 -0.19063923570E+02  0.17504551761E+02  0.26068096346E+02  0.00000000000E+00 0. -1.
         -2    1    1    2    0  501  0.80432938174E+02 -0.38019774404E+02  0.55169367445E+03  0.55882096527E+03  0.25500000000E-02 0.  1.
<mgrwt>
<rscale>  0 0.42434230E+02</rscale>
<asrwt>0</asrwt>
<pdfrwt beam="1">  1       11 0.10000000E+01 0.93217854E+02</pdfrwt>
<pdfrwt beam="2">  1       -2 0.21380331E-02 0.42434230E+02</pdfrwt>
<totfact> 0.44054878E+03</totfact>
</mgrwt>
</event>
<event>
 5    1  0.1851087E-003  0.1749374E+03  0.7818608E-02  0.1442217E+00
         11   -1    0    0    0    0  0.00000000000E+00  0.00000000000E+00  0.99985773356E+03  0.99985773356E+03  0.51100000000E-03 0. -1.
          2   -1    0    0  501    0 -0.00000000000E+00 -0.00000000000E+00 -0.56779555434E+03  0.56779555434E+03  0.25500000000E-02 0. -1.
         11    1    1    2    0    0 -0.12043355924E+03 -0.12658824224E+03  0.97344967259E+03  0.98900611238E+03  0.51100000000E-03 0. -1.
         22    1    1    2    0    0 -0.95668290264E+01 -0.11063996124E+02 -0.31143395660E+02  0.34407082426E+02  0.00000000000E+00 0. -1.
          2    1    1    2  501    0  0.13000038826E+03  0.13765223837E+03 -0.51024409771E+03  0.54424009309E+03  0.25500000000E-02 0. -1.
<mgrwt>
<rscale>  0 0.50583913E+02</rscale>
<asrwt>0</asrwt>
<pdfrwt beam="1">  1       11 0.10000000E+01 0.17493740E+03</pdfrwt>
<pdfrwt beam="2">  1        2 0.87340732E-01 0.50583913E+02</pdfrwt>
<totfact> 0.69376899E+01</totfact>
</mgrwt>
</event>
<event>
 5    1  0.1851087E-003  0.2135672E+03  0.7818608E-02  0.1138772E+00
         11   -1    0    0    0    0  0.00000000000E+00  0.00000000000E+00  0.10000522360E+04  0.10000522360E+04  0.51100000000E-03 0. -1.
          2   -1    0    0  501    0 -0.00000000000E+00 -0.00000000000E+00 -0.48512378285E+02  0.48512378352E+02  0.25500000000E-02 0. -1.
         11    1    1    2    0    0 -0.20091377258E+03  0.66071818549E+02  0.61127024847E+03  0.64682543695E+03  0.51100000000E-03 0. -1.
         22    1    1    2    0    0  0.17100836038E+03 -0.63317888045E+02  0.30559613975E+03  0.35586797397E+03  0.00000000000E+00 0. -1.
          2    1    1    2  501    0  0.29905412200E+02 -0.27539305040E+01  0.34673469513E+02  0.45871203458E+02  0.25500000000E-02 0. -1.
<mgrwt>
<rscale>  0 0.21356723E+03</rscale>
<asrwt>0</asrwt>
<pdfrwt beam="1">  1       11 0.10000000E+01 0.21149901E+03</pdfrwt>
<pdfrwt beam="2">  1        2 0.74638325E-02 0.21356723E+03</pdfrwt>
<totfact> 0.11269878E+03</totfact>
</mgrwt>
</event>
<event>
 5    1  0.1851087E-003  0.1423626E+03  0.7818608E-02  0.1210185E+00
         11   -1    0    0    0    0  0.00000000000E+00  0.00000000000E+00  0.10002295767E+04  0.10002295767E+04  0.51100000000E-03 0.  1.
          2   -1    0    0  501    0 -0.00000000000E+00 -0.00000000000E+00 -0.58862493454E+02  0.58862493509E+02  0.25500000000E-02 0.  1.
         11    1    1    2    0    0 -0.12478101502E+03  0.64362636348E+02  0.48321370709E+02  0.14848503471E+03  0.51100000000E-03 0.  1.
         22    1    1    2    0    0 -0.14030815304E+02  0.12700147734E+02  0.80427397101E+02  0.82623990069E+02  0.00000000000E+00 0.  1.
          2    1    1    2  501    0  0.13881183032E+03 -0.77062784082E+02  0.81261831544E+03  0.82798304543E+03  0.25500000000E-02 0.  1.
<mgrwt>
<rscale>  0 0.14236265E+03</rscale>
<asrwt>0</asrwt>
<pdfrwt beam="1">  1       11 0.10000000E+01 0.18925050E+02</pdfrwt>
<pdfrwt beam="2">  1        2 0.90578470E-02 0.14236265E+03</pdfrwt>
<totfact> 0.86184916E+02</totfact>
</mgrwt>
</event>
<event>
 5    1  0.1851087E-003  0.1417884E+03  0.7818608E-02  0.1301042E+00
         11   -1    0    0    0    0  0.00000000000E+00  0.00000000000E+00  0.10000179937E+04  0.10000179937E+04  0.51100000000E-03 0. -1.
          2   -1    0    0  501    0 -0.00000000000E+00 -0.00000000000E+00 -0.81657520229E+02  0.81657520269E+02  0.25500000000E-02 0. -1.
         11    1    1    2    0    0  0.14725508959E+03 -0.17036889129E+02  0.83718597664E+03  0.85020860763E+03  0.51100000000E-03 0. -1.
         22    1    1    2    0    0 -0.10726481216E+03 -0.64428291529E+02  0.57330455387E+02  0.13763548159E+03  0.00000000000E+00 0. -1.
          2    1    1    2  501    0 -0.39990277428E+02  0.81465180658E+02  0.23844041414E+02  0.93831424724E+02  0.25500000000E-02 0. -1.
<mgrwt>
<rscale>  0 0.90751297E+02</rscale>
<asrwt>0</asrwt>
<pdfrwt beam="1">  1       11 0.10000000E+01 0.14178845E+03</pdfrwt>
<pdfrwt beam="2">  1        2 0.12562921E-01 0.90751297E+02</pdfrwt>
<totfact> 0.56516755E+02</totfact>
</mgrwt>
</event>
<event>
 5    1  0.1851087E-003  0.2145262E+02  0.7818608E-02  0.1731153E+00
         11   -1    0    0    0    0  0.00000000000E+00  0.00000000000E+00  0.10001904134E+04  0.10001904134E+04  0.51100000000E-03 0.  1.
          2   -1    0    0  501    0 -0.00000000000E+00 -0.00000000000E+00 -0.36784256070E+01  0.36784264909E+01  0.25500000000E-02 0.  1.
         11    1    1    2    0    0 -0.28308252525E+02 -0.27751994314E+02  0.14952458453E+03  0.15469043839E+03  0.51100000000E-03 0.  1.
         22    1    1    2    0    0  0.11025178093E+02  0.16729113555E+02  0.10422923398E+03  0.10613741569E+03  0.00000000000E+00 0. -1.
          2    1    1    2  501    0  0.17283074432E+02  0.11022880759E+02  0.74275816923E+03  0.74304098577E+03  0.25500000000E-02 0.  1.
<mgrwt>
<rscale>  0 0.20731903E+02</rscale>
<asrwt>0</asrwt>
<pdfrwt beam="1">  1       11 0.10000000E+01 0.21452616E+02</pdfrwt>
<pdfrwt beam="2">  1        2 0.56601944E-03 0.20731903E+02</pdfrwt>
<totfact> 0.24118734E+04</totfact>
</mgrwt>
</event>
<event>
 5    1  0.1851087E-003  0.2350275E+03  0.7818608E-02  0.1123150E+00
         11   -1    0    0    0    0  0.00000000000E+00  0.00000000000E+00  0.10001372528E+04  0.10001372528E+04  0.51100000000E-03 0. -1.
          2   -1    0    0  501    0 -0.00000000000E+00 -0.00000000000E+00 -0.45493607890E+03  0.45493607891E+03  0.25500000000E-02 0. -1.
         11    1    1    2    0    0 -0.24541855720E+02  0.21568401873E+03  0.95679099645E+03  0.98110698168E+03  0.51100000000E-03 0. -1.
         22    1    1    2    0    0  0.45154163804E+02 -0.47360168176E+02 -0.11658375423E+03  0.13369239241E+03  0.00000000000E+00 0. -1.
          2    1    1    2  501    0 -0.20612308084E+02 -0.16832385055E+03 -0.29500606830E+03  0.34027395764E+03  0.25500000000E-02 0. -1.
<mgrwt>
<rscale>  0 0.23502749E+03</rscale>
<asrwt>0</asrwt>
<pdfrwt beam="1">  1       11 0.10000000E+01 0.21707579E+03</pdfrwt>
<pdfrwt beam="2">  1        2 0.69999770E-01 0.23502749E+03</pdfrwt>
<totfact> 0.86304760E+01</totfact>
</mgrwt>
</event>
<event>
 5    1  0.1851087E-003  0.3512170E+03  0.7818608E-02  0.1062117E+00
         11   -1    0    0    0    0  0.00000000000E+00  0.00000000000E+00  0.99982985419E+03  0.99982985419E+03  0.51100000000E-03 0. -1.
         -2   -1    0    0    0  501 -0.00000000000E+00 -0.00000000000E+00 -0.17393599787E+03  0.17393599789E+03  0.25500000000E-02 0.  1.
         11    1    1    2    0    0 -0.32087849898E+03  0.11181924707E+03  0.73686450302E+03  0.81144060223E+03  0.51100000000E-03 0. -1.
         22    1    1    2    0    0  0.23009424386E+03 -0.83768722919E+02  0.10417431978E+03  0.26610683738E+03  0.00000000000E+00 0. -1.
         -2    1    1    2    0  501  0.90784255122E+02 -0.28050524154E+02 -0.15144966487E+02  0.96218412478E+02  0.25500000000E-02 0.  1.
<mgrwt>
<rscale>  0 0.35121697E+03</rscale>
<asrwt>0</asrwt>
<pdfrwt beam="1">  1       11 0.10000000E+01 0.33980370E+03</pdfrwt>
<pdfrwt beam="2">  1       -2 0.26754831E-01 0.35121697E+03</pdfrwt>
<totfact> 0.10177249E+02</totfact>
</mgrwt>
</event>
<event>
 5    1  0.1851087E-003  0.3624143E+03  0.7818608E-02  0.1385056E+00
         11   -1    0    0    0    0  0.00000000000E+00  0.00000000000E+00  0.10001635659E+04  0.10001635659E+04  0.51100000000E-03 0.  1.
          2   -1    0    0  501    0 -0.00000000000E+00 -0.00000000000E+00 -0.23329251385E+03  0.23329251387E+03  0.25500000000E-02 0.  1.
         11    1    1    2    0    0  0.12078287327E+03 -0.34179476558E+03  0.77880685169E+03  0.85904148707E+03  0.51100000000E-03 0.  1.
         22    1    1    2    0    0  0.10178045601E+02  0.41852139018E+01 -0.53455514167E+01  0.12234522778E+02  0.00000000000E+00 0. -1.
          2    1    1    2  501    0 -0.13096091887E+03  0.33760955168E+03 -0.65902482486E+01  0.36218006991E+03  0.25500000000E-02 0.  1.
<mgrwt>
<rscale>  0 0.63153358E+02</rscale>
<asrwt>0</asrwt>
<pdfrwt beam="1">  1       11 0.10000000E+01 0.36241432E+03</pdfrwt>
<pdfrwt beam="2">  1        2 0.35897026E-01 0.63153358E+02</pdfrwt>
<totfact> 0.17471472E+02</totfact>
</mgrwt>
</event>
<event>
 5    1  0.1851087E-003  0.9726925E+02  0.7818608E-02  0.1457420E+00
         11   -1    0    0    0    0  0.00000000000E+00  0.00000000000E+00  0.10003871330E+04  0.10003871330E+04  0.51100000000E-03 0. -1.
          2   -1    0    0  501    0 -0.00000000000E+00 -0.00000000000E+00 -0.12325695478E+02  0.12325695741E+02  0.25500000000E-02 0. -1.
         11    1    1    2    0    0  0.90915855531E+02 -0.46029543048E+02  0.55612286070E+03  0.56538221392E+03  0.51100000000E-03 0. -1.
         22    1    1    2    0    0 -0.19558075792E+02 -0.13059946531E+02  0.78105872187E+02  0.81569650006E+02  0.00000000000E+00 0.  1.
          2    1    1    2  501    0 -0.71357779739E+02  0.59089489579E+02  0.35383270461E+03  0.36576096479E+03  0.25500000000E-02 0. -1.
<mgrwt>
<rscale>  0 0.47828291E+02</rscale>
<asrwt>0</asrwt>
<pdfrwt beam="1">  1       11 0.10000000E+01 0.97269246E+02</pdfrwt>
<pdfrwt beam="2">  1        2 0.18969949E-02 0.47828291E+02</pdfrwt>
<totfact> 0.58283671E+03</totfact>
</mgrwt>
</event>
<event>
 5    1  0.1851087E-003  0.1310406E+03  0.7818608E-02  0.1412149E+00
         11   -1    0    0    0    0  0.00000000000E+00  0.00000000000E+00  0.10004016032E+04  0.10004016032E+04  0.51100000000E-03 0. -1.
          2   -1    0    0  501    0 -0.00000000000E+00 -0.00000000000E+00 -0.31681898487E+02  0.31681898590E+02  0.25500000000E-02 0. -1.
         11    1    1    2    0    0 -0.10128714876E+03  0.79925755581E+02  0.56889637015E+03  0.58334406046E+03  0.51100000000E-03 0. -1.
         22    1    1    2    0    0  0.67948221681E+02 -0.12580964952E+03  0.32312883227E+03  0.35335148363E+03  0.00000000000E+00 0. -1.
          2    1    1    2  501    0  0.33338927083E+02  0.45883893944E+02  0.76694502264E+02  0.95387957660E+02  0.25500000000E-02 0. -1.
<mgrwt>
<rscale>  0 0.56716980E+02</rscale>
<asrwt>0</asrwt>
<pdfrwt beam="1">  1       11 0.10000000E+01 0.13104061E+03</pdfrwt>
<pdfrwt beam="2">  1        2 0.48760956E-02 0.56716980E+02</pdfrwt>
<totfact> 0.17457908E+03</totfact>
</mgrwt>
</event>
<event>
 5    1  0.1851087E-003  0.9500380E+02  0.7818608E-02  0.1291168E+00
         11   -1    0    0    0    0  0.00000000000E+00  0.00000000000E+00  0.10002846094E+04  0.10002846094E+04  0.51100000000E-03 0.  1.
          2   -1    0    0  501    0 -0.00000000000E+00 -0.00000000000E+00 -0.26647075204E+02  0.26647075326E+02  0.25500000000E-02 0.  1.
         11    1    1    2    0    0 -0.93230179532E+02 -0.18159418280E+02  0.74180079632E+02  0.12051686630E+03  0.51100000000E-03 0.  1.
         22    1    1    2    0    0 -0.27327375766E+01  0.13491388716E+02  0.64800195817E+02  0.66246138016E+02  0.00000000000E+00 0.  1.
          2    1    1    2  501    0  0.95962917108E+02  0.46680295648E+01  0.83465725876E+03  0.84016868043E+03  0.25500000000E-02 0.  1.
<mgrwt>
<rscale>  0 0.95003803E+02</rscale>
<asrwt>0</asrwt>
<pdfrwt beam="1">  1       11 0.10000000E+01 0.13765370E+02</pdfrwt>
<pdfrwt beam="2">  1        2 0.41007167E-02 0.95003803E+02</pdfrwt>
<totfact> 0.22997350E+03</totfact>
</mgrwt>
</event>
<event>
 5    1  0.1851087E-003  0.1371251E+03  0.7818608E-02  0.1217251E+00
         11   -1    0    0    0    0  0.00000000000E+00  0.00000000000E+00  0.99995380179E+03  0.99995380179E+03  0.51100000000E-03 0.  1.
         -2   -1    0    0    0  501 -0.00000000000E+00 -0.00000000000E+00 -0.18306549487E+02  0.18306549665E+02  0.25500000000E-02 0. -1.
         11    1    1    2    0    0  0.19280062282E+01  0.13105409938E+03  0.54762918176E+03  0.56309556462E+03  0.51100000000E-03 0.  1.
         22    1    1    2    0    0 -0.23394140226E+01 -0.15418690660E+02  0.20350939620E+02  0.25639220407E+02  0.00000000000E+00 0.  1.
         -2    1    1    2    0  501  0.41140779436E+00 -0.11563540872E+03  0.41366713092E+03  0.42952556643E+03  0.25500000000E-02 0. -1.
<mgrwt>
<rscale>  0 0.13712512E+03</rscale>
<asrwt>0</asrwt>
<pdfrwt beam="1">  1       11 0.10000000E+01 0.13106828E+03</pdfrwt>
<pdfrwt beam="2">  1       -2 0.28162620E-02 0.13712512E+03</pdfrwt>
<totfact> 0.34640316E+03</totfact>
</mgrwt>
</event>
<event>
 5    1  0.1851087E-003  0.2692826E+03  0.7818608E-02  0.1147126E+00
         11   -1    0    0    0    0  0.00000000000E+00  0.00000000000E+00  0.10006816191E+04  0.10006816191E+04  0.51100000000E-03 0. -1.
         -2   -1    0    0    0  501 -0.00000000000E+00 -0.00000000000E+00 -0.35647284516E+03  0.35647284516E+03  0.25500000000E-02 0.  1.
         11    1    1    2    0    0 -0.13753163050E+03 -0.24747813606E+03  0.89596506296E+03  0.93963491381E+03  0.51100000000E-03 0. -1.
         22    1    1    2    0    0 -0.14934109079E+02  0.15249688039E+03 -0.12349154117E+03  0.19679554590E+03  0.00000000000E+00 0.  1.
         -2    1    1    2    0  501  0.15246573958E+03  0.94981255664E+02 -0.12826474780E+03  0.22072400460E+03  0.25500000000E-02 0.  1.
<mgrwt>
<rscale>  0 0.20312855E+03</rscale>
<asrwt>0</asrwt>
<pdfrwt beam="1">  1       11 0.10000000E+01 0.26928265E+03</pdfrwt>
<pdfrwt beam="2">  1       -2 0.54879356E-01 0.20312855E+03</pdfrwt>
<totfact> 0.25823857E+01</totfact>
</mgrwt>
</event>
<event>
 5    1  0.1851087E-003  0.2546979E+03  0.7818608E-02  0.1110371E+00
         11   -1    0    0    0    0  0.00000000000E+00  0.00000000000E+00  0.99999899627E+03  0.99999899627E+03  0.51100000000E-03 0. -1.
          2   -1    0    0  501    0 -0.00000000000E+00 -0.00000000000E+00 -0.77380874692E+02  0.77380874734E+02  0.25500000000E-02 0. -1.
         11    1    1    2    0    0 -0.24522403762E+03  0.46104449673E+02  0.68507743688E+03  0.72910324607E+03  0.51100000000E-03 0. -1.
         22    1    1    2    0    0  0.10315403291E+03  0.42497393629E+01  0.83774123977E+02  0.13295457359E+03  0.00000000000E+00 0. -1.
          2    1    1    2  501    0  0.14207000471E+03 -0.50354189036E+02  0.15376656072E+03  0.21532205135E+03  0.25500000000E-02 0. -1.
<mgrwt>
<rscale>  0 0.25469792E+03</rscale>
<asrwt>0</asrwt>
<pdfrwt beam="1">  1       11 0.10000000E+01 0.24952044E+03</pdfrwt>
<pdfrwt beam="2">  1        2 0.11904738E-01 0.25469792E+03</pdfrwt>
<totfact> 0.63365932E+02</totfact>
</mgrwt>
</event>
<event>
 5    1  0.1851087E-003  0.1521540E+03  0.7818608E-02  0.1197851E+00
         11   -1    0    0    0    0  0.00000000000E+00  0.00000000000E+00  0.10000788407E+04  0.10000788407E+04  0.51100000000E-03 0. -1.
          2   -1    0    0  501    0 -0.00000000000E+00 -0.00000000000E+00 -0.22111996041E+02  0.22111996188E+02  0.25500000000E-02 0. -1.
         11    1    1    2    0    0 -0.11130030137E+03  0.93146245133E+02  0.49228439124E+03  0.51323279506E+03  0.51100000000E-03 0. -1.
         22    1    1    2    0    0  0.20404841848E+02  0.19625903312E+01  0.59510017214E+02  0.62941651396E+02  0.00000000000E+00 0.  1.
          2    1    1    2  501    0  0.90895459525E+02 -0.95108835464E+02  0.42617243620E+03  0.44601639043E+03  0.25500000000E-02 0. -1.
<mgrwt>
<rscale>  0 0.15215401E+03</rscale>
<asrwt>0</asrwt>
<pdfrwt beam="1">  1       11 0.10000000E+01 0.14513435E+03</pdfrwt>
<pdfrwt beam="2">  1        2 0.34021137E-02 0.15215401E+03</pdfrwt>
<totfact> 0.30816581E+03</totfact>
</mgrwt>
</event>
<event>
 5    1  0.1972144E-003  0.1785080E+03  0.7818608E-02  0.1169255E+00
         11   -1    0    0    0    0  0.00000000000E+00  0.00000000000E+00  0.10001305484E+04  0.10001305484E+04  0.51100000000E-03 0. -1.
         -2   -1    0    0    0  501 -0.00000000000E+00 -0.00000000000E+00 -0.39201096872E+03  0.39201096872E+03  0.25500000000E-02 0.  1.
         11    1    1    2    0    0  0.47085877165E+02 -0.16758468590E+03  0.97166518455E+03  0.98713471099E+03  0.51100000000E-03 0. -1.
         22    1    1    2    0    0 -0.14095156950E+02  0.34153061511E+02 -0.11750003122E+03  0.12317208448E+03  0.00000000000E+00 0.  1.
         -2    1    1    2    0  501 -0.32990720215E+02  0.13343162439E+03 -0.24604557365E+03  0.28183472165E+03  0.25500000000E-02 0.  1.
<mgrwt>
<rscale>  0 0.17850800E+03</rscale>
<asrwt>0</asrwt>
<pdfrwt beam="1">  1       11 0.10000000E+01 0.17407385E+03</pdfrwt>
<pdfrwt beam="2">  1       -2 0.60317251E-01 0.17850800E+03</pdfrwt>
<totfact> 0.21303454E+01</totfact>
</mgrwt>
</event>
<event>
 5    1  0.1851087E-003  0.4627266E+02  0.7818608E-02  0.1595829E+00
         11   -1    0    0    0    0  0.00000000000E+00  0.00000000000E+00  0.10004031867E+04  0.10004031867E+04  0.51100000000E-03 0. -1.
          2   -1    0    0  501    0 -0.00000000000E+00 -0.00000000000E+00 -0.50785918840E+01  0.50785925241E+01  0.25500000000E-02 0. -1.
         11    1    1    2    0    0 -0.49378430132E+01 -0.53577307785E+02  0.28799856851E+03  0.29298137426E+03  0.51100000000E-03 0. -1.
         22    1    1    2    0    0  0.16738002828E+02  0.10421543220E+02  0.51427209873E+02  0.55077465601E+02  0.00000000000E+00 0. -1.
          2    1    1    2  501    0 -0.11800159815E+02  0.43155764565E+02  0.65589881644E+03  0.65742293936E+03  0.25500000000E-02 0. -1.
<mgrwt>
<rscale>  0 0.30205438E+02</rscale>
<asrwt>0</asrwt>
<pdfrwt beam="1">  1       11 0.10000000E+01 0.46272664E+02</pdfrwt>
<pdfrwt beam="2">  1        2 0.78163687E-03 0.30205438E+02</pdfrwt>
<totfact> 0.17292257E+04</totfact>
</mgrwt>
</event>
<event>
 5    1  0.1851087E-003  0.1685668E+03  0.7818608E-02  0.1179351E+00
         11   -1    0    0    0    0  0.00000000000E+00  0.00000000000E+00  0.10000828188E+04  0.10000828188E+04  0.51100000000E-03 0. -1.
          2   -1    0    0  501    0 -0.00000000000E+00 -0.00000000000E+00 -0.65727239753E+02  0.65727239803E+02  0.25500000000E-02 0. -1.
         11    1    1    2    0    0  0.29141185484E+02  0.74736862688E+02  0.25057751464E+03  0.26310434846E+03  0.51100000000E-03 0. -1.
         22    1    1    2    0    0 -0.99811504721E+02  0.12434961338E+03  0.11681716267E+03  0.19766489905E+03  0.00000000000E+00 0. -1.
          2    1    1    2  501    0  0.70670319237E+02 -0.19908647607E+03  0.56696090173E+03  0.60504081108E+03  0.25500000000E-02 0. -1.
<mgrwt>
<rscale>  0 0.16856676E+03</rscale>
<asrwt>0</asrwt>
<pdfrwt beam="1">  1       11 0.10000000E+01 0.80217251E+02</pdfrwt>
<pdfrwt beam="2">  1        2 0.10112720E-01 0.16856676E+03</pdfrwt>
<totfact> 0.75922075E+02</totfact>
</mgrwt>
</event>
<event>
 5    1  0.1851087E-003  0.3945032E+03  0.7818608E-02  0.1045700E+00
         11   -1    0    0    0    0  0.00000000000E+00  0.00000000000E+00  0.10002750165E+04  0.10002750165E+04  0.51100000000E-03 0. -1.
          2   -1    0    0  501    0 -0.00000000000E+00 -0.00000000000E+00 -0.15737943347E+03  0.15737943349E+03  0.25500000000E-02 0. -1.
         11    1    1    2    0    0  0.89932264636E+02 -0.36872635716E+03  0.54117641187E+03  0.66099837175E+03  0.51100000000E-03 0. -1.
         22    1    1    2    0    0  0.22301295427E+02  0.43188609700E+02  0.23637033812E+02  0.54049173472E+02  0.00000000000E+00 0. -1.
          2    1    1    2  501    0 -0.11223356006E+03  0.32553774746E+03  0.27808213733E+03  0.44260690475E+03  0.25500000000E-02 0. -1.
<mgrwt>
<rscale>  0 0.39450323E+03</rscale>
<asrwt>0</asrwt>
<pdfrwt beam="1">  1       11 0.10000000E+01 0.37953516E+03</pdfrwt>
<pdfrwt beam="2">  1        2 0.24218879E-01 0.39450323E+03</pdfrwt>
<totfact> 0.27767941E+02</totfact>
</mgrwt>
</event>
<event>
 5    1  0.1851087E-003  0.1390965E+03  0.7818608E-02  0.1214550E+00
         11   -1    0    0    0    0  0.00000000000E+00  0.00000000000E+00  0.10001777305E+04  0.10001777305E+04  0.51100000000E-03 0.  1.
          2   -1    0    0  501    0 -0.00000000000E+00 -0.00000000000E+00 -0.31978254610E+02  0.31978254712E+02  0.25500000000E-02 0.  1.
         11    1    1    2    0    0 -0.78712404883E+02  0.12379641736E+03  0.52116190010E+03  0.54141566448E+03  0.51100000000E-03 0.  1.
         22    1    1    2    0    0  0.43848050918E+02  0.95187894508E+01  0.22490910258E+03  0.22934115057E+03  0.00000000000E+00 0.  1.
          2    1    1    2  501    0  0.34864353965E+02 -0.13331520681E+03  0.22212847324E+03  0.26139917019E+03  0.25500000000E-02 0.  1.
<mgrwt>
<rscale>  0 0.13909649E+03</rscale>
<asrwt>0</asrwt>
<pdfrwt beam="1">  1       11 0.10000000E+01 0.44869354E+02</pdfrwt>
<pdfrwt beam="2">  1        2 0.49206057E-02 0.13909649E+03</pdfrwt>
<totfact> 0.18750754E+03</totfact>
</mgrwt>
</event>
<event>
 5    1  0.1851087E-003  0.2269205E+03  0.7818608E-02  0.1128826E+00
         11   -1    0    0    0    0  0.00000000000E+00  0.00000000000E+00  0.10003221988E+04  0.10003221988E+04  0.51100000000E-03 0. -1.
          2   -1    0    0  501    0 -0.00000000000E+00 -0.00000000000E+00 -0.53337125010E+02  0.53337125071E+02  0.25500000000E-02 0. -1.
         11    1    1    2    0    0 -0.18203130834E+03  0.11631065718E+03  0.61239867224E+03  0.64938101293E+03  0.51100000000E-03 0. -1.
         22    1    1    2    0    0  0.63646183107E+02 -0.42023897214E+02  0.63333241106E+02  0.99135987361E+02  0.00000000000E+00 0. -1.
          2    1    1    2  501    0  0.11838512523E+03 -0.74286759966E+02  0.27125316041E+03  0.30514232355E+03  0.25500000000E-02 0. -1.
<mgrwt>
<rscale>  0 0.22692045E+03</rscale>
<asrwt>0</asrwt>
<pdfrwt beam="1">  1       11 0.10000000E+01 0.21601751E+03</pdfrwt>
<pdfrwt beam="2">  1        2 0.82083552E-02 0.22692045E+03</pdfrwt>
<totfact> 0.10018793E+03</totfact>
</mgrwt>
</event>
<event>
 5    1  0.1851087E-003  0.1484743E+03  0.7818608E-02  0.1202360E+00
         11   -1    0    0    0    0  0.00000000000E+00  0.00000000000E+00  0.99970931566E+03  0.99970931566E+03  0.51100000000E-03 0. -1.
         -2   -1    0    0    0  501 -0.00000000000E+00 -0.00000000000E+00 -0.30051924046E+02  0.30051924154E+02  0.25500000000E-02 0.  1.
         11    1    1    2    0    0 -0.12817632977E+02 -0.14434714871E+03  0.75485437588E+03  0.76863874469E+03  0.51100000000E-03 0. -1.
         22    1    1    2    0    0 -0.14541239118E+01  0.69083750280E+02  0.12714651661E+03  0.14470976372E+03  0.00000000000E+00 0.  1.
         -2    1    1    2    0  501  0.14271756889E+02  0.75263398432E+02  0.87656499129E+02  0.11641273141E+03  0.25500000000E-02 0.  1.
<mgrwt>
<rscale>  0 0.14847431E+03</rscale>
<asrwt>0</asrwt>
<pdfrwt beam="1">  1       11 0.10000000E+01 0.14491512E+03</pdfrwt>
<pdfrwt beam="2">  1       -2 0.46220289E-02 0.14847431E+03</pdfrwt>
<totfact> 0.16752566E+03</totfact>
</mgrwt>
</event>
<event>
 5    1  0.1851087E-003  0.1053240E+03  0.7818608E-02  0.1269483E+00
         11   -1    0    0    0    0  0.00000000000E+00  0.00000000000E+00  0.10004545704E+04  0.10004545704E+04  0.51100000000E-03 0.  1.
          2   -1    0    0  501    0 -0.00000000000E+00 -0.00000000000E+00 -0.10324011961E+02  0.10324012275E+02  0.25500000000E-02 0.  1.
         11    1    1    2    0    0 -0.92184009407E+02  0.28808259699E+02  0.53213459976E+03  0.54082810548E+03  0.51100000000E-03 0.  1.
         22    1    1    2    0    0  0.23058388859E+02  0.57919404074E+01  0.60420083040E+02  0.64929363966E+02  0.00000000000E+00 0.  1.
          2    1    1    2  501    0  0.69125620547E+02 -0.34600200106E+02  0.39757587566E+03  0.40502111325E+03  0.25500000000E-02 0.  1.
<mgrwt>
<rscale>  0 0.10532404E+03</rscale>
<asrwt>0</asrwt>
<pdfrwt beam="1">  1       11 0.10000000E+01 0.96580575E+02</pdfrwt>
<pdfrwt beam="2">  1        2 0.15890315E-02 0.10532404E+03</pdfrwt>
<totfact> 0.82843939E+03</totfact>
</mgrwt>
</event>
<event>
 5    1  0.1851087E-003  0.1990703E+03  0.7818608E-02  0.1150526E+00
         11   -1    0    0    0    0  0.00000000000E+00  0.00000000000E+00  0.10003757681E+04  0.10003757681E+04  0.51100000000E-03 0.  1.
          2   -1    0    0  501    0 -0.00000000000E+00 -0.00000000000E+00 -0.44220583167E+03  0.44220583168E+03  0.25500000000E-02 0. -1.
         11    1    1    2    0    0  0.19430184734E+03  0.35263893900E+01  0.96781231002E+03  0.98713034130E+03  0.51100000000E-03 0.  1.
         22    1    1    2    0    0 -0.12702841243E+03 -0.22560651970E+02 -0.25744448706E+03  0.28796330409E+03  0.00000000000E+00 0. -1.
          2    1    1    2  501    0 -0.67273434903E+02  0.19034262580E+02 -0.15219788653E+03  0.16748795439E+03  0.25500000000E-02 0. -1.
<mgrwt>
<rscale>  0 0.19907028E+03</rscale>
<asrwt>0</asrwt>
<pdfrwt beam="1">  1       11 0.10000000E+01 0.19433384E+03</pdfrwt>
<pdfrwt beam="2">  1        2 0.68057229E-01 0.19907028E+03</pdfrwt>
<totfact> 0.89187260E+01</totfact>
</mgrwt>
</event>
<event>
 5    1  0.1851087E-003  0.1632299E+03  0.7818608E-02  0.1185098E+00
         11   -1    0    0    0    0  0.00000000000E+00  0.00000000000E+00  0.10004312971E+04  0.10004312971E+04  0.51100000000E-03 0. -1.
          2   -1    0    0  501    0 -0.00000000000E+00 -0.00000000000E+00 -0.27355759388E+02  0.27355759507E+02  0.25500000000E-02 0. -1.
         11    1    1    2    0    0 -0.15625292275E+03  0.21429298747E+02  0.60353250589E+03  0.62379938793E+03  0.51100000000E-03 0. -1.
         22    1    1    2    0    0  0.75041843519E+02 -0.41478317945E+00  0.12902969195E+03  0.14926523952E+03  0.00000000000E+00 0. -1.
          2    1    1    2  501    0  0.81211079231E+02 -0.21014515567E+02  0.24051333986E+03  0.25472242915E+03  0.25500000000E-02 0. -1.
<mgrwt>
<rscale>  0 0.16322985E+03</rscale>
<asrwt>0</asrwt>
<pdfrwt beam="1">  1       11 0.10000000E+01 0.15771554E+03</pdfrwt>
<pdfrwt beam="2">  1        2 0.42103934E-02 0.16322985E+03</pdfrwt>
<totfact> 0.23336716E+03</totfact>
</mgrwt>
</event>
<event>
 5    1  0.1851087E-003  0.1391867E+03  0.7818608E-02  0.1244890E+00
         11   -1    0    0    0    0  0.00000000000E+00  0.00000000000E+00  0.10002666857E+04  0.10002666857E+04  0.51100000000E-03 0. -1.
          2   -1    0    0  501    0 -0.00000000000E+00 -0.00000000000E+00 -0.51587291128E+02  0.51587291191E+02  0.25500000000E-02 0. -1.
         11    1    1    2    0    0  0.12295660665E+03 -0.76068618847E+02  0.61562634654E+03  0.63237691327E+03  0.51100000000E-03 0. -1.
         22    1    1    2    0    0  0.26277821607E+02  0.98147231401E+02  0.10560165665E+03  0.14654389386E+03  0.00000000000E+00 0.  1.
          2    1    1    2  501    0 -0.14923442825E+03 -0.22078612553E+02  0.22745139142E+03  0.27293316980E+03  0.25500000000E-02 0. -1.
<mgrwt>
<rscale>  0 0.11891990E+03</rscale>
<asrwt>0</asrwt>
<pdfrwt beam="1">  1       11 0.10000000E+01 0.13918667E+03</pdfrwt>
<pdfrwt beam="2">  1        2 0.79386227E-02 0.11891990E+03</pdfrwt>
<totfact> 0.10043454E+03</totfact>
</mgrwt>
</event>
<event>
 5    1  0.1851087E-003  0.2878173E+03  0.7818608E-02  0.1091494E+00
         11   -1    0    0    0    0  0.00000000000E+00  0.00000000000E+00  0.10001114194E+04  0.10001114194E+04  0.51100000000E-03 0. -1.
          2   -1    0    0  501    0 -0.00000000000E+00 -0.00000000000E+00 -0.10464856633E+03  0.10464856637E+03  0.25500000000E-02 0. -1.
         11    1    1    2    0    0 -0.52402752907E+02 -0.28089685928E+03  0.20832834696E+03  0.35362380323E+03  0.51100000000E-03 0. -1.
         22    1    1    2    0    0 -0.87059782246E+01 -0.56691793574E+01  0.24030709616E+02  0.26180310465E+02  0.00000000000E+00 0.  1.
          2    1    1    2  501    0  0.61108731132E+02  0.28656603864E+03  0.66310379650E+03  0.72495587208E+03  0.25500000000E-02 0. -1.
<mgrwt>
<rscale>  0 0.28781735E+03</rscale>
<asrwt>0</asrwt>
<pdfrwt beam="1">  1       11 0.10000000E+01 0.10389112E+02</pdfrwt>
<pdfrwt beam="2">  1        2 0.16101573E-01 0.28781735E+03</pdfrwt>
<totfact> 0.44250323E+02</totfact>
</mgrwt>
</event>
<event>
 5    1  0.1851087E-003  0.1044090E+03  0.7818608E-02  0.1437262E+00
         11   -1    0    0    0    0  0.00000000000E+00  0.00000000000E+00  0.10002157175E+04  0.10002157175E+04  0.51100000000E-03 0. -1.
          2   -1    0    0  501    0 -0.00000000000E+00 -0.00000000000E+00 -0.20526666008E+02  0.20526666166E+02  0.25500000000E-02 0. -1.
         11    1    1    2    0    0 -0.10996049997E+02 -0.12187130012E+03  0.57743880291E+03  0.59026188935E+03  0.51100000000E-03 0. -1.
         22    1    1    2    0    0  0.69336221262E+01  0.70502106341E+02  0.92697424952E+02  0.11666805350E+03  0.00000000000E+00 0.  1.
          2    1    1    2  501    0  0.40624278705E+01  0.51369193780E+02  0.30955282358E+03  0.31381244077E+03  0.25500000000E-02 0. -1.
<mgrwt>
<rscale>  0 0.51529578E+02</rscale>
<asrwt>0</asrwt>
<pdfrwt beam="1">  1       11 0.10000000E+01 0.10440898E+03</pdfrwt>
<pdfrwt beam="2">  1        2 0.31586298E-02 0.51529578E+02</pdfrwt>
<totfact> 0.30182474E+03</totfact>
</mgrwt>
</event>
<event>
 5    1  0.1851087E-003  0.2366144E+03  0.7818608E-02  0.1176965E+00
         11   -1    0    0    0    0  0.00000000000E+00  0.00000000000E+00  0.10002871829E+04  0.10002871829E+04  0.51100000000E-03 0. -1.
          2   -1    0    0  501    0 -0.00000000000E+00 -0.00000000000E+00 -0.18635065300E+03  0.18635065302E+03  0.25500000000E-02 0. -1.
         11    1    1    2    0    0  0.26806112035E+03  0.50328093833E+02  0.83581381578E+03  0.87918963593E+03  0.51100000000E-03 0. -1.
         22    1    1    2    0    0 -0.11836451804E+03 -0.34763149299E+02 -0.78975159672E+02  0.14647768269E+03  0.00000000000E+00 0. -1.
          2    1    1    2  501    0 -0.14969660231E+03 -0.15564944535E+02  0.57097873779E+02  0.16097051730E+03  0.25500000000E-02 0. -1.
<mgrwt>
<rscale>  0 0.17084982E+03</rscale>
<asrwt>0</asrwt>
<pdfrwt beam="1">  1       11 0.10000000E+01 0.23661441E+03</pdfrwt>
<pdfrwt beam="2">  1        2 0.28677564E-01 0.17084982E+03</pdfrwt>
<totfact> 0.22637147E+02</totfact>
</mgrwt>
</event>
<event>
 5    1  0.1851087E-003  0.2002847E+03  0.7818608E-02  0.1149499E+00
         11   -1    0    0    0    0  0.00000000000E+00  0.00000000000E+00  0.10001911360E+04  0.10001911360E+04  0.51100000000E-03 0.  1.
          2   -1    0    0  501    0 -0.00000000000E+00 -0.00000000000E+00 -0.49772014175E+02  0.49772014240E+02  0.25500000000E-02 0.  1.
         11    1    1    2    0    0  0.41618886678E+02  0.19046661217E+03  0.71386457105E+03  0.74000830258E+03  0.51100000000E-03 0.  1.
         22    1    1    2    0    0 -0.23959537959E+02 -0.32311569082E+02  0.60324064815E+02  0.72505791159E+02  0.00000000000E+00 0. -1.
          2    1    1    2  501    0 -0.17659348718E+02 -0.15815504309E+03  0.17623048600E+03  0.23744905654E+03  0.25500000000E-02 0.  1.
<mgrwt>
<rscale>  0 0.20028468E+03</rscale>
<asrwt>0</asrwt>
<pdfrwt beam="1">  1       11 0.10000000E+01 0.19496067E+03</pdfrwt>
<pdfrwt beam="2">  1        2 0.76586963E-02 0.20028468E+03</pdfrwt>
<totfact> 0.10863330E+03</totfact>
</mgrwt>
</event>
<event>
 5    1  0.1851087E-003  0.3698902E+03  0.7818608E-02  0.1054735E+00
         11   -1    0    0    0    0  0.00000000000E+00  0.00000000000E+00  0.10001227502E+04  0.10001227502E+04  0.51100000000E-03 0. -1.
          2   -1    0    0  501    0 -0.00000000000E+00 -0.00000000000E+00 -0.23472826295E+04  0.23472826295E+04  0.25500000000E-02 0. -1.
         11    1    1    2    0    0 -0.89008959446E+02 -0.33048185217E+03  0.95564364095E+03  0.10150840448E+04  0.51100000000E-03 0. -1.
         22    1    1    2    0    0  0.51878077195E+02  0.13738279977E+03 -0.57875055828E+03  0.59709092882E+03  0.00000000000E+00 0.  1.
          2    1    1    2  501    0  0.37130882251E+02  0.19309905240E+03 -0.17240529620E+04  0.17352304061E+04  0.25500000000E-02 0. -1.
<mgrwt>
<rscale>  0 0.36989019E+03</rscale>
<asrwt>0</asrwt>
<pdfrwt beam="1">  1       11 0.10000000E+01 0.34225845E+03</pdfrwt>
<pdfrwt beam="2">  1        2 0.36116472E+00 0.36989019E+03</pdfrwt>
<totfact> 0.58780286E+00</totfact>
</mgrwt>
</event>
<event>
 5    1  0.1851087E-003  0.3077096E+03  0.7818608E-02  0.1178852E+00
         11   -1    0    0    0    0  0.00000000000E+00  0.00000000000E+00  0.10003795917E+04  0.10003795917E+04  0.51100000000E-03 0. -1.
          2   -1    0    0  501    0 -0.00000000000E+00 -0.00000000000E+00 -0.12695580360E+04  0.12695580360E+04  0.25500000000E-02 0. -1.
         11    1    1    2    0    0  0.22903282045E+03  0.21214600905E+03  0.94901174535E+03  0.99904216869E+03  0.51100000000E-03 0. -1.
         22    1    1    2    0    0 -0.16436981183E+03 -0.55961906874E+02 -0.82219529872E+03  0.84032986339E+03  0.00000000000E+00 0. -1.
          2    1    1    2  501    0 -0.64663008620E+02 -0.15618410218E+03 -0.39599489098E+03  0.43056559564E+03  0.25500000000E-02 0. -1.
<mgrwt>
<rscale>  0 0.16904076E+03</rscale>
<asrwt>0</asrwt>
<pdfrwt beam="1">  1       11 0.10000000E+01 0.30770959E+03</pdfrwt>
<pdfrwt beam="2">  1        2 0.19539076E+00 0.16904076E+03</pdfrwt>
<totfact> 0.23542321E+01</totfact>
</mgrwt>
</event>
<event>
 5    1  0.1851087E-003  0.2591422E+03  0.7818608E-02  0.1107660E+00
         11   -1    0    0    0    0  0.00000000000E+00  0.00000000000E+00  0.10004045480E+04  0.10004045480E+04  0.51100000000E-03 0.  1.
          2   -1    0    0  501    0 -0.00000000000E+00 -0.00000000000E+00 -0.16064042290E+03  0.16064042292E+03  0.25500000000E-02 0.  1.
         11    1    1    2    0    0 -0.11406038003E+03  0.22934886205E+03  0.86362164846E+03  0.90080687303E+03  0.51100000000E-03 0.  1.
         22    1    1    2    0    0  0.14236411170E+02 -0.15505129585E+02  0.71130083922E+01  0.22218895896E+02  0.00000000000E+00 0. -1.
          2    1    1    2  501    0  0.99823968860E+02 -0.21384373246E+03 -0.30970531749E+02  0.23801920199E+03  0.25500000000E-02 0.  1.
<mgrwt>
<rscale>  0 0.25914221E+03</rscale>
<asrwt>0</asrwt>
<pdfrwt beam="1">  1       11 0.10000000E+01 0.25614580E+03</pdfrwt>
<pdfrwt beam="2">  1        2 0.24723908E-01 0.25914221E+03</pdfrwt>
<totfact> 0.26908136E+02</totfact>
</mgrwt>
</event>
<event>
 5    1  0.1851087E-003  0.4507016E+02  0.7818608E-02  0.1577499E+00
         11   -1    0    0    0    0  0.00000000000E+00  0.00000000000E+00  0.10001974473E+04  0.10001974473E+04  0.51100000000E-03 0. -1.
          2   -1    0    0  501    0 -0.00000000000E+00 -0.00000000000E+00 -0.77771720638E+01  0.77771724818E+01  0.25500000000E-02 0. -1.
         11    1    1    2    0    0  0.31162314068E+02  0.57478485198E+02  0.16861632674E+03  0.18084891960E+03  0.51100000000E-03 0. -1.
         22    1    1    2    0    0 -0.88797368001E+01 -0.20833423118E+02  0.12702060045E+03  0.12902369621E+03  0.00000000000E+00 0. -1.
          2    1    1    2  501    0 -0.22282577267E+02 -0.36645062080E+02  0.69678334804E+03  0.69810200396E+03  0.25500000000E-02 0. -1.
<mgrwt>
<rscale>  0 0.31948366E+02</rscale>
<asrwt>0</asrwt>
<pdfrwt beam="1">  1       11 0.10000000E+01 0.45070160E+02</pdfrwt>
<pdfrwt beam="2">  1        2 0.11967243E-02 0.31948366E+02</pdfrwt>
<totfact> 0.99736956E+03</totfact>
</mgrwt>
</event>
<event>
 5    1  0.1851087E-003  0.1845807E+03  0.7818608E-02  0.1163442E+00
         11   -1    0    0    0    0  0.00000000000E+00  0.00000000000E+00  0.10004549136E+04  0.10004549136E+04  0.51100000000E-03 0. -1.
          2   -1    0    0  501    0 -0.00000000000E+00 -0.00000000000E+00 -0.62305712818E+02  0.62305712870E+02  0.25500000000E-02 0. -1.
         11    1    1    2    0    0  0.10254810709E+03  0.15198918302E+03  0.82747082312E+03  0.84754043511E+03  0.51100000000E-03 0. -1.
         22    1    1    2    0    0 -0.18687917038E+01 -0.11987630559E+02  0.76606604779E+01  0.14348567448E+02  0.00000000000E+00 0.  1.
          2    1    1    2  501    0 -0.10067931539E+03 -0.14000155247E+03  0.10301771721E+03  0.20087162395E+03  0.25500000000E-02 0. -1.
<mgrwt>
<rscale>  0 0.18458068E+03</rscale>
<asrwt>0</asrwt>
<pdfrwt beam="1">  1       11 0.10000000E+01 0.18334892E+03</pdfrwt>
<pdfrwt beam="2">  1        2 0.95898546E-02 0.18458068E+03</pdfrwt>
<totfact> 0.81472786E+02</totfact>
</mgrwt>
</event>
<event>
 5    1  0.1851087E-003  0.1605079E+03  0.7818608E-02  0.1202219E+00
         11   -1    0    0    0    0  0.00000000000E+00  0.00000000000E+00  0.10001628429E+04  0.10001628429E+04  0.51100000000E-03 0. -1.
          2   -1    0    0  501    0 -0.00000000000E+00 -0.00000000000E+00 -0.84742861570E+03  0.84742861570E+03  0.25500000000E-02 0. -1.
         11    1    1    2    0    0 -0.81637424710E+02  0.13952173531E+03  0.96838866339E+03  0.98178795426E+03  0.51100000000E-03 0. -1.
         22    1    1    2    0    0  0.13755066791E+03  0.73313927713E+00 -0.43772512684E+03  0.45882895550E+03  0.00000000000E+00 0. -1.
          2    1    1    2  501    0 -0.55913243203E+02 -0.14025487459E+03 -0.37792930930E+03  0.40697454890E+03  0.25500000000E-02 0. -1.
<mgrwt>
<rscale>  0 0.14858763E+03</rscale>
<asrwt>0</asrwt>
<pdfrwt beam="1">  1       11 0.10000000E+01 0.16050790E+03</pdfrwt>
<pdfrwt beam="2">  1        2 0.13039486E+00 0.14858763E+03</pdfrwt>
<totfact> 0.42117067E+01</totfact>
</mgrwt>
</event>
<event>
 5    1  0.1851087E-003  0.1000210E+03  0.7818608E-02  0.1280252E+00
         11   -1    0    0    0    0  0.00000000000E+00  0.00000000000E+00  0.10004174771E+04  0.10004174771E+04  0.51100000000E-03 0. -1.
          2   -1    0    0  501    0 -0.00000000000E+00 -0.00000000000E+00 -0.16421138206E+02  0.16421138404E+02  0.25500000000E-02 0. -1.
         11    1    1    2    0    0 -0.90139944282E+02  0.38343370730E+02  0.23559653532E+03  0.25514927217E+03  0.51100000000E-03 0. -1.
         22    1    1    2    0    0 -0.17685402178E+02 -0.26387022143E+02  0.12848467496E+03  0.13235316425E+03  0.00000000000E+00 0. -1.
          2    1    1    2  501    0  0.10782534646E+03 -0.11956348587E+02  0.61991512865E+03  0.62933617911E+03  0.25500000000E-02 0. -1.
<mgrwt>
<rscale>  0 0.10002102E+03</rscale>
<asrwt>0</asrwt>
<pdfrwt beam="1">  1       11 0.10000000E+01 0.31765522E+02</pdfrwt>
<pdfrwt beam="2">  1        2 0.25273836E-02 0.10002102E+03</pdfrwt>
<totfact> 0.43928728E+03</totfact>
</mgrwt>
</event>
<event>
 5    1  0.1851087E-003  0.1557196E+03  0.7818608E-02  0.1353363E+00
         11   -1    0    0    0    0  0.00000000000E+00  0.00000000000E+00  0.10001703023E+04  0.10001703023E+04  0.51100000000E-03 0. -1.
          2   -1    0    0  501    0 -0.00000000000E+00 -0.00000000000E+00 -0.53514694724E+02  0.53514694784E+02  0.25500000000E-02 0. -1.
         11    1    1    2    0    0  0.51657396987E+02  0.13070363453E+03  0.41463239360E+03  0.43780355020E+03  0.51100000000E-03 0. -1.
         22    1    1    2    0    0 -0.10682806136E+03 -0.17699332972E+03  0.24798348673E+03  0.32285396567E+03  0.00000000000E+00 0. -1.
          2    1    1    2  501    0  0.55170664370E+02  0.46289695190E+02  0.28403972721E+03  0.29302748118E+03  0.25500000000E-02 0. -1.
<mgrwt>
<rscale>  0 0.72017623E+02</rscale>
<asrwt>0</asrwt>
<pdfrwt beam="1">  1       11 0.10000000E+01 0.15571962E+03</pdfrwt>
<pdfrwt beam="2">  1        2 0.82344318E-02 0.72017623E+02</pdfrwt>
<totfact> 0.92613809E+02</totfact>
</mgrwt>
</event>
<event>
 5    1  0.1851087E-003  0.1155135E+03  0.7818608E-02  0.1250687E+00
         11   -1    0    0    0    0  0.00000000000E+00  0.00000000000E+00  0.10001457085E+04  0.10001457085E+04  0.51100000000E-03 0.  1.
          2   -1    0    0  501    0 -0.00000000000E+00 -0.00000000000E+00 -0.32575611074E+02  0.32575611174E+02  0.25500000000E-02 0.  1.
         11    1    1    2    0    0  0.24263434018E+02  0.12411070446E+03  0.64410185285E+03  0.65639879497E+03  0.51100000000E-03 0.  1.
         22    1    1    2    0    0 -0.51984006485E+02 -0.12284860049E+02  0.20184951950E+03  0.20879770889E+03  0.00000000000E+00 0.  1.
          2    1    1    2  501    0  0.27720572467E+02 -0.11182584442E+03  0.12161872508E+03  0.16752481581E+03  0.25500000000E-02 0.  1.
<mgrwt>
<rscale>  0 0.11551355E+03</rscale>
<asrwt>0</asrwt>
<pdfrwt beam="1">  1       11 0.10000000E+01 0.53415866E+02</pdfrwt>
<pdfrwt beam="2">  1        2 0.50123626E-02 0.11551355E+03</pdfrwt>
<totfact> 0.18021501E+03</totfact>
</mgrwt>
</event>
<event>
 5    1  0.1851087E-003  0.2960305E+03  0.7818608E-02  0.1087242E+00
         11   -1    0    0    0    0  0.00000000000E+00  0.00000000000E+00  0.10002574256E+04  0.10002574256E+04  0.51100000000E-03 0. -1.
          2   -1    0    0  501    0 -0.00000000000E+00 -0.00000000000E+00 -0.19396253466E+03  0.19396253468E+03  0.25500000000E-02 0. -1.
         11    1    1    2    0    0 -0.27255172746E+03  0.10899502413E+03  0.84605652363E+03  0.89553112766E+03  0.51100000000E-03 0. -1.
         22    1    1    2    0    0  0.24212250907E+03 -0.10703238207E+03 -0.42332520853E+02  0.26808819917E+03  0.00000000000E+00 0. -1.
          2    1    1    2  501    0  0.30429218391E+02 -0.19626420546E+01  0.25708881715E+01  0.30600633461E+02  0.25500000000E-02 0. -1.
<mgrwt>
<rscale>  0 0.29603046E+03</rscale>
<asrwt>0</asrwt>
<pdfrwt beam="1">  1       11 0.10000000E+01 0.29353766E+03</pdfrwt>
<pdfrwt beam="2">  1        2 0.29848071E-01 0.29603046E+03</pdfrwt>
<totfact> 0.21858235E+02</totfact>
</mgrwt>
</event>
<event>
 5    1  0.1851087E-003  0.1014085E+03  0.7818608E-02  0.1407824E+00
         11   -1    0    0    0    0  0.00000000000E+00  0.00000000000E+00  0.10000301174E+04  0.10000301174E+04  0.51100000000E-03 0. -1.
          2   -1    0    0  501    0 -0.00000000000E+00 -0.00000000000E+00 -0.26192209805E+02  0.26192209929E+02  0.25500000000E-02 0. -1.
         11    1    1    2    0    0 -0.89087366138E+02 -0.11691671877E+03  0.34980771268E+03  0.37943578348E+03  0.51100000000E-03 0. -1.
         22    1    1    2    0    0  0.58294784449E+02  0.68141015534E+02  0.52141687783E+03  0.52907186693E+03  0.00000000000E+00 0. -1.
          2    1    1    2  501    0  0.30792581689E+02  0.48775703238E+02  0.10261331712E+03  0.11771467695E+03  0.25500000000E-02 0. -1.
<mgrwt>
<rscale>  0 0.57682340E+02</rscale>
<asrwt>0</asrwt>
<pdfrwt beam="1">  1       11 0.10000000E+01 0.10140851E+03</pdfrwt>
<pdfrwt beam="2">  1        2 0.40296920E-02 0.57682340E+02</pdfrwt>
<totfact> 0.22322826E+03</totfact>
</mgrwt>
</event>
<event>
 5    1  0.1851087E-003  0.1544076E+03  0.7818608E-02  0.1195159E+00
         11   -1    0    0    0    0  0.00000000000E+00  0.00000000000E+00  0.99983578009E+03  0.99983578009E+03  0.51100000000E-03 0. -1.
          2   -1    0    0  501    0 -0.00000000000E+00 -0.00000000000E+00 -0.80988917912E+02  0.80988917952E+02  0.25500000000E-02 0. -1.
         11    1    1    2    0    0  0.10686096421E+03 -0.10730235904E+03  0.91387486425E+03  0.92633704958E+03  0.51100000000E-03 0. -1.
         22    1    1    2    0    0 -0.14670317064E+02  0.29093500292E+02  0.80130736439E+01  0.33553827072E+02  0.00000000000E+00 0. -1.
          2    1    1    2  501    0 -0.92190647146E+02  0.78208858745E+02 -0.30410757130E+01  0.12093382139E+03  0.25500000000E-02 0. -1.
<mgrwt>
<rscale>  0 0.15440762E+03</rscale>
<asrwt>0</asrwt>
<pdfrwt beam="1">  1       11 0.10000000E+01 0.15143666E+03</pdfrwt>
<pdfrwt beam="2">  1        2 0.12457787E-01 0.15440762E+03</pdfrwt>
<totfact> 0.58642889E+02</totfact>
</mgrwt>
</event>
<event>
 5    1  0.1851087E-003  0.1340645E+03  0.7818608E-02  0.1221546E+00
         11   -1    0    0    0    0  0.00000000000E+00  0.00000000000E+00  0.10001814919E+04  0.10001814919E+04  0.51100000000E-03 0. -1.
          2   -1    0    0  501    0 -0.00000000000E+00 -0.00000000000E+00 -0.17988284005E+02  0.17988284186E+02  0.25500000000E-02 0. -1.
         11    1    1    2    0    0  0.46389553580E+02 -0.11221353264E+03  0.31399543048E+03  0.33665560734E+03  0.51100000000E-03 0. -1.
         22    1    1    2    0    0 -0.50005656035E+02  0.52123558412E+02  0.41654714669E+03  0.42276347571E+03  0.00000000000E+00 0. -1.
          2    1    1    2  501    0  0.36161024549E+01  0.60089974225E+02  0.25165063073E+03  0.25875069305E+03  0.25500000000E-02 0. -1.
<mgrwt>
<rscale>  0 0.13406451E+03</rscale>
<asrwt>0</asrwt>
<pdfrwt beam="1">  1       11 0.10000000E+01 0.12142439E+03</pdfrwt>
<pdfrwt beam="2">  1        2 0.27679305E-02 0.13406451E+03</pdfrwt>
<totfact> 0.40158616E+03</totfact>
</mgrwt>
</event>
<event>
 5    1  0.1851087E-003  0.2175933E+03  0.7818608E-02  0.1135690E+00
         11   -1    0    0    0    0  0.00000000000E+00  0.00000000000E+00  0.10002241323E+04  0.10002241323E+04  0.51100000000E-03 0.  1.
         -2   -1    0    0    0  501 -0.00000000000E+00 -0.00000000000E+00 -0.25404658787E+03  0.25404658789E+03  0.25500000000E-02 0.  1.
         11    1    1    2    0    0 -0.11711631157E+03 -0.17627142766E+03  0.93959873122E+03  0.96313738498E+03  0.51100000000E-03 0.  1.
         22    1    1    2    0    0  0.34852170724E+02  0.85809336804E+02 -0.61034082540E+02  0.11091922880E+03  0.00000000000E+00 0. -1.
         -2    1    1    2    0  501  0.82264140849E+02  0.90462090855E+02 -0.13238710428E+03  0.18021410638E+03  0.25500000000E-02 0.  1.
<mgrwt>
<rscale>  0 0.21759334E+03</rscale>
<asrwt>0</asrwt>
<pdfrwt beam="1">  1       11 0.10000000E+01 0.21163139E+03</pdfrwt>
<pdfrwt beam="2">  1       -2 0.39092849E-01 0.21759334E+03</pdfrwt>
<totfact> 0.50274230E+01</totfact>
</mgrwt>
</event>
<event>
 5    1  0.1851087E-003  0.1511518E+03  0.7818608E-02  0.1199065E+00
         11   -1    0    0    0    0  0.00000000000E+00  0.00000000000E+00  0.10000648215E+04  0.10000648215E+04  0.51100000000E-03 0.  1.
          2   -1    0    0  501    0 -0.00000000000E+00 -0.00000000000E+00 -0.26959526342E+02  0.26959526462E+02  0.25500000000E-02 0.  1.
         11    1    1    2    0    0 -0.60089632104E+02 -0.13627654142E+03  0.69212479682E+03  0.70796807414E+03  0.51100000000E-03 0.  1.
         22    1    1    2    0    0  0.90186455383E+01  0.27517750166E+02  0.36036235065E+02  0.46229566072E+02  0.00000000000E+00 0.  1.
          2    1    1    2  501    0  0.51070986565E+02  0.10875879126E+03  0.24494426326E+03  0.27282670773E+03  0.25500000000E-02 0.  1.
<mgrwt>
<rscale>  0 0.15115180E+03</rscale>
<asrwt>0</asrwt>
<pdfrwt beam="1">  1       11 0.10000000E+01 0.14893643E+03</pdfrwt>
<pdfrwt beam="2">  1        2 0.41478882E-02 0.15115180E+03</pdfrwt>
<totfact> 0.23646785E+03</totfact>
</mgrwt>
</event>
<event>
 5    1  0.1851087E-003  0.1825891E+03  0.7818608E-02  0.1363546E+00
         11   -1    0    0    0    0  0.00000000000E+00  0.00000000000E+00  0.10005905380E+04  0.10005905380E+04  0.51100000000E-03 0. -1.
          2   -1    0    0  501    0 -0.00000000000E+00 -0.00000000000E+00 -0.31842692591E+03  0.31842692592E+03  0.25500000000E-02 0. -1.
         11    1    1    2    0    0  0.13811090960E+03  0.11944382442E+03  0.94656493974E+03  0.96401588975E+03  0.51100000000E-03 0. -1.
         22    1    1    2    0    0 -0.17241329351E+02  0.19555701713E+02 -0.11474003535E+03  0.11766462773E+03  0.00000000000E+00 0. -1.
          2    1    1    2  501    0 -0.12086958025E+03 -0.13899952613E+03 -0.14966129234E+03  0.23733694640E+03  0.25500000000E-02 0. -1.
<mgrwt>
<rscale>  0 0.68994588E+02</rscale>
<asrwt>0</asrwt>
<pdfrwt beam="1">  1       11 0.10000000E+01 0.18258915E+03</pdfrwt>
<pdfrwt beam="2">  1        2 0.49017686E-01 0.68994588E+02</pdfrwt>
<totfact> 0.12668172E+02</totfact>
</mgrwt>
</event>
<event>
 5    1  0.1851087E-003  0.1716922E+03  0.7818608E-02  0.1176095E+00
         11   -1    0    0    0    0  0.00000000000E+00  0.00000000000E+00  0.99999555464E+03  0.99999555464E+03  0.51100000000E-03 0.  1.
          2   -1    0    0  501    0 -0.00000000000E+00 -0.00000000000E+00 -0.28438119490E+02  0.28438119604E+02  0.25500000000E-02 0.  1.
         11    1    1    2    0    0  0.60097800216E+02 -0.15392625445E+03  0.45352850006E+03  0.48269362722E+03  0.51100000000E-03 0.  1.
         22    1    1    2    0    0 -0.28062108893E+02  0.12539190155E+03  0.40183721702E+03  0.42188121541E+03  0.00000000000E+00 0.  1.
          2    1    1    2  501    0 -0.32035691323E+02  0.28534352895E+02  0.11619171808E+03  0.12385883162E+03  0.25500000000E-02 0.  1.
<mgrwt>
<rscale>  0 0.17169223E+03</rscale>
<asrwt>0</asrwt>
<pdfrwt beam="1">  1       11 0.10000000E+01 0.16524244E+03</pdfrwt>
<pdfrwt beam="2">  1        2 0.43750757E-02 0.17169223E+03</pdfrwt>
<totfact> 0.22271981E+03</totfact>
</mgrwt>
</event>
<event>
 5    1  0.1851087E-003  0.4045982E+03  0.7818608E-02  0.1042199E+00
         11   -1    0    0    0    0  0.00000000000E+00  0.00000000000E+00  0.10001167553E+04  0.10001167553E+04  0.51100000000E-03 0.  1.
          2   -1    0    0  501    0 -0.00000000000E+00 -0.00000000000E+00 -0.22745877082E+03  0.22745877084E+03  0.25500000000E-02 0.  1.
         11    1    1    2    0    0 -0.29838768357E+03  0.26934593779E+03  0.71313386120E+03  0.81862222539E+03  0.51100000000E-03 0.  1.
         22    1    1    2    0    0  0.24673727090E+02 -0.11760087379E+02 -0.44381285568E+01  0.27690963306E+02  0.00000000000E+00 0.  1.
          2    1    1    2  501    0  0.27371395648E+03 -0.25758585041E+03  0.63962251862E+02  0.38126233747E+03  0.25500000000E-02 0.  1.
<mgrwt>
<rscale>  0 0.40459817E+03</rscale>
<asrwt>0</asrwt>
<pdfrwt beam="1">  1       11 0.10000000E+01 0.40197319E+03</pdfrwt>
<pdfrwt beam="2">  1        2 0.34997742E-01 0.40459817E+03</pdfrwt>
<totfact> 0.18393431E+02</totfact>
</mgrwt>
</event>
<event>
 5    1  0.1851087E-003  0.1180205E+03  0.7818608E-02  0.1246399E+00
         11   -1    0    0    0    0  0.00000000000E+00  0.00000000000E+00  0.10001202672E+04  0.10001202672E+04  0.51100000000E-03 0.  1.
          2   -1    0    0  501    0 -0.00000000000E+00 -0.00000000000E+00 -0.14914163619E+02  0.14914163837E+02  0.25500000000E-02 0.  1.
         11    1    1    2    0    0 -0.10304117926E+03 -0.52457420998E+02  0.63596983270E+03  0.64639530764E+03  0.51100000000E-03 0.  1.
         22    1    1    2    0    0  0.43321398226E+02  0.93807804946E+01  0.13699119879E+03  0.14398378774E+03  0.00000000000E+00 0.  1.
          2    1    1    2  501    0  0.59719781031E+02  0.43076640503E+02  0.21224507213E+03  0.22465533569E+03  0.25500000000E-02 0.  1.
<mgrwt>
<rscale>  0 0.11802047E+03</rscale>
<asrwt>0</asrwt>
<pdfrwt beam="1">  1       11 0.10000000E+01 0.11562554E+03</pdfrwt>
<pdfrwt beam="2">  1        2 0.22947626E-02 0.11802047E+03</pdfrwt>
<totfact> 0.51005036E+03</totfact>
</mgrwt>
</event>
<event>
 5    1  0.1851087E-003  0.1447112E+03  0.7818608E-02  0.1207127E+00
         11   -1    0    0    0    0  0.00000000000E+00  0.00000000000E+00  0.10001951626E+04  0.10001951626E+04  0.51100000000E-03 0.  1.
          2   -1    0    0  501    0 -0.00000000000E+00 -0.00000000000E+00 -0.29060302151E+02  0.29060302263E+02  0.25500000000E-02 0.  1.
         11    1    1    2    0    0  0.13487317086E+03  0.64398324249E+02  0.36474912437E+03  0.39418249595E+03  0.51100000000E-03 0.  1.
         22    1    1    2    0    0  0.62392261838E+01 -0.43060987736E+02  0.18964326516E+03  0.19457066744E+03  0.00000000000E+00 0.  1.
          2    1    1    2  501    0 -0.14111239704E+03 -0.21337336513E+02  0.41674247088E+03  0.44050230144E+03  0.25500000000E-02 0.  1.
<mgrwt>
<rscale>  0 0.14471118E+03</rscale>
<asrwt>0</asrwt>
<pdfrwt beam="1">  1       11 0.10000000E+01 0.43510649E+02</pdfrwt>
<pdfrwt beam="2">  1        2 0.44716881E-02 0.14471118E+03</pdfrwt>
<totfact> 0.21330245E+03</totfact>
</mgrwt>
</event>
<event>
 5    1  0.1851087E-003  0.5991063E+02  0.7818608E-02  0.1524346E+00
         11   -1    0    0    0    0  0.00000000000E+00  0.00000000000E+00  0.10003453118E+04  0.10003453118E+04  0.51100000000E-03 0. -1.
          2   -1    0    0  501    0 -0.00000000000E+00 -0.00000000000E+00 -0.22130358899E+02  0.22130359046E+02  0.25500000000E-02 0. -1.
         11    1    1    2    0    0 -0.35197190421E+02  0.82518659877E+02  0.10114528022E+03  0.13519814774E+03  0.51100000000E-03 0. -1.
         22    1    1    2    0    0  0.20903914208E+02 -0.47428910706E+02  0.14085741588E+03  0.15009092847E+03  0.00000000000E+00 0. -1.
          2    1    1    2  501    0  0.14293276213E+02 -0.35089749171E+02  0.73621225679E+03  0.73718659462E+03  0.25500000000E-02 0. -1.
<mgrwt>
<rscale>  0 0.37889157E+02</rscale>
<asrwt>0</asrwt>
<pdfrwt beam="1">  1       11 0.10000000E+01 0.59910635E+02</pdfrwt>
<pdfrwt beam="2">  1        2 0.34058462E-02 0.37889157E+02</pdfrwt>
<totfact> 0.26304642E+03</totfact>
</mgrwt>
</event>
<event>
 5    1  0.1851087E-003  0.1771852E+03  0.7818608E-02  0.1386034E+00
         11   -1    0    0    0    0  0.00000000000E+00  0.00000000000E+00  0.10006099726E+04  0.10006099726E+04  0.51100000000E-03 0. -1.
         -2   -1    0    0    0  501 -0.00000000000E+00 -0.00000000000E+00 -0.32421999112E+03  0.32421999113E+03  0.25500000000E-02 0.  1.
         11    1    1    2    0    0  0.15749491072E+03  0.84924134632E+02  0.95056532640E+03  0.96725963179E+03  0.51100000000E-03 0. -1.
         22    1    1    2    0    0 -0.11173783298E+03 -0.41759306776E+02 -0.26922984828E+03  0.29447222998E+03  0.00000000000E+00 0.  1.
         -2    1    1    2    0  501 -0.45757077740E+02 -0.43164827855E+02 -0.49454966324E+01  0.63098101956E+02  0.25500000000E-02 0.  1.
<mgrwt>
<rscale>  0 0.62903995E+02</rscale>
<asrwt>0</asrwt>
<pdfrwt beam="1">  1       11 0.10000000E+01 0.17718524E+03</pdfrwt>
<pdfrwt beam="2">  1       -2 0.49910423E-01 0.62903995E+02</pdfrwt>
<totfact> 0.31244083E+01</totfact>
</mgrwt>
</event>
<event>
 5    1  0.1851087E-003  0.2229802E+03  0.7818608E-02  0.1131680E+00
         11   -1    0    0    0    0  0.00000000000E+00  0.00000000000E+00  0.99988045560E+03  0.99988045560E+03  0.51100000000E-03 0. -1.
          2   -1    0    0  501    0 -0.00000000000E+00 -0.00000000000E+00 -0.51178954202E+02  0.51178954266E+02  0.25500000000E-02 0. -1.
         11    1    1    2    0    0 -0.10429590206E+03 -0.19133646147E+03  0.35128475006E+03  0.41338632331E+03  0.51100000000E-03 0. -1.
         22    1    1    2    0    0  0.32649175827E+02  0.72127552741E+02  0.15726751713E+03  0.17607221386E+03  0.00000000000E+00 0. -1.
          2    1    1    2  501    0  0.71646726233E+02  0.11920890873E+03  0.44014923420E+03  0.46160087270E+03  0.25500000000E-02 0. -1.
<mgrwt>
<rscale>  0 0.22298025E+03</rscale>
<asrwt>0</asrwt>
<pdfrwt beam="1">  1       11 0.10000000E+01 0.21791586E+03</pdfrwt>
<pdfrwt beam="2">  1        2 0.78727438E-02 0.22298025E+03</pdfrwt>
<totfact> 0.10554666E+03</totfact>
</mgrwt>
</event>
<event>
 5    1  0.2074461E-003  0.2122192E+03  0.7818608E-02  0.1299002E+00
         11   -1    0    0    0    0  0.00000000000E+00  0.00000000000E+00  0.10000476401E+04  0.10000476401E+04  0.51100000000E-03 0.  1.
          2   -1    0    0  501    0 -0.00000000000E+00 -0.00000000000E+00 -0.10216897892E+04  0.10216897892E+04  0.25500000000E-02 0.  1.
         11    1    1    2    0    0  0.13787611890E+03  0.16173197538E+03  0.97504575349E+03  0.99793851385E+03  0.51100000000E-03 0.  1.
         22    1    1    2    0    0 -0.39503976704E+02  0.17952698590E+01 -0.11239893212E+03  0.11915245323E+03  0.00000000000E+00 0. -1.
          2    1    1    2  501    0 -0.98372142197E+02 -0.16352724524E+03 -0.88428897048E+03  0.90464646222E+03  0.25500000000E-02 0.  1.
<mgrwt>
<rscale>  0 0.91608714E+02</rscale>
<asrwt>0</asrwt>
<pdfrwt beam="1">  1       11 0.10000000E+01 0.21221924E+03</pdfrwt>
<pdfrwt beam="2">  1        2 0.15719053E+00 0.91608714E+02</pdfrwt>
<totfact> 0.33652501E+01</totfact>
</mgrwt>
</event>
<event>
 5    1  0.1851087E-003  0.4441843E+02  0.7818608E-02  0.1478005E+00
         11   -1    0    0    0    0  0.00000000000E+00  0.00000000000E+00  0.10001926870E+04  0.10001926870E+04  0.51100000000E-03 0. -1.
          2   -1    0    0  501    0 -0.00000000000E+00 -0.00000000000E+00 -0.59007657477E+01  0.59007662987E+01  0.25500000000E-02 0. -1.
         11    1    1    2    0    0 -0.11549387059E+02  0.49086450984E+02  0.22503709400E+03  0.23061778268E+03  0.51100000000E-03 0. -1.
         22    1    1    2    0    0  0.42757363084E+02 -0.17478549904E+02  0.24312445264E+03  0.24747361733E+03  0.00000000000E+00 0.  1.
          2    1    1    2  501    0 -0.31207976025E+02 -0.31607901079E+02  0.52613037465E+03  0.52800205332E+03  0.25500000000E-02 0. -1.
<mgrwt>
<rscale>  0 0.44418433E+02</rscale>
<asrwt>0</asrwt>
<pdfrwt beam="1">  1       11 0.10000000E+01 0.42746275E+02</pdfrwt>
<pdfrwt beam="2">  1        2 0.90798505E-03 0.44418433E+02</pdfrwt>
<totfact> 0.15347629E+04</totfact>
</mgrwt>
</event>
<event>
 5    1  0.1851087E-003  0.1509122E+03  0.7818608E-02  0.1199357E+00
         11   -1    0    0    0    0  0.00000000000E+00  0.00000000000E+00  0.10003070331E+04  0.10003070331E+04  0.51100000000E-03 0. -1.
          2   -1    0    0  501    0 -0.00000000000E+00 -0.00000000000E+00 -0.25177976554E+02  0.25177976684E+02  0.25500000000E-02 0. -1.
         11    1    1    2    0    0  0.74321901413E+02  0.12925503751E+03  0.65231250646E+03  0.66913542413E+03  0.51100000000E-03 0. -1.
         22    1    1    2    0    0 -0.17087076027E+01 -0.14661700556E+02  0.41092512562E+02  0.43663253813E+02  0.00000000000E+00 0.  1.
          2    1    1    2  501    0 -0.72613193810E+02 -0.11459333695E+03  0.28172403750E+03  0.31268633181E+03  0.25500000000E-02 0. -1.
<mgrwt>
<rscale>  0 0.15091223E+03</rscale>
<asrwt>0</asrwt>
<pdfrwt beam="1">  1       11 0.10000000E+01 0.14909933E+03</pdfrwt>
<pdfrwt beam="2">  1        2 0.38747241E-02 0.15091223E+03</pdfrwt>
<totfact> 0.25882333E+03</totfact>
</mgrwt>
</event>
<event>
 5    1  0.1851087E-003  0.3240164E+02  0.7818608E-02  0.1726853E+00
         11   -1    0    0    0    0  0.00000000000E+00  0.00000000000E+00  0.10000939177E+04  0.10000939177E+04  0.51100000000E-03 0. -1.
          2   -1    0    0  501    0 -0.00000000000E+00 -0.00000000000E+00 -0.35766921458E+01  0.35766930549E+01  0.25500000000E-02 0. -1.
         11    1    1    2    0    0 -0.20734037679E+01 -0.37920122547E+02  0.14122947925E+03  0.14624636921E+03  0.51100000000E-03 0. -1.
         22    1    1    2    0    0  0.11388046362E+02  0.73626951705E+01  0.60776295002E+02  0.62270819124E+02  0.00000000000E+00 0.  1.
          2    1    1    2  501    0 -0.93146425939E+01  0.30557427377E+02  0.79451145126E+03  0.79515342238E+03  0.25500000000E-02 0. -1.
<mgrwt>
<rscale>  0 0.20961722E+02</rscale>
<asrwt>0</asrwt>
<pdfrwt beam="1">  1       11 0.10000000E+01 0.32401638E+02</pdfrwt>
<pdfrwt beam="2">  1        2 0.55031206E-03 0.20961722E+02</pdfrwt>
<totfact> 0.25095022E+04</totfact>
</mgrwt>
</event>
<event>
 5    1  0.1851087E-003  0.1346410E+03  0.7818608E-02  0.1716542E+00
         11   -1    0    0    0    0  0.00000000000E+00  0.00000000000E+00  0.10005470483E+04  0.10005470483E+04  0.51100000000E-03 0.  1.
          2   -1    0    0  501    0 -0.00000000000E+00 -0.00000000000E+00 -0.29665193945E+02  0.29665194054E+02  0.25500000000E-02 0.  1.
         11    1    1    2    0    0  0.53890616080E+02 -0.13048048433E+03  0.20508902373E+03  0.24897964364E+03  0.51100000000E-03 0.  1.
         22    1    1    2    0    0 -0.32414657140E+02  0.12898176006E+03  0.65372291669E+03  0.66711367564E+03  0.00000000000E+00 0.  1.
          2    1    1    2  501    0 -0.21475958939E+02  0.14987242696E+01  0.11206991397E+03  0.11411892311E+03  0.25500000000E-02 0.  1.
<mgrwt>
<rscale>  0 0.21528191E+02</rscale>
<asrwt>0</asrwt>
<pdfrwt beam="1">  1       11 0.10000000E+01 0.13464095E+03</pdfrwt>
<pdfrwt beam="2">  1        2 0.45663725E-02 0.21528191E+02</pdfrwt>
<totfact> 0.16845115E+03</totfact>
</mgrwt>
</event>
<event>
 5    1  0.1851087E-003  0.1215381E+03  0.7818608E-02  0.1240581E+00
         11   -1    0    0    0    0  0.00000000000E+00  0.00000000000E+00  0.10003915029E+04  0.10003915029E+04  0.51100000000E-03 0. -1.
          2   -1    0    0  501    0 -0.00000000000E+00 -0.00000000000E+00 -0.14560446569E+02  0.14560446792E+02  0.25500000000E-02 0. -1.
         11    1    1    2    0    0 -0.11829487433E+03 -0.96952329853E+01  0.43763444438E+03  0.45344413299E+03  0.51100000000E-03 0. -1.
         22    1    1    2    0    0  0.89047965691E+02  0.53208131943E+01  0.35370636010E+03  0.36478218216E+03  0.00000000000E+00 0. -1.
          2    1    1    2  501    0  0.29246908644E+02  0.43744197910E+01  0.19449025184E+03  0.19672563453E+03  0.25500000000E-02 0. -1.
<mgrwt>
<rscale>  0 0.12153807E+03</rscale>
<asrwt>0</asrwt>
<pdfrwt beam="1">  1       11 0.10000000E+01 0.11869157E+03</pdfrwt>
<pdfrwt beam="2">  1        2 0.22409456E-02 0.12153807E+03</pdfrwt>
<totfact> 0.52850568E+03</totfact>
</mgrwt>
</event>
<event>
 5    1  0.1851087E-003  0.1635451E+03  0.7818608E-02  0.1184752E+00
         11   -1    0    0    0    0  0.00000000000E+00  0.00000000000E+00  0.10004022671E+04  0.10004022671E+04  0.51100000000E-03 0. -1.
          2   -1    0    0  501    0 -0.00000000000E+00 -0.00000000000E+00 -0.38570517579E+02  0.38570517664E+02  0.25500000000E-02 0. -1.
         11    1    1    2    0    0  0.13699206221E+03 -0.89844980287E+02  0.33878340104E+03  0.37631521151E+03  0.51100000000E-03 0. -1.
         22    1    1    2    0    0  0.26523808563E+02  0.49306450072E+02  0.18683715832E+03  0.19504553871E+03  0.00000000000E+00 0.  1.
          2    1    1    2  501    0 -0.16351587077E+03  0.40538530214E+02  0.43621119011E+03  0.46761203450E+03  0.25500000000E-02 0. -1.
<mgrwt>
<rscale>  0 0.16354509E+03</rscale>
<asrwt>0</asrwt>
<pdfrwt beam="1">  1       11 0.10000000E+01 0.55987842E+02</pdfrwt>
<pdfrwt beam="2">  1        2 0.59363126E-02 0.16354509E+03</pdfrwt>
<totfact> 0.14871523E+03</totfact>
</mgrwt>
</event>
<event>
 5    1  0.1851087E-003  0.2127727E+03  0.7818608E-02  0.1139389E+00
         11   -1    0    0    0    0  0.00000000000E+00  0.00000000000E+00  0.10002835057E+04  0.10002835057E+04  0.51100000000E-03 0.  1.
          2   -1    0    0  501    0 -0.00000000000E+00 -0.00000000000E+00 -0.86161349214E+02  0.86161349252E+02  0.25500000000E-02 0.  1.
         11    1    1    2    0    0 -0.17763605375E+02 -0.19740053152E+03  0.83696857588E+03  0.86011563905E+03  0.51100000000E-03 0.  1.
         22    1    1    2    0    0  0.41797054506E+02  0.98167027973E+02  0.17625114893E+02  0.10814066683E+03  0.00000000000E+00 0.  1.
          2    1    1    2  501    0 -0.24033449131E+02  0.99233503543E+02  0.59528465754E+02  0.11818854912E+03  0.25500000000E-02 0.  1.
<mgrwt>
<rscale>  0 0.21277274E+03</rscale>
<asrwt>0</asrwt>
<pdfrwt beam="1">  1       11 0.10000000E+01 0.19819817E+03</pdfrwt>
<pdfrwt beam="2">  1        2 0.13259350E-01 0.21277274E+03</pdfrwt>
<totfact> 0.55181414E+02</totfact>
</mgrwt>
</event>
<event>
 5    1  0.1851087E-003  0.6376409E+03  0.7818608E-02  0.9830251E-01
         11   -1    0    0    0    0  0.00000000000E+00  0.00000000000E+00  0.10004375031E+04  0.10004375031E+04  0.51100000000E-03 0. -1.
          2   -1    0    0  501    0 -0.00000000000E+00 -0.00000000000E+00 -0.60026250186E+03  0.60026250187E+03  0.25500000000E-02 0. -1.
         11    1    1    2    0    0  0.51955755096E+03 -0.20231960679E+03  0.70096879361E+03  0.89567322260E+03  0.51100000000E-03 0. -1.
         22    1    1    2    0    0 -0.27884740476E+03  0.26674568198E+03 -0.15162487823E+03  0.41460732952E+03  0.00000000000E+00 0. -1.
          2    1    1    2  501    0 -0.24071014620E+03 -0.64426075190E+02 -0.14916891414E+03  0.29041945286E+03  0.25500000000E-02 0. -1.
<mgrwt>
<rscale>  0 0.63764085E+03</rscale>
<asrwt>0</asrwt>
<pdfrwt beam="1">  1       11 0.10000000E+01 0.55756011E+03</pdfrwt>
<pdfrwt beam="2">  1        2 0.92388477E-01 0.63764085E+03</pdfrwt>
<totfact> 0.61609403E+01</totfact>
</mgrwt>
</event>
<event>
 5    1  0.1851087E-003  0.1315641E+03  0.7818608E-02  0.1335231E+00
         11   -1    0    0    0    0  0.00000000000E+00  0.00000000000E+00  0.10001800807E+04  0.10001800807E+04  0.51100000000E-03 0. -1.
          2   -1    0    0  501    0 -0.00000000000E+00 -0.00000000000E+00 -0.31105702704E+02  0.31105702809E+02  0.25500000000E-02 0. -1.
         11    1    1    2    0    0 -0.98668124890E+02 -0.10437922558E+03  0.38643902793E+03  0.41226877630E+03  0.51100000000E-03 0. -1.
         22    1    1    2    0    0  0.12710168419E+03  0.31894699506E+02  0.35277669770E+03  0.37632898961E+03  0.00000000000E+00 0. -1.
          2    1    1    2  501    0 -0.28433559297E+02  0.72484526075E+02  0.22985865240E+03  0.24268801764E+03  0.25500000000E-02 0. -1.
<mgrwt>
<rscale>  0 0.77861889E+02</rscale>
<asrwt>0</asrwt>
<pdfrwt beam="1">  1       11 0.10000000E+01 0.13156414E+03</pdfrwt>
<pdfrwt beam="2">  1        2 0.47863544E-02 0.77861889E+02</pdfrwt>
<totfact> 0.18455913E+03</totfact>
</mgrwt>
</event>
<event>
 5    1  0.1851087E-003  0.9183892E+02  0.7818608E-02  0.1298459E+00
         11   -1    0    0    0    0  0.00000000000E+00  0.00000000000E+00  0.99998371046E+03  0.99998371046E+03  0.51100000000E-03 0. -1.
          2   -1    0    0  501    0 -0.00000000000E+00 -0.00000000000E+00 -0.81501543102E+01  0.81501547091E+01  0.25500000000E-02 0. -1.
         11    1    1    2    0    0  0.44307039170E+02  0.76491617315E+02  0.51641266273E+03  0.52392377257E+03  0.51100000000E-03 0. -1.
         22    1    1    2    0    0 -0.92338812623E+01 -0.40247800308E+02  0.22586060298E+03  0.22960435965E+03  0.00000000000E+00 0. -1.
          2    1    1    2  501    0 -0.35073157908E+02 -0.36243817007E+02  0.24956029045E+03  0.25460573295E+03  0.25500000000E-02 0. -1.
<mgrwt>
<rscale>  0 0.91838924E+02</rscale>
<asrwt>0</asrwt>
<pdfrwt beam="1">  1       11 0.10000000E+01 0.88397292E+02</pdfrwt>
<pdfrwt beam="2">  1        2 0.12538495E-02 0.91838924E+02</pdfrwt>
<totfact> 0.11225071E+04</totfact>
</mgrwt>
</event>
<event>
 5    1  0.1851087E-003  0.1455995E+03  0.7818608E-02  0.1205987E+00
         11   -1    0    0    0    0  0.00000000000E+00  0.00000000000E+00  0.10001742545E+04  0.10001742545E+04  0.51100000000E-03 0.  1.
          2   -1    0    0  501    0 -0.00000000000E+00 -0.00000000000E+00 -0.59563659769E+02  0.59563659824E+02  0.25500000000E-02 0.  1.
         11    1    1    2    0    0 -0.13627970777E+03 -0.12348015718E+02  0.43450992409E+03  0.45554747983E+03  0.51100000000E-03 0.  1.
         22    1    1    2    0    0  0.19945115842E+02 -0.89590181436E+02  0.41425151749E+03  0.42429768795E+03  0.00000000000E+00 0.  1.
          2    1    1    2  501    0  0.11633459193E+03  0.10193819715E+03  0.91849153139E+02  0.17989274654E+03  0.25500000000E-02 0.  1.
<mgrwt>
<rscale>  0 0.14559952E+03</rscale>
<asrwt>0</asrwt>
<pdfrwt beam="1">  1       11 0.10000000E+01 0.91783486E+02</pdfrwt>
<pdfrwt beam="2">  1        2 0.91652365E-02 0.14559952E+03</pdfrwt>
<totfact> 0.85046006E+02</totfact>
</mgrwt>
</event>
<event>
 5    1  0.1851087E-003  0.1335849E+03  0.7818608E-02  0.1222231E+00
         11   -1    0    0    0    0  0.00000000000E+00  0.00000000000E+00  0.10003222112E+04  0.10003222112E+04  0.51100000000E-03 0. -1.
          2   -1    0    0  501    0 -0.00000000000E+00 -0.00000000000E+00 -0.18386719316E+02  0.18386719493E+02  0.25500000000E-02 0. -1.
         11    1    1    2    0    0  0.28135817305E+02  0.12700072964E+03  0.36528267528E+03  0.38775281096E+03  0.51100000000E-03 0. -1.
         22    1    1    2    0    0 -0.16702134080E+02 -0.20628313228E+02  0.11534316142E+03  0.11835765069E+03  0.00000000000E+00 0.  1.
          2    1    1    2  501    0 -0.11433683226E+02 -0.10637241642E+03  0.50130965520E+03  0.51259846907E+03  0.25500000000E-02 0. -1.
<mgrwt>
<rscale>  0 0.13358491E+03</rscale>
<asrwt>0</asrwt>
<pdfrwt beam="1">  1       11 0.10000000E+01 0.13008008E+03</pdfrwt>
<pdfrwt beam="2">  1        2 0.28296374E-02 0.13358491E+03</pdfrwt>
<totfact> 0.38968526E+03</totfact>
</mgrwt>
</event>
<event>
 5    1  0.1851087E-003  0.3586099E+03  0.7818608E-02  0.1059136E+00
         11   -1    0    0    0    0  0.00000000000E+00  0.00000000000E+00  0.10008466603E+04  0.10008466603E+04  0.51100000000E-03 0. -1.
          2   -1    0    0  501    0 -0.00000000000E+00 -0.00000000000E+00 -0.16657769703E+04  0.16657769703E+04  0.25500000000E-02 0.  1.
         11    1    1    2    0    0 -0.20375425455E+03  0.29018986556E+03  0.94913297141E+03  0.10132025226E+04  0.51100000000E-03 0. -1.
         22    1    1    2    0    0  0.22949378552E+02 -0.26658111359E+02 -0.10031748677E+03  0.10630581842E+03  0.00000000000E+00 0.  1.
          2    1    1    2  501    0  0.18080487600E+03 -0.26353175420E+03 -0.15137457946E+04  0.15471152896E+04  0.25500000000E-02 0.  1.
<mgrwt>
<rscale>  0 0.35860993E+03</rscale>
<asrwt>0</asrwt>
<pdfrwt beam="1">  1       11 0.10000000E+01 0.35457856E+03</pdfrwt>
<pdfrwt beam="2">  1        2 0.25649035E+00 0.35860993E+03</pdfrwt>
<totfact> 0.13627062E+01</totfact>
</mgrwt>
</event>
<event>
 5    1  0.1851087E-003  0.2226409E+03  0.7818608E-02  0.1131929E+00
         11   -1    0    0    0    0  0.00000000000E+00  0.00000000000E+00  0.10004038227E+04  0.10004038227E+04  0.51100000000E-03 0.  1.
          2   -1    0    0  501    0 -0.00000000000E+00 -0.00000000000E+00 -0.14786489971E+03  0.14786489973E+03  0.25500000000E-02 0. -1.
         11    1    1    2    0    0  0.10062610261E+03  0.18106897977E+03  0.89753186560E+03  0.92112704755E+03  0.51100000000E-03 0.  1.
         22    1    1    2    0    0 -0.15945419017E+02 -0.96567093803E+02 -0.44486228741E+02  0.10751039271E+03  0.00000000000E+00 0. -1.
          2    1    1    2  501    0 -0.84680683594E+02 -0.84501885969E+02 -0.50671387610E+00  0.11963128216E+03  0.25500000000E-02 0. -1.
<mgrwt>
<rscale>  0 0.22264091E+03</rscale>
<asrwt>0</asrwt>
<pdfrwt beam="1">  1       11 0.10000000E+01 0.20715112E+03</pdfrwt>
<pdfrwt beam="2">  1        2 0.22757632E-01 0.22264091E+03</pdfrwt>
<totfact> 0.29443356E+02</totfact>
</mgrwt>
</event>
<event>
 5    1  0.1851087E-003  0.2108198E+02  0.7818608E-02  0.1809383E+00
         11   -1    0    0    0    0  0.00000000000E+00  0.00000000000E+00  0.10003507598E+04  0.10003507598E+04  0.51100000000E-03 0.  1.
          2   -1    0    0  501    0 -0.00000000000E+00 -0.00000000000E+00 -0.23802971318E+01  0.23802984977E+01  0.25500000000E-02 0.  1.
         11    1    1    2    0    0 -0.24971651459E+02 -0.12154155507E+02  0.13852087217E+03  0.14127752440E+03  0.51100000000E-03 0.  1.
         22    1    1    2    0    0  0.13053012103E+02 -0.48111362138E+01  0.54843851186E+02  0.56580704923E+02  0.00000000000E+00 0.  1.
          2    1    1    2  501    0  0.11918639355E+02  0.16965291721E+02  0.80460573935E+03  0.80487282902E+03  0.25500000000E-02 0.  1.
<mgrwt>
<rscale>  0 0.17125437E+02</rscale>
<asrwt>0</asrwt>
<pdfrwt beam="1">  1       11 0.10000000E+01 0.21081982E+02</pdfrwt>
<pdfrwt beam="2">  1        2 0.36632810E-03 0.17125437E+02</pdfrwt>
<totfact> 0.40249781E+04</totfact>
</mgrwt>
</event>
<event>
 5    1  0.1851087E-003  0.3763431E+03  0.7818608E-02  0.1052294E+00
         11   -1    0    0    0    0  0.00000000000E+00  0.00000000000E+00  0.10010772387E+04  0.10010772387E+04  0.51100000000E-03 0. -1.
          2   -1    0    0  501    0 -0.00000000000E+00 -0.00000000000E+00 -0.11160785787E+04  0.11160785787E+04  0.25500000000E-02 0. -1.
         11    1    1    2    0    0  0.13985813229E+03  0.33011811858E+03  0.93519533716E+03  0.10015630724E+04  0.51100000000E-03 0. -1.
         22    1    1    2    0    0  0.20401082093E+02 -0.37453456474E+02 -0.11509419307E+03  0.12274216403E+03  0.00000000000E+00 0. -1.
          2    1    1    2  501    0 -0.16025921439E+03 -0.29266466211E+03 -0.93510248413E+03  0.99285058094E+03  0.25500000000E-02 0. -1.
<mgrwt>
<rscale>  0 0.37634308E+03</rscale>
<asrwt>0</asrwt>
<pdfrwt beam="1">  1       11 0.10000000E+01 0.35852234E+03</pdfrwt>
<pdfrwt beam="2">  1        2 0.17188936E+00 0.37634308E+03</pdfrwt>
<totfact> 0.27448227E+01</totfact>
</mgrwt>
</event>
<event>
 5    1  0.1851087E-003  0.2006645E+03  0.7818608E-02  0.1149180E+00
         11   -1    0    0    0    0  0.00000000000E+00  0.00000000000E+00  0.10004424170E+04  0.10004424170E+04  0.51100000000E-03 0. -1.
         -2   -1    0    0    0  501 -0.00000000000E+00 -0.00000000000E+00 -0.11346462743E+03  0.11346462746E+03  0.25500000000E-02 0.  1.
         11    1    1    2    0    0  0.18956977687E+03  0.43443419516E+02  0.89222344233E+03  0.91317397140E+03  0.51100000000E-03 0. -1.
         22    1    1    2    0    0 -0.10044819031E+03 -0.43910588615E+02  0.10872867151E+02  0.11016441335E+03  0.00000000000E+00 0.  1.
         -2    1    1    2    0  501 -0.89121586567E+02  0.46716909956E+00 -0.16118519868E+02  0.90568659747E+02  0.25500000000E-02 0.  1.
<mgrwt>
<rscale>  0 0.20066452E+03</rscale>
<asrwt>0</asrwt>
<pdfrwt beam="1">  1       11 0.10000000E+01 0.19448401E+03</pdfrwt>
<pdfrwt beam="2">  1       -2 0.17463819E-01 0.20066452E+03</pdfrwt>
<totfact> 0.21058964E+02</totfact>
</mgrwt>
</event>
<event>
 5    1  0.1851087E-003  0.1693829E+03  0.7818608E-02  0.1178493E+00
         11   -1    0    0    0    0  0.00000000000E+00  0.00000000000E+00  0.10001696893E+04  0.10001696893E+04  0.51100000000E-03 0. -1.
          2   -1    0    0  501    0 -0.00000000000E+00 -0.00000000000E+00 -0.33552050905E+02  0.33552051002E+02  0.25500000000E-02 0. -1.
         11    1    1    2    0    0 -0.79338763703E+02  0.14191635028E+03  0.69381995925E+03  0.71261562272E+03  0.51100000000E-03 0. -1.
         22    1    1    2    0    0  0.20787720197E+02 -0.88735636987E+01  0.24066180563E+02  0.33015912688E+02  0.00000000000E+00 0.  1.
          2    1    1    2  501    0  0.58551043506E+02 -0.13304278658E+03  0.24873149856E+03  0.28809020487E+03  0.25500000000E-02 0. -1.
<mgrwt>
<rscale>  0 0.16938289E+03</rscale>
<asrwt>0</asrwt>
<pdfrwt beam="1">  1       11 0.10000000E+01 0.16258810E+03</pdfrwt>
<pdfrwt beam="2">  1        2 0.51627298E-02 0.16938289E+03</pdfrwt>
<totfact> 0.17885628E+03</totfact>
</mgrwt>
</event>
<event>
 5    1  0.1851087E-003  0.1304015E+03  0.7818608E-02  0.1350011E+00
         11   -1    0    0    0    0  0.00000000000E+00  0.00000000000E+00  0.10001012722E+04  0.10001012722E+04  0.51100000000E-03 0.  1.
         -2   -1    0    0    0  501 -0.00000000000E+00 -0.00000000000E+00 -0.35281926209E+02  0.35281926302E+02  0.25500000000E-02 0. -1.
         11    1    1    2    0    0 -0.13558596051E+03 -0.12934331208E+02  0.77643018299E+03  0.78828591176E+03  0.51100000000E-03 0.  1.
         22    1    1    2    0    0  0.28084408623E+02 -0.29767392715E+02  0.28998570779E+02  0.50157240594E+02  0.00000000000E+00 0. -1.
         -2    1    1    2    0  501  0.10750155189E+03  0.42701723924E+02  0.15939059222E+03  0.19694004615E+03  0.25500000000E-02 0. -1.
<mgrwt>
<rscale>  0 0.73052327E+02</rscale>
<asrwt>0</asrwt>
<pdfrwt beam="1">  1       11 0.10000000E+01 0.13040148E+03</pdfrwt>
<pdfrwt beam="2">  1       -2 0.54285382E-02 0.73052327E+02</pdfrwt>
<totfact> 0.12334374E+03</totfact>
</mgrwt>
</event>
<event>
 5    1  0.1851087E-003  0.1495462E+03  0.7818608E-02  0.1201032E+00
         11   -1    0    0    0    0  0.00000000000E+00  0.00000000000E+00  0.10001705369E+04  0.10001705369E+04  0.51100000000E-03 0. -1.
          2   -1    0    0  501    0 -0.00000000000E+00 -0.00000000000E+00 -0.33227244245E+02  0.33227244343E+02  0.25500000000E-02 0. -1.
         11    1    1    2    0    0 -0.11172561174E+03 -0.12369012481E+03  0.44728152657E+03  0.47732863240E+03  0.51100000000E-03 0. -1.
         22    1    1    2    0    0 -0.11026611338E+02  0.57249801534E+02  0.15662914005E+03  0.16712813481E+03  0.00000000000E+00 0. -1.
          2    1    1    2  501    0  0.12275222307E+03  0.66440323279E+02  0.36303262605E+03  0.38894101405E+03  0.25500000000E-02 0. -1.
<mgrwt>
<rscale>  0 0.14954624E+03</rscale>
<asrwt>0</asrwt>
<pdfrwt beam="1">  1       11 0.10000000E+01 0.58302023E+02</pdfrwt>
<pdfrwt beam="2">  1        2 0.51127554E-02 0.14954624E+03</pdfrwt>
<totfact> 0.17939392E+03</totfact>
</mgrwt>
</event>
<event>
 5    1  0.1851087E-003  0.6210495E+02  0.7818608E-02  0.1590697E+00
         11   -1    0    0    0    0  0.00000000000E+00  0.00000000000E+00  0.10001246739E+04  0.10001246739E+04  0.51100000000E-03 0.  1.
          2   -1    0    0  501    0 -0.00000000000E+00 -0.00000000000E+00 -0.55869625385E+01  0.55869631204E+01  0.25500000000E-02 0.  1.
         11    1    1    2    0    0 -0.53994723978E+01 -0.69247230322E+02  0.37736922364E+03  0.38370804547E+03  0.51100000000E-03 0.  1.
         22    1    1    2    0    0  0.10727674178E+02  0.10705418999E+02  0.66433574779E+02  0.68140361366E+02  0.00000000000E+00 0.  1.
          2    1    1    2  501    0 -0.53282017797E+01  0.58541811323E+02  0.55073491296E+03  0.55386323020E+03  0.25500000000E-02 0.  1.
<mgrwt>
<rscale>  0 0.30679483E+02</rscale>
<asrwt>0</asrwt>
<pdfrwt beam="1">  1       11 0.10000000E+01 0.62104946E+02</pdfrwt>
<pdfrwt beam="2">  1        2 0.85963988E-03 0.30679483E+02</pdfrwt>
<totfact> 0.15301370E+04</totfact>
</mgrwt>
</event>
<event>
 5    1  0.1851087E-003  0.1651074E+03  0.7818608E-02  0.1230402E+00
         11   -1    0    0    0    0  0.00000000000E+00  0.00000000000E+00  0.10001156682E+04  0.10001156682E+04  0.51100000000E-03 0. -1.
          2   -1    0    0  501    0 -0.00000000000E+00 -0.00000000000E+00 -0.88865198917E+02  0.88865198953E+02  0.25500000000E-02 0.  1.
         11    1    1    2    0    0  0.15618804939E+03 -0.11584428131E+03  0.71837958227E+03  0.74423371901E+03  0.51100000000E-03 0. -1.
         22    1    1    2    0    0 -0.25797190246E+02  0.95876005037E+02 -0.13110467775E+02  0.10014782939E+03  0.00000000000E+00 0.  1.
          2    1    1    2  501    0 -0.13039085915E+03  0.19968276277E+02  0.20598135476E+03  0.24459931873E+03  0.25500000000E-02 0.  1.
<mgrwt>
<rscale>  0 0.12803456E+03</rscale>
<asrwt>0</asrwt>
<pdfrwt beam="1">  1       11 0.10000000E+01 0.16510741E+03</pdfrwt>
<pdfrwt beam="2">  1        2 0.13673150E-01 0.12803456E+03</pdfrwt>
<totfact> 0.52028821E+02</totfact>
</mgrwt>
</event>
<event>
 5    1  0.1851087E-003  0.1224314E+03  0.7818608E-02  0.1303009E+00
         11   -1    0    0    0    0  0.00000000000E+00  0.00000000000E+00  0.10000372056E+04  0.10000372056E+04  0.51100000000E-03 0. -1.
          2   -1    0    0  501    0 -0.00000000000E+00 -0.00000000000E+00 -0.44335006214E+02  0.44335006288E+02  0.25500000000E-02 0. -1.
         11    1    1    2    0    0 -0.88076097736E+02 -0.14737439313E+03  0.21054423199E+03  0.27167164808E+03  0.51100000000E-03 0. -1.
         22    1    1    2    0    0  0.51408934473E+01  0.11258782723E+03  0.36252762110E+03  0.37964288968E+03  0.00000000000E+00 0. -1.
          2    1    1    2  501    0  0.82935204289E+02  0.34786565900E+02  0.38263034625E+03  0.39305767408E+03  0.25500000000E-02 0. -1.
<mgrwt>
<rscale>  0 0.89935273E+02</rscale>
<asrwt>0</asrwt>
<pdfrwt beam="1">  1       11 0.10000000E+01 0.12243145E+03</pdfrwt>
<pdfrwt beam="2">  1        2 0.68210238E-02 0.89935273E+02</pdfrwt>
<totfact> 0.11905719E+03</totfact>
</mgrwt>
</event>
<event>
 5    1  0.1851087E-003  0.2164346E+03  0.7818608E-02  0.1272144E+00
         11   -1    0    0    0    0  0.00000000000E+00  0.00000000000E+00  0.10000070859E+04  0.10000070859E+04  0.51100000000E-03 0. -1.
          2   -1    0    0  501    0 -0.00000000000E+00 -0.00000000000E+00 -0.38756521154E+03  0.38756521154E+03  0.25500000000E-02 0. -1.
         11    1    1    2    0    0 -0.18258659712E+03 -0.11923599501E+03  0.94963013623E+03  0.97434720895E+03  0.51100000000E-03 0. -1.
         22    1    1    2    0    0  0.49120671869E+02  0.90832824191E+01 -0.24028408639E+02  0.55432038084E+02  0.00000000000E+00 0.  1.
          2    1    1    2  501    0  0.13346592525E+03  0.11015271259E+03 -0.31315985319E+03  0.35779305045E+03  0.25500000000E-02 0. -1.
<mgrwt>
<rscale>  0 0.10397911E+03</rscale>
<asrwt>0</asrwt>
<pdfrwt beam="1">  1       11 0.10000000E+01 0.21643465E+03</pdfrwt>
<pdfrwt beam="2">  1        2 0.59625838E-01 0.10397911E+03</pdfrwt>
<totfact> 0.10329687E+02</totfact>
</mgrwt>
</event>
<event>
 5    1  0.1851087E-003  0.1910251E+03  0.7818608E-02  0.1157540E+00
         11   -1    0    0    0    0  0.00000000000E+00  0.00000000000E+00  0.10001921180E+04  0.10001921180E+04  0.51100000000E-03 0. -1.
         -2   -1    0    0    0  501 -0.00000000000E+00 -0.00000000000E+00 -0.23394982250E+03  0.23394982251E+03  0.25500000000E-02 0.  1.
         11    1    1    2    0    0 -0.94941489395E+02  0.15909170057E+03  0.95070661711E+03  0.96859027840E+03  0.51100000000E-03 0. -1.
         22    1    1    2    0    0  0.35154494016E+02 -0.32873041619E+02 -0.27435950754E+02  0.55400421556E+02  0.00000000000E+00 0. -1.
         -2    1    1    2    0  501  0.59786995379E+02 -0.12621865895E+03 -0.15702837080E+03  0.21015124060E+03  0.25500000000E-02 0.  1.
<mgrwt>
<rscale>  0 0.19102513E+03</rscale>
<asrwt>0</asrwt>
<pdfrwt beam="1">  1       11 0.10000000E+01 0.18526752E+03</pdfrwt>
<pdfrwt beam="2">  1       -2 0.35999194E-01 0.19102513E+03</pdfrwt>
<totfact> 0.58678689E+01</totfact>
</mgrwt>
</event>
<event>
 5    1  0.1851087E-003  0.1661883E+03  0.7818608E-02  0.1181882E+00
         11   -1    0    0    0    0  0.00000000000E+00  0.00000000000E+00  0.99991841424E+03  0.99991841424E+03  0.51100000000E-03 0.  1.
          2   -1    0    0  501    0 -0.00000000000E+00 -0.00000000000E+00 -0.18546873812E+03  0.18546873814E+03  0.25500000000E-02 0.  1.
         11    1    1    2    0    0 -0.10477180450E+03 -0.11973706487E+03  0.95473717344E+03  0.96790349006E+03  0.51100000000E-03 0.  1.
         22    1    1    2    0    0  0.88116207099E+02  0.79405664566E+02 -0.12204025070E+03  0.17018680416E+03  0.00000000000E+00 0.  1.
          2    1    1    2  501    0  0.16655597400E+02  0.40331400309E+02 -0.18247246625E+02  0.47296858157E+02  0.25500000000E-02 0.  1.
<mgrwt>
<rscale>  0 0.16618833E+03</rscale>
<asrwt>0</asrwt>
<pdfrwt beam="1">  1       11 0.10000000E+01 0.15910404E+03</pdfrwt>
<pdfrwt beam="2">  1        2 0.28531323E-01 0.16618833E+03</pdfrwt>
<totfact> 0.22752286E+02</totfact>
</mgrwt>
</event>
<event>
 5    1  0.1851087E-003  0.1908834E+03  0.7818608E-02  0.1377319E+00
         11   -1    0    0    0    0  0.00000000000E+00  0.00000000000E+00  0.10001311674E+04  0.10001311674E+04  0.51100000000E-03 0. -1.
          2   -1    0    0  501    0 -0.00000000000E+00 -0.00000000000E+00 -0.43831007442E+02  0.43831007516E+02  0.25500000000E-02 0. -1.
         11    1    1    2    0    0  0.84508004732E+02  0.18165512998E+03  0.52881470248E+03  0.56549551605E+03  0.51100000000E-03 0. -1.
         22    1    1    2    0    0 -0.18077886937E+02 -0.12975406252E+02  0.12296361408E+02  0.25423840532E+02  0.00000000000E+00 0. -1.
          2    1    1    2  501    0 -0.66430117796E+02 -0.16867972373E+03  0.41518909609E+03  0.45304281836E+03  0.25500000000E-02 0. -1.
<mgrwt>
<rscale>  0 0.65173782E+02</rscale>
<asrwt>0</asrwt>
<pdfrwt beam="1">  1       11 0.10000000E+01 0.19088340E+03</pdfrwt>
<pdfrwt beam="2">  1        2 0.67441162E-02 0.65173782E+02</pdfrwt>
<totfact> 0.11759691E+03</totfact>
</mgrwt>
</event>
<event>
 5    1  0.1851087E-003  0.1129913E+03  0.7818608E-02  0.1526040E+00
         11   -1    0    0    0    0  0.00000000000E+00  0.00000000000E+00  0.10002184563E+04  0.10002184563E+04  0.51100000000E-03 0. -1.
          2   -1    0    0  501    0 -0.00000000000E+00 -0.00000000000E+00 -0.15398831636E+02  0.15398831847E+02  0.25500000000E-02 0. -1.
         11    1    1    2    0    0 -0.47572961209E+02 -0.10895395334E+03  0.56717117652E+03  0.57949744957E+03  0.51100000000E-03 0. -1.
         22    1    1    2    0    0  0.38690770400E+01  0.11952551717E+02  0.14578295940E+02  0.19244738560E+02  0.00000000000E+00 0. -1.
          2    1    1    2  501    0  0.43703884169E+02  0.97001401622E+02  0.40307015218E+03  0.41687509999E+03  0.25500000000E-02 0. -1.
<mgrwt>
<rscale>  0 0.37676638E+02</rscale>
<asrwt>0</asrwt>
<pdfrwt beam="1">  1       11 0.10000000E+01 0.11299131E+03</pdfrwt>
<pdfrwt beam="2">  1        2 0.23695685E-02 0.37676638E+02</pdfrwt>
<totfact> 0.41970547E+03</totfact>
</mgrwt>
</event>
<event>
 5    1  0.1851087E-003  0.2244512E+03  0.7818608E-02  0.1289560E+00
         11   -1    0    0    0    0  0.00000000000E+00  0.00000000000E+00  0.10000357940E+04  0.10000357940E+04  0.51100000000E-03 0. -1.
         -2   -1    0    0    0  501 -0.00000000000E+00 -0.00000000000E+00 -0.10884343101E+03  0.10884343104E+03  0.25500000000E-02 0.  1.
         11    1    1    2    0    0  0.22404884499E+03 -0.58720110748E+02  0.81678991828E+03  0.84899452704E+03  0.51100000000E-03 0. -1.
         22    1    1    2    0    0 -0.29358466760E+02  0.28364116395E+02 -0.15023544022E+02  0.43498845322E+02  0.00000000000E+00 0.  1.
         -2    1    1    2    0  501 -0.19469037823E+03  0.30355994353E+02  0.89425988723E+02  0.21638585267E+03  0.25500000000E-02 0.  1.
<mgrwt>
<rscale>  0 0.95721297E+02</rscale>
<asrwt>0</asrwt>
<pdfrwt beam="1">  1       11 0.10000000E+01 0.22445121E+03</pdfrwt>
<pdfrwt beam="2">  1       -2 0.16745742E-01 0.95721297E+02</pdfrwt>
<totfact> 0.21921781E+02</totfact>
</mgrwt>
</event>
<event>
 5    1  0.1851087E-003  0.3276018E+03  0.7818608E-02  0.1072203E+00
         11   -1    0    0    0    0  0.00000000000E+00  0.00000000000E+00  0.10000853468E+04  0.10000853468E+04  0.51100000000E-03 0. -1.
          2   -1    0    0  501    0 -0.00000000000E+00 -0.00000000000E+00 -0.40588524867E+03  0.40588524868E+03  0.25500000000E-02 0. -1.
         11    1    1    2    0    0 -0.16655805561E+03 -0.26792481022E+03  0.90253876238E+03  0.95608655854E+03  0.51100000000E-03 0. -1.
         22    1    1    2    0    0  0.19073918625E+02  0.51722228882E+02 -0.15768649210E+02  0.57338064409E+02  0.00000000000E+00 0.  1.
          2    1    1    2  501    0  0.14748413698E+03  0.21620258134E+03 -0.29257001504E+03  0.39254597253E+03  0.25500000000E-02 0. -1.
<mgrwt>
<rscale>  0 0.32760176E+03</rscale>
<asrwt>0</asrwt>
<pdfrwt beam="1">  1       11 0.10000000E+01 0.31547629E+03</pdfrwt>
<pdfrwt beam="2">  1        2 0.62449212E-01 0.32760176E+03</pdfrwt>
<totfact> 0.97536021E+01</totfact>
</mgrwt>
</event>
<event>
 5    1  0.1851087E-003  0.2196715E+03  0.7818608E-02  0.1134128E+00
         11   -1    0    0    0    0  0.00000000000E+00  0.00000000000E+00  0.10004027435E+04  0.10004027435E+04  0.51100000000E-03 0.  1.
          2   -1    0    0  501    0 -0.00000000000E+00 -0.00000000000E+00 -0.41892767124E+03  0.41892767125E+03  0.25500000000E-02 0.  1.
         11    1    1    2    0    0  0.20479712431E+03  0.38898083563E+02  0.95962501080E+03  0.98200564376E+03  0.51100000000E-03 0.  1.
         22    1    1    2    0    0 -0.98620058659E+02  0.10958252831E+02 -0.21048428281E+03  0.23270073610E+03  0.00000000000E+00 0.  1.
          2    1    1    2  501    0 -0.10617706565E+03 -0.49856336394E+02 -0.16766565571E+03  0.20462403490E+03  0.25500000000E-02 0.  1.
<mgrwt>
<rscale>  0 0.21967153E+03</rscale>
<asrwt>0</asrwt>
<pdfrwt beam="1">  1       11 0.10000000E+01 0.20845844E+03</pdfrwt>
<pdfrwt beam="2">  1        2 0.64476366E-01 0.21967153E+03</pdfrwt>
<totfact> 0.94520254E+01</totfact>
</mgrwt>
</event>
<event>
 5    1  0.1851087E-003  0.1741216E+03  0.7818608E-02  0.1173617E+00
         11   -1    0    0    0    0  0.00000000000E+00  0.00000000000E+00  0.10002802668E+04  0.10002802668E+04  0.51100000000E-03 0. -1.
          2   -1    0    0  501    0 -0.00000000000E+00 -0.00000000000E+00 -0.13477908636E+03  0.13477908638E+03  0.25500000000E-02 0.  1.
         11    1    1    2    0    0  0.16842750747E+03 -0.11650039061E+02  0.67759301058E+03  0.69830927007E+03  0.51100000000E-03 0. -1.
         22    1    1    2    0    0 -0.36553567829E+02 -0.10811266625E+03  0.22726834878E+03  0.25431361403E+03  0.00000000000E+00 0. -1.
          2    1    1    2  501    0 -0.13187393964E+03  0.11976270531E+03 -0.39360178959E+02  0.18243646904E+03  0.25500000000E-02 0.  1.
<mgrwt>
<rscale>  0 0.17412156E+03</rscale>
<asrwt>0</asrwt>
<pdfrwt beam="1">  1       11 0.10000000E+01 0.11412498E+03</pdfrwt>
<pdfrwt beam="2">  1        2 0.20741055E-01 0.17412156E+03</pdfrwt>
<totfact> 0.32490550E+02</totfact>
</mgrwt>
</event>
<event>
 5    1  0.1851087E-003  0.6870040E+02  0.7818608E-02  0.1368838E+00
         11   -1    0    0    0    0  0.00000000000E+00  0.00000000000E+00  0.10002811499E+04  0.10002811499E+04  0.51100000000E-03 0.  1.
          2   -1    0    0  501    0 -0.00000000000E+00 -0.00000000000E+00 -0.13694437771E+02  0.13694438009E+02  0.25500000000E-02 0.  1.
         11    1    1    2    0    0 -0.88171452842E+01 -0.90650907515E+02  0.38785068153E+03  0.39840115493E+03  0.51100000000E-03 0.  1.
         22    1    1    2    0    0  0.52380441816E+02  0.40649855328E+02  0.18424973381E+03  0.19581645956E+03  0.00000000000E+00 0.  1.
          2    1    1    2  501    0 -0.43563296531E+02  0.50001052187E+02  0.41448629683E+03  0.41975797347E+03  0.25500000000E-02 0.  1.
<mgrwt>
<rscale>  0 0.67491166E+02</rscale>
<asrwt>0</asrwt>
<pdfrwt beam="1">  1       11 0.10000000E+01 0.68700397E+02</pdfrwt>
<pdfrwt beam="2">  1        2 0.21074289E-02 0.67491166E+02</pdfrwt>
<totfact> 0.53294417E+03</totfact>
</mgrwt>
</event>
<event>
 5    1  0.1851087E-003  0.1056135E+03  0.7818608E-02  0.1479073E+00
         11   -1    0    0    0    0  0.00000000000E+00  0.00000000000E+00  0.10001469146E+04  0.10001469146E+04  0.51100000000E-03 0.  1.
          2   -1    0    0  501    0 -0.00000000000E+00 -0.00000000000E+00 -0.23224461571E+02  0.23224461711E+02  0.25500000000E-02 0.  1.
         11    1    1    2    0    0  0.12478739081E+03  0.14389023534E+02  0.39681885100E+03  0.41622606527E+03  0.51100000000E-03 0.  1.
         22    1    1    2    0    0 -0.96252766091E+02  0.19432754195E+02  0.53508335184E+03  0.54401876837E+03  0.00000000000E+00 0.  1.
          2    1    1    2  501    0 -0.28534624723E+02 -0.33821777729E+02  0.45020250203E+02  0.63126542687E+02  0.25500000000E-02 0.  1.
<mgrwt>
<rscale>  0 0.44250847E+02</rscale>
<asrwt>0</asrwt>
<pdfrwt beam="1">  1       11 0.10000000E+01 0.10561346E+03</pdfrwt>
<pdfrwt beam="2">  1        2 0.35735189E-02 0.44250847E+02</pdfrwt>
<totfact> 0.25240778E+03</totfact>
</mgrwt>
</event>
<event>
 5    1  0.1851087E-003  0.1744898E+03  0.7818608E-02  0.1173245E+00
         11   -1    0    0    0    0  0.00000000000E+00  0.00000000000E+00  0.10002150089E+04  0.10002150089E+04  0.51100000000E-03 0.  1.
          2   -1    0    0  501    0 -0.00000000000E+00 -0.00000000000E+00 -0.49717417650E+02  0.49717417715E+02  0.25500000000E-02 0.  1.
         11    1    1    2    0    0 -0.13768771317E+03 -0.10170837299E+03  0.80423149269E+03  0.82224740397E+03  0.51100000000E-03 0.  1.
         22    1    1    2    0    0  0.86583285909E+01  0.19329945244E+02  0.14136101812E+02  0.25464540278E+02  0.00000000000E+00 0. -1.
          2    1    1    2  501    0  0.12902938458E+03  0.82378427747E+02  0.13212999675E+03  0.20222048237E+03  0.25500000000E-02 0.  1.
<mgrwt>
<rscale>  0 0.17448982E+03</rscale>
<asrwt>0</asrwt>
<pdfrwt beam="1">  1       11 0.10000000E+01 0.17117973E+03</pdfrwt>
<pdfrwt beam="2">  1        2 0.76504778E-02 0.17448982E+03</pdfrwt>
<totfact> 0.10786713E+03</totfact>
</mgrwt>
</event>
<event>
 5    1  0.1851087E-003  0.1968574E+03  0.7818608E-02  0.1152418E+00
         11   -1    0    0    0    0  0.00000000000E+00  0.00000000000E+00  0.10000921599E+04  0.10000921599E+04  0.51100000000E-03 0. -1.
          2   -1    0    0  501    0 -0.00000000000E+00 -0.00000000000E+00 -0.72533100917E+02  0.72533100961E+02  0.25500000000E-02 0. -1.
         11    1    1    2    0    0 -0.17980218285E+03 -0.49794560203E+02  0.83409634991E+03  0.85470757813E+03  0.51100000000E-03 0. -1.
         22    1    1    2    0    0  0.14943891413E+02  0.25207728614E+02  0.21598730925E+02  0.36404047165E+02  0.00000000000E+00 0. -1.
          2    1    1    2  501    0  0.16485829144E+03  0.24586831589E+02  0.71863978198E+02  0.18151363561E+03  0.25500000000E-02 0. -1.
<mgrwt>
<rscale>  0 0.19685741E+03</rscale>
<asrwt>0</asrwt>
<pdfrwt beam="1">  1       11 0.10000000E+01 0.18656989E+03</pdfrwt>
<pdfrwt beam="2">  1        2 0.11159967E-01 0.19685741E+03</pdfrwt>
<totfact> 0.67792368E+02</totfact>
</mgrwt>
</event>
<event>
 5    1  0.1851087E-003  0.2711859E+03  0.7818608E-02  0.1100603E+00
         11   -1    0    0    0    0  0.00000000000E+00  0.00000000000E+00  0.10003115530E+04  0.10003115530E+04  0.51100000000E-03 0. -1.
          2   -1    0    0  501    0 -0.00000000000E+00 -0.00000000000E+00 -0.62731402477E+03  0.62731402478E+03  0.25500000000E-02 0. -1.
         11    1    1    2    0    0  0.26180819414E+03 -0.46298450998E+02  0.95191091513E+03  0.98834278842E+03  0.51100000000E-03 0. -1.
         22    1    1    2    0    0 -0.30118751129E+02  0.16144182671E+02 -0.11322344433E+03  0.11826800983E+03  0.00000000000E+00 0.  1.
          2    1    1    2  501    0 -0.23168944301E+03  0.30154268327E+02 -0.46568994255E+03  0.52101477954E+03  0.25500000000E-02 0. -1.
<mgrwt>
<rscale>  0 0.27118587E+03</rscale>
<asrwt>0</asrwt>
<pdfrwt beam="1">  1       11 0.10000000E+01 0.26587041E+03</pdfrwt>
<pdfrwt beam="2">  1        2 0.96539915E-01 0.27118587E+03</pdfrwt>
<totfact> 0.59697097E+01</totfact>
</mgrwt>
</event>
<event>
 5    1  0.1851087E-003  0.1335774E+03  0.7818608E-02  0.1222242E+00
         11   -1    0    0    0    0  0.00000000000E+00  0.00000000000E+00  0.10002271137E+04  0.10002271137E+04  0.51100000000E-03 0. -1.
          2   -1    0    0  501    0 -0.00000000000E+00 -0.00000000000E+00 -0.19330830951E+02  0.19330831120E+02  0.25500000000E-02 0. -1.
         11    1    1    2    0    0  0.85539783004E+02  0.93901387319E+02  0.65756107738E+03  0.66971717576E+03  0.51100000000E-03 0. -1.
         22    1    1    2    0    0 -0.92466897553E+01 -0.37013195936E+02  0.82950808760E+02  0.91303420631E+02  0.00000000000E+00 0. -1.
          2    1    1    2  501    0 -0.76293093249E+02 -0.56888191383E+02  0.24038439662E+03  0.25853734845E+03  0.25500000000E-02 0. -1.
<mgrwt>
<rscale>  0 0.13357735E+03</rscale>
<asrwt>0</asrwt>
<pdfrwt beam="1">  1       11 0.10000000E+01 0.12702175E+03</pdfrwt>
<pdfrwt beam="2">  1        2 0.29746494E-02 0.13357735E+03</pdfrwt>
<totfact> 0.36434186E+03</totfact>
</mgrwt>
</event>
<event>
 5    1  0.1851087E-003  0.1784924E+03  0.7818608E-02  0.1169270E+00
         11   -1    0    0    0    0  0.00000000000E+00  0.00000000000E+00  0.10003259091E+04  0.10003259091E+04  0.51100000000E-03 0. -1.
          2   -1    0    0  501    0 -0.00000000000E+00 -0.00000000000E+00 -0.32956866024E+02  0.32956866123E+02  0.25500000000E-02 0. -1.
         11    1    1    2    0    0 -0.10160334318E+03 -0.13703453340E+03  0.61587997804E+03  0.63906951894E+03  0.51100000000E-03 0. -1.
         22    1    1    2    0    0  0.36532344224E+02  0.31423524971E+02  0.56845120353E+02  0.74521257397E+02  0.00000000000E+00 0.  1.
          2    1    1    2  501    0  0.65070998958E+02  0.10561100843E+03  0.29464394473E+03  0.31969199893E+03  0.25500000000E-02 0. -1.
<mgrwt>
<rscale>  0 0.17849238E+03</rscale>
<asrwt>0</asrwt>
<pdfrwt beam="1">  1       11 0.10000000E+01 0.17059221E+03</pdfrwt>
<pdfrwt beam="2">  1        2 0.50719394E-02 0.17849238E+03</pdfrwt>
<totfact> 0.18380438E+03</totfact>
</mgrwt>
</event>
<event>
 5    1  0.1851087E-003  0.9802786E+02  0.7818608E-02  0.1284499E+00
         11   -1    0    0    0    0  0.00000000000E+00  0.00000000000E+00  0.10000879623E+04  0.10000879623E+04  0.51100000000E-03 0. -1.
          2   -1    0    0  501    0 -0.00000000000E+00 -0.00000000000E+00 -0.94376013750E+01  0.94376017195E+01  0.25500000000E-02 0. -1.
         11    1    1    2    0    0  0.57618687033E+02 -0.74105607874E+02  0.56401787701E+03  0.57177593496E+03  0.51100000000E-03 0. -1.
         22    1    1    2    0    0 -0.21615398122E+02  0.14309319508E+02  0.77875267781E+02  0.82076424098E+02  0.00000000000E+00 0. -1.
          2    1    1    2  501    0 -0.36003288912E+02  0.59796288366E+02  0.34875721615E+03  0.35567320497E+03  0.25500000000E-02 0. -1.
<mgrwt>
<rscale>  0 0.98027860E+02</rscale>
<asrwt>0</asrwt>
<pdfrwt beam="1">  1       11 0.10000000E+01 0.93869879E+02</pdfrwt>
<pdfrwt beam="2">  1        2 0.14520664E-02 0.98027860E+02</pdfrwt>
<totfact> 0.92754499E+03</totfact>
</mgrwt>
</event>
<event>
 5    1  0.1851087E-003  0.1369707E+03  0.7818608E-02  0.1217464E+00
         11   -1    0    0    0    0  0.00000000000E+00  0.00000000000E+00  0.99999123611E+03  0.99999123611E+03  0.51100000000E-03 0. -1.
          2   -1    0    0  501    0 -0.00000000000E+00 -0.00000000000E+00 -0.26046684892E+02  0.26046685017E+02  0.25500000000E-02 0. -1.
         11    1    1    2    0    0  0.19670444536E+02  0.13292947519E+03  0.76150360926E+03  0.77326898210E+03  0.51100000000E-03 0. -1.
         22    1    1    2    0    0  0.53941428234E+01 -0.11587888487E+02  0.15456288395E+02  0.20056739200E+02  0.00000000000E+00 0. -1.
          2    1    1    2  501    0 -0.25064587359E+02 -0.12134158670E+03  0.19698465357E+03  0.23271219983E+03  0.25500000000E-02 0. -1.
<mgrwt>
<rscale>  0 0.13697074E+03</rscale>
<asrwt>0</asrwt>
<pdfrwt beam="1">  1       11 0.10000000E+01 0.13437698E+03</pdfrwt>
<pdfrwt beam="2">  1        2 0.40071471E-02 0.13697074E+03</pdfrwt>
<totfact> 0.24538317E+03</totfact>
</mgrwt>
</event>
<event>
 5    1  0.1851087E-003  0.1606264E+03  0.7818608E-02  0.1187991E+00
         11   -1    0    0    0    0  0.00000000000E+00  0.00000000000E+00  0.10003725244E+04  0.10003725244E+04  0.51100000000E-03 0. -1.
          2   -1    0    0  501    0 -0.00000000000E+00 -0.00000000000E+00 -0.25681738527E+02  0.25681738654E+02  0.25500000000E-02 0. -1.
         11    1    1    2    0    0  0.36253003620E+02  0.15501757515E+03  0.52010314905E+03  0.54392280200E+03  0.51100000000E-03 0. -1.
         22    1    1    2    0    0 -0.51012195557E+01 -0.13881879524E+02  0.27118404763E+02  0.30889106444E+02  0.00000000000E+00 0. -1.
          2    1    1    2  501    0 -0.31151784065E+02 -0.14113569563E+03  0.42746923202E+03  0.45124235458E+03  0.25500000000E-02 0. -1.
<mgrwt>
<rscale>  0 0.16062636E+03</rscale>
<asrwt>0</asrwt>
<pdfrwt beam="1">  1       11 0.10000000E+01 0.15920028E+03</pdfrwt>
<pdfrwt beam="2">  1        2 0.39525085E-02 0.16062636E+03</pdfrwt>
<totfact> 0.25347434E+03</totfact>
</mgrwt>
</event>
<event>
 5    1  0.1851087E-003  0.2503874E+03  0.7818608E-02  0.1416711E+00
         11   -1    0    0    0    0  0.00000000000E+00  0.00000000000E+00  0.99987770619E+03  0.99987770619E+03  0.51100000000E-03 0.  1.
          2   -1    0    0  501    0 -0.00000000000E+00 -0.00000000000E+00 -0.53955417806E+03  0.53955417806E+03  0.25500000000E-02 0.  1.
         11    1    1    2    0    0 -0.11377123865E+03 -0.22319690919E+03  0.94760400885E+03  0.98016024843E+03  0.51100000000E-03 0.  1.
         22    1    1    2    0    0 -0.83400482139E+01  0.91774811233E+01  0.89645131264E+00  0.12433269439E+02  0.00000000000E+00 0.  1.
          2    1    1    2  501    0  0.12211128687E+03  0.21401942807E+03 -0.48817693203E+03  0.54683836638E+03  0.25500000000E-02 0.  1.
<mgrwt>
<rscale>  0 0.55722807E+02</rscale>
<asrwt>0</asrwt>
<pdfrwt beam="1">  1       11 0.10000000E+01 0.25038737E+03</pdfrwt>
<pdfrwt beam="2">  1        2 0.82998181E-01 0.55722807E+02</pdfrwt>
<totfact> 0.73157168E+01</totfact>
</mgrwt>
</event>
<event>
 5    1  0.1851087E-003  0.1282500E+03  0.7818608E-02  0.1230076E+00
         11   -1    0    0    0    0  0.00000000000E+00  0.00000000000E+00  0.10001699902E+04  0.10001699902E+04  0.51100000000E-03 0.  1.
          2   -1    0    0  501    0 -0.00000000000E+00 -0.00000000000E+00 -0.60266372521E+02  0.60266372575E+02  0.25500000000E-02 0.  1.
         11    1    1    2    0    0 -0.87649854340E+02  0.86077770961E+02  0.48285325342E+03  0.49823603237E+03  0.51100000000E-03 0.  1.
         22    1    1    2    0    0 -0.34441663297E+02 -0.14419274116E+03  0.37691282531E+03  0.40501981761E+03  0.00000000000E+00 0.  1.
          2    1    1    2  501    0  0.12209151764E+03  0.58114970199E+02  0.80137538918E+02  0.15718051276E+03  0.25500000000E-02 0.  1.
<mgrwt>
<rscale>  0 0.12824996E+03</rscale>
<asrwt>0</asrwt>
<pdfrwt beam="1">  1       11 0.10000000E+01 0.12284901E+03</pdfrwt>
<pdfrwt beam="2">  1        2 0.92733255E-02 0.12824996E+03</pdfrwt>
<totfact> 0.83193180E+02</totfact>
</mgrwt>
</event>
<event>
 5    1  0.1851087E-003  0.1596804E+03  0.7818608E-02  0.1189058E+00
         11   -1    0    0    0    0  0.00000000000E+00  0.00000000000E+00  0.10002172191E+04  0.10002172191E+04  0.51100000000E-03 0.  1.
          2   -1    0    0  501    0 -0.00000000000E+00 -0.00000000000E+00 -0.10067971299E+03  0.10067971302E+03  0.25500000000E-02 0.  1.
         11    1    1    2    0    0  0.52651739704E+02 -0.14476679484E+03  0.92627214690E+03  0.93899399397E+03  0.51100000000E-03 0.  1.
         22    1    1    2    0    0  0.56662087936E+01  0.11862448031E+02 -0.84298998756E+01  0.15616875721E+02  0.00000000000E+00 0.  1.
          2    1    1    2  501    0 -0.58317948498E+02  0.13290434681E+03 -0.18304740917E+02  0.14628606244E+03  0.25500000000E-02 0.  1.
<mgrwt>
<rscale>  0 0.15968037E+03</rscale>
<asrwt>0</asrwt>
<pdfrwt beam="1">  1       11 0.10000000E+01 0.15404425E+03</pdfrwt>
<pdfrwt beam="2">  1        2 0.15492551E-01 0.15968037E+03</pdfrwt>
<totfact> 0.45345176E+02</totfact>
</mgrwt>
</event>
<event>
 5    1  0.1851087E-003  0.1990665E+03  0.7818608E-02  0.1378315E+00
         11   -1    0    0    0    0  0.00000000000E+00  0.00000000000E+00  0.10002185751E+04  0.10002185751E+04  0.51100000000E-03 0. -1.
          2   -1    0    0  501    0 -0.00000000000E+00 -0.00000000000E+00 -0.52750902804E+02  0.52750902865E+02  0.25500000000E-02 0. -1.
         11    1    1    2    0    0 -0.12990606545E+03 -0.16249838954E+03  0.28101618344E+03  0.34964468793E+03  0.51100000000E-03 0. -1.
         22    1    1    2    0    0  0.21164463780E+02  0.62157750338E-01  0.25028660712E+02  0.32777618091E+02  0.00000000000E+00 0. -1.
          2    1    1    2  501    0  0.10874160167E+03  0.16243623179E+03  0.64142282812E+03  0.67054717192E+03  0.25500000000E-02 0. -1.
<mgrwt>
<rscale>  0 0.64908795E+02</rscale>
<asrwt>0</asrwt>
<pdfrwt beam="1">  1       11 0.10000000E+01 0.19906650E+03</pdfrwt>
<pdfrwt beam="2">  1        2 0.81172971E-02 0.64908795E+02</pdfrwt>
<totfact> 0.93504597E+02</totfact>
</mgrwt>
</event>
<event>
 5    1  0.1851087E-003  0.9116610E+02  0.7818608E-02  0.1300052E+00
         11   -1    0    0    0    0  0.00000000000E+00  0.00000000000E+00  0.10000956311E+04  0.10000956311E+04  0.51100000000E-03 0. -1.
          2   -1    0    0  501    0 -0.00000000000E+00 -0.00000000000E+00 -0.87993230562E+01  0.87993234257E+01  0.25500000000E-02 0. -1.
         11    1    1    2    0    0  0.75563175779E+02  0.41963796538E+02  0.32122641490E+03  0.33265171484E+03  0.51100000000E-03 0. -1.
         22    1    1    2    0    0 -0.23645069227E+02 -0.13644466601E+02  0.12339238563E+03  0.12637619079E+03  0.00000000000E+00 0. -1.
          2    1    1    2  501    0 -0.51918106552E+02 -0.28319329937E+02  0.54667750755E+03  0.54986704893E+03  0.25500000000E-02 0. -1.
<mgrwt>
<rscale>  0 0.91166099E+02</rscale>
<asrwt>0</asrwt>
<pdfrwt beam="1">  1       11 0.10000000E+01 0.86433565E+02</pdfrwt>
<pdfrwt beam="2">  1        2 0.13538715E-02 0.91166099E+02</pdfrwt>
<totfact> 0.10099202E+04</totfact>
</mgrwt>
</event>
<event>
 5    1  0.1851087E-003  0.1536627E+03  0.7818608E-02  0.1434811E+00
         11   -1    0    0    0    0  0.00000000000E+00  0.00000000000E+00  0.10001777095E+04  0.10001777095E+04  0.51100000000E-03 0. -1.
         -2   -1    0    0    0  501 -0.00000000000E+00 -0.00000000000E+00 -0.27966047073E+02  0.27966047189E+02  0.25500000000E-02 0. -1.
         11    1    1    2    0    0 -0.12725730732E+03 -0.10052689349E+03  0.50016075364E+03  0.52579545269E+03  0.51100000000E-03 0. -1.
         22    1    1    2    0    0  0.84360087231E+01  0.15447910066E+02  0.17250718432E+02  0.24645313043E+02  0.00000000000E+00 0. -1.
         -2    1    1    2    0  501  0.11882129860E+03  0.85078983423E+02  0.45480019038E+03  0.47770299098E+03  0.25500000000E-02 0. -1.
<mgrwt>
<rscale>  0 0.52006291E+02</rscale>
<asrwt>0</asrwt>
<pdfrwt beam="1">  1       11 0.10000000E+01 0.15366266E+03</pdfrwt>
<pdfrwt beam="2">  1       -2 0.43032333E-02 0.52006291E+02</pdfrwt>
<totfact> 0.16709497E+03</totfact>
</mgrwt>
</event>
<event>
 5    1  0.1851087E-003  0.8520955E+02  0.7818608E-02  0.1314885E+00
         11   -1    0    0    0    0  0.00000000000E+00  0.00000000000E+00  0.10005660825E+04  0.10005660825E+04  0.51100000000E-03 0. -1.
          2   -1    0    0  501    0 -0.00000000000E+00 -0.00000000000E+00 -0.73397461991E+01  0.73397466421E+01  0.25500000000E-02 0. -1.
         11    1    1    2    0    0  0.59242002720E+02  0.58256039347E+02  0.39521120179E+03  0.40385056026E+03  0.51100000000E-03 0. -1.
         22    1    1    2    0    0 -0.16531283785E+02 -0.19762416644E+02  0.13062177839E+03  0.13313859487E+03  0.00000000000E+00 0.  1.
          2    1    1    2  501    0 -0.42710718935E+02 -0.38493622703E+02  0.46739335610E+03  0.47091667398E+03  0.25500000000E-02 0. -1.
<mgrwt>
<rscale>  0 0.85209546E+02</rscale>
<asrwt>0</asrwt>
<pdfrwt beam="1">  1       11 0.10000000E+01 0.83086629E+02</pdfrwt>
<pdfrwt beam="2">  1        2 0.11298309E-02 0.85209546E+02</pdfrwt>
<totfact> 0.12791441E+04</totfact>
</mgrwt>
</event>
<event>
 5    1  0.1851087E-003  0.1995341E+03  0.7818608E-02  0.1150133E+00
         11   -1    0    0    0    0  0.00000000000E+00  0.00000000000E+00  0.10003862161E+04  0.10003862161E+04  0.51100000000E-03 0. -1.
         -2   -1    0    0    0  501 -0.00000000000E+00 -0.00000000000E+00 -0.39318420143E+02  0.39318420226E+02  0.25500000000E-02 0. -1.
         11    1    1    2    0    0 -0.11778590152E+03  0.15800653501E+03  0.46996315934E+03  0.50961255365E+03  0.51100000000E-03 0. -1.
         22    1    1    2    0    0  0.33449470946E+01 -0.19873338680E+02  0.49879947208E+02  0.53797280552E+02  0.00000000000E+00 0.  1.
         -2    1    1    2    0  501  0.11444095442E+03 -0.13813319633E+03  0.44122468942E+03  0.47629480213E+03  0.25500000000E-02 0. -1.
<mgrwt>
<rscale>  0 0.19953409E+03</rscale>
<asrwt>0</asrwt>
<pdfrwt beam="1">  1       11 0.10000000E+01 0.19707771E+03</pdfrwt>
<pdfrwt beam="2">  1       -2 0.60513238E-02 0.19953409E+03</pdfrwt>
<totfact> 0.11406185E+03</totfact>
</mgrwt>
</event>
<event>
 5    1  0.1851087E-003  0.5006663E+02  0.7818608E-02  0.1590792E+00
         11   -1    0    0    0    0  0.00000000000E+00  0.00000000000E+00  0.10001561029E+04  0.10001561029E+04  0.51100000000E-03 0.  1.
          2   -1    0    0  501    0 -0.00000000000E+00 -0.00000000000E+00 -0.65057014932E+01  0.65057019929E+01  0.25500000000E-02 0.  1.
         11    1    1    2    0    0 -0.43194476536E+02  0.42613833627E+02  0.18519579627E+03  0.19488248915E+03  0.51100000000E-03 0.  1.
         22    1    1    2    0    0  0.92392729573E+00 -0.18765990751E+02  0.10617148176E+03  0.10782114630E+03  0.00000000000E+00 0.  1.
          2    1    1    2  501    0  0.42270549240E+02 -0.23847842877E+02  0.70228312339E+03  0.70395816946E+03  0.25500000000E-02 0.  1.
<mgrwt>
<rscale>  0 0.30670628E+02</rscale>
<asrwt>0</asrwt>
<pdfrwt beam="1">  1       11 0.10000000E+01 0.50066626E+02</pdfrwt>
<pdfrwt beam="2">  1        2 0.10010334E-02 0.30670628E+02</pdfrwt>
<totfact> 0.12514779E+04</totfact>
</mgrwt>
</event>
<event>
 5    1  0.1851087E-003  0.1979963E+03  0.7818608E-02  0.1151441E+00
         11   -1    0    0    0    0  0.00000000000E+00  0.00000000000E+00  0.10002688615E+04  0.10002688615E+04  0.51100000000E-03 0.  1.
          2   -1    0    0  501    0 -0.00000000000E+00 -0.00000000000E+00 -0.65087741151E+02  0.65087741201E+02  0.25500000000E-02 0.  1.
         11    1    1    2    0    0  0.19824313992E+03 -0.15239429453E+02  0.19813553901E+03  0.28069605369E+03  0.51100000000E-03 0.  1.
         22    1    1    2    0    0 -0.95951140383E+00  0.64876875678E+02  0.15257578955E+03  0.16579897834E+03  0.00000000000E+00 0.  1.
          2    1    1    2  501    0 -0.19728362852E+03 -0.49637446225E+02  0.58446979182E+03  0.61886157071E+03  0.25500000000E-02 0.  1.
<mgrwt>
<rscale>  0 0.19799633E+03</rscale>
<asrwt>0</asrwt>
<pdfrwt beam="1">  1       11 0.10000000E+01 0.64883971E+02</pdfrwt>
<pdfrwt beam="2">  1        2 0.10016191E-01 0.19799633E+03</pdfrwt>
<totfact> 0.77475765E+02</totfact>
</mgrwt>
</event>
<event>
 5    1  0.1851087E-003  0.6482013E+02  0.7818608E-02  0.1455049E+00
         11   -1    0    0    0    0  0.00000000000E+00  0.00000000000E+00  0.10002895199E+04  0.10002895199E+04  0.51100000000E-03 0. -1.
          2   -1    0    0  501    0 -0.00000000000E+00 -0.00000000000E+00 -0.14637330181E+02  0.14637330403E+02  0.25500000000E-02 0. -1.
         11    1    1    2    0    0 -0.70456998679E+01 -0.89531068889E+02  0.19389953803E+03  0.21368782144E+03  0.51100000000E-03 0. -1.
         22    1    1    2    0    0  0.32271478828E+02  0.48407442065E+02  0.22370548326E+03  0.23114686248E+03  0.00000000000E+00 0.  1.
          2    1    1    2  501    0 -0.25225778960E+02  0.41123626824E+02  0.56804716842E+03  0.57009216637E+03  0.25500000000E-02 0. -1.
<mgrwt>
<rscale>  0 0.48244094E+02</rscale>
<asrwt>0</asrwt>
<pdfrwt beam="1">  1       11 0.10000000E+01 0.64820132E+02</pdfrwt>
<pdfrwt beam="2">  1        2 0.22525489E-02 0.48244094E+02</pdfrwt>
<totfact> 0.46533741E+03</totfact>
</mgrwt>
</event>
<event>
 5    1  0.1851087E-003  0.1355697E+03  0.7818608E-02  0.1219418E+00
         11   -1    0    0    0    0  0.00000000000E+00  0.00000000000E+00  0.99995718390E+03  0.99995718390E+03  0.51100000000E-03 0.  1.
          2   -1    0    0  501    0 -0.00000000000E+00 -0.00000000000E+00 -0.18036259684E+02  0.18036259864E+02  0.25500000000E-02 0.  1.
         11    1    1    2    0    0 -0.73228792919E+02 -0.11036230131E+03  0.45196469400E+03  0.47097173831E+03  0.51100000000E-03 0.  1.
         22    1    1    2    0    0  0.32685349207E+02  0.41245807041E+02  0.26661038809E+03  0.27175475652E+03  0.00000000000E+00 0.  1.
          2    1    1    2  501    0  0.40543443711E+02  0.69116494265E+02  0.26334584213E+03  0.27526694894E+03  0.25500000000E-02 0.  1.
<mgrwt>
<rscale>  0 0.13556969E+03</rscale>
<asrwt>0</asrwt>
<pdfrwt beam="1">  1       11 0.10000000E+01 0.13244739E+03</pdfrwt>
<pdfrwt beam="2">  1        2 0.27746903E-02 0.13556969E+03</pdfrwt>
<totfact> 0.40073273E+03</totfact>
</mgrwt>
</event>
<event>
 5    1  0.1851087E-003  0.1120798E+03  0.7818608E-02  0.1256766E+00
         11   -1    0    0    0    0  0.00000000000E+00  0.00000000000E+00  0.99985003953E+03  0.99985003953E+03  0.51100000000E-03 0. -1.
         -2   -1    0    0    0  501 -0.00000000000E+00 -0.00000000000E+00 -0.13846740189E+02  0.13846740424E+02  0.25500000000E-02 0.  1.
         11    1    1    2    0    0  0.58062023496E+02 -0.92802715615E+02  0.65872244951E+03  0.66775654852E+03  0.51100000000E-03 0. -1.
         22    1    1    2    0    0 -0.48884283246E+02  0.60671049158E+02  0.24649451726E+03  0.25851536974E+03  0.00000000000E+00 0.  1.
         -2    1    1    2    0  501 -0.91777402496E+01  0.32131666457E+02  0.80786332566E+02  0.87424861689E+02  0.25500000000E-02 0.  1.
<mgrwt>
<rscale>  0 0.11207983E+03</rscale>
<asrwt>0</asrwt>
<pdfrwt beam="1">  1       11 0.10000000E+01 0.10946937E+03</pdfrwt>
<pdfrwt beam="2">  1       -2 0.21299482E-02 0.11207983E+03</pdfrwt>
<totfact> 0.50824096E+03</totfact>
</mgrwt>
</event>
<event>
 5    1  0.1851087E-003  0.3760823E+03  0.7818608E-02  0.1052391E+00
         11   -1    0    0    0    0  0.00000000000E+00  0.00000000000E+00  0.99984696164E+03  0.99984696164E+03  0.51100000000E-03 0. -1.
          2   -1    0    0  501    0 -0.00000000000E+00 -0.00000000000E+00 -0.15039191849E+03  0.15039191852E+03  0.25500000000E-02 0. -1.
         11    1    1    2    0    0 -0.31619482703E+03  0.17292004946E+03  0.59678457653E+03  0.69716019890E+03  0.51100000000E-03 0. -1.
         22    1    1    2    0    0  0.31183988121E+02 -0.61915317833E+02  0.34936819414E+02  0.77630722322E+02  0.00000000000E+00 0.  1.
          2    1    1    2  501    0  0.28501083891E+03 -0.11100473162E+03  0.21773364720E+03  0.37544795893E+03  0.25500000000E-02 0. -1.
<mgrwt>
<rscale>  0 0.37608234E+03</rscale>
<asrwt>0</asrwt>
<pdfrwt beam="1">  1       11 0.10000000E+01 0.36038939E+03</pdfrwt>
<pdfrwt beam="2">  1        2 0.23133677E-01 0.37608234E+03</pdfrwt>
<totfact> 0.29232172E+02</totfact>
</mgrwt>
</event>
<event>
 5    1  0.1851087E-003  0.1947316E+03  0.7818608E-02  0.1154262E+00
         11   -1    0    0    0    0  0.00000000000E+00  0.00000000000E+00  0.10001141781E+04  0.10001141781E+04  0.51100000000E-03 0.  1.
          2   -1    0    0  501    0 -0.00000000000E+00 -0.00000000000E+00 -0.19094328745E+03  0.19094328746E+03  0.25500000000E-02 0. -1.
         11    1    1    2    0    0 -0.18277498241E+03  0.49003444488E+02  0.93843771348E+03  0.95732615855E+03  0.51100000000E-03 0.  1.
         22    1    1    2    0    0  0.49300985563E+02 -0.34771695251E+02 -0.35590001184E+02  0.70045029463E+02  0.00000000000E+00 0. -1.
          2    1    1    2  501    0  0.13347399685E+03 -0.14231749238E+02 -0.93676821677E+02  0.16368627752E+03  0.25500000000E-02 0. -1.
<mgrwt>
<rscale>  0 0.19473164E+03</rscale>
<asrwt>0</asrwt>
<pdfrwt beam="1">  1       11 0.10000000E+01 0.18923010E+03</pdfrwt>
<pdfrwt beam="2">  1        2 0.29379244E-01 0.19473164E+03</pdfrwt>
<totfact> 0.22098346E+02</totfact>
</mgrwt>
</event>
<event>
 5    1  0.1851087E-003  0.9540875E+02  0.7818608E-02  0.1290258E+00
         11   -1    0    0    0    0  0.00000000000E+00  0.00000000000E+00  0.10002291460E+04  0.10002291460E+04  0.51100000000E-03 0. -1.
          2   -1    0    0  501    0 -0.00000000000E+00 -0.00000000000E+00 -0.34049390839E+02  0.34049390935E+02  0.25500000000E-02 0. -1.
         11    1    1    2    0    0 -0.41060797227E+02 -0.20619258107E+02  0.30349273793E+01  0.46047298055E+02  0.51100000000E-03 0. -1.
         22    1    1    2    0    0  0.80490007386E+02  0.96264615606E+02  0.71256873529E+03  0.72353280507E+03  0.00000000000E+00 0. -1.
          2    1    1    2  501    0 -0.39429210160E+02 -0.75645357499E+02  0.25057609253E+03  0.26469843384E+03  0.25500000000E-02 0. -1.
<mgrwt>
<rscale>  0 0.95408749E+02</rscale>
<asrwt>0</asrwt>
<pdfrwt beam="1">  1       11 0.10000000E+01 0.45947198E+02</pdfrwt>
<pdfrwt beam="2">  1        2 0.52395680E-02 0.95408749E+02</pdfrwt>
<totfact> 0.16737650E+03</totfact>
</mgrwt>
</event>
<event>
 5    1  0.1851087E-003  0.1624979E+03  0.7818608E-02  0.1185905E+00
         11   -1    0    0    0    0  0.00000000000E+00  0.00000000000E+00  0.10000567053E+04  0.10000567053E+04  0.51100000000E-03 0.  1.
          2   -1    0    0  501    0 -0.00000000000E+00 -0.00000000000E+00 -0.10319238898E+03  0.10319238901E+03  0.25500000000E-02 0.  1.
         11    1    1    2    0    0  0.30962049961E+02 -0.15701948440E+03  0.92464522601E+03  0.93839360665E+03  0.51100000000E-03 0.  1.
         22    1    1    2    0    0  0.44009535120E+01  0.21003570406E+02  0.65525113571E+00  0.21469692957E+02  0.00000000000E+00 0.  1.
          2    1    1    2  501    0 -0.35363003473E+02  0.13601591399E+03 -0.28436160828E+02  0.14338579471E+03  0.25500000000E-02 0.  1.
<mgrwt>
<rscale>  0 0.16249785E+03</rscale>
<asrwt>0</asrwt>
<pdfrwt beam="1">  1       11 0.10000000E+01 0.16004302E+03</pdfrwt>
<pdfrwt beam="2">  1        2 0.15876652E-01 0.16249785E+03</pdfrwt>
<totfact> 0.44093659E+02</totfact>
</mgrwt>
</event>
<event>
 5    1  0.1851087E-003  0.2905566E+03  0.7818608E-02  0.1541967E+00
         11   -1    0    0    0    0  0.00000000000E+00  0.00000000000E+00  0.10010238888E+04  0.10010238888E+04  0.51100000000E-03 0. -1.
          2   -1    0    0  501    0 -0.00000000000E+00 -0.00000000000E+00 -0.12197515495E+04  0.12197515495E+04  0.25500000000E-02 0. -1.
         11    1    1    2    0    0 -0.27558097867E+03 -0.94859072242E+02  0.95910823821E+03  0.10024129548E+04  0.51100000000E-03 0. -1.
         22    1    1    2    0    0  0.24216475143E+03  0.82130323896E+02 -0.82504731957E+03  0.86376630895E+03  0.00000000000E+00 0. -1.
          2    1    1    2  501    0  0.33416227233E+02  0.12728748346E+02 -0.35278857938E+03  0.35459617457E+03  0.25500000000E-02 0. -1.
<mgrwt>
<rscale>  0 0.35758430E+02</rscale>
<asrwt>0</asrwt>
<pdfrwt beam="1">  1       11 0.10000000E+01 0.29055665E+03</pdfrwt>
<pdfrwt beam="2">  1        2 0.18784622E+00 0.35758430E+02</pdfrwt>
<totfact> 0.27762623E+01</totfact>
</mgrwt>
</event>
<event>
 5    1  0.1851087E-003  0.3421111E+03  0.7818608E-02  0.1194307E+00
         11   -1    0    0    0    0  0.00000000000E+00  0.00000000000E+00  0.99996552623E+03  0.99996552623E+03  0.51100000000E-03 0. -1.
          2   -1    0    0  501    0 -0.00000000000E+00 -0.00000000000E+00 -0.26870607832E+03  0.26870607834E+03  0.25500000000E-02 0. -1.
         11    1    1    2    0    0 -0.62925728828E+01  0.35430277278E+03  0.76474313544E+03  0.84285355459E+03  0.51100000000E-03 0. -1.
         22    1    1    2    0    0 -0.45688554201E+02 -0.53486954727E+02 -0.91158017912E+02  0.11514374729E+03  0.00000000000E+00 0.  1.
          2    1    1    2  501    0  0.51981127084E+02 -0.30081581805E+03  0.57674330375E+02  0.31067430269E+03  0.25500000000E-02 0. -1.
<mgrwt>
<rscale>  0 0.15513063E+03</rscale>
<asrwt>0</asrwt>
<pdfrwt beam="1">  1       11 0.10000000E+01 0.34211113E+03</pdfrwt>
<pdfrwt beam="2">  1        2 0.41337970E-01 0.15513063E+03</pdfrwt>
<totfact> 0.15237808E+02</totfact>
</mgrwt>
</event>
<event>
 5    1  0.1851087E-003  0.4783062E+03  0.7818608E-02  0.1019602E+00
         11   -1    0    0    0    0  0.00000000000E+00  0.00000000000E+00  0.10001916382E+04  0.10001916382E+04  0.51100000000E-03 0. -1.
          2   -1    0    0  501    0 -0.00000000000E+00 -0.00000000000E+00 -0.26701740129E+03  0.26701740130E+03  0.25500000000E-02 0. -1.
         11    1    1    2    0    0 -0.43568826547E+03 -0.86366009191E+02  0.70159485779E+02  0.44967288740E+03  0.51100000000E-03 0. -1.
         22    1    1    2    0    0  0.14748614862E+03 -0.38888096665E+02  0.13814883347E+03  0.20579005877E+03  0.00000000000E+00 0.  1.
          2    1    1    2  501    0  0.28820211685E+03  0.12525410586E+03  0.52486591771E+03  0.61174609338E+03  0.25500000000E-02 0. -1.
<mgrwt>
<rscale>  0 0.47830618E+03</rscale>
<asrwt>0</asrwt>
<pdfrwt beam="1">  1       11 0.10000000E+01 0.44416613E+03</pdfrwt>
<pdfrwt beam="2">  1        2 0.41087471E-01 0.47830618E+03</pdfrwt>
<totfact> 0.15425075E+02</totfact>
</mgrwt>
</event>
<event>
 5    1  0.1851087E-003  0.7426025E+02  0.7818608E-02  0.1425740E+00
         11   -1    0    0    0    0  0.00000000000E+00  0.00000000000E+00  0.10001512227E+04  0.10001512227E+04  0.51100000000E-03 0.  1.
          2   -1    0    0  501    0 -0.00000000000E+00 -0.00000000000E+00 -0.39423440803E+02  0.39423440885E+02  0.25500000000E-02 0.  1.
         11    1    1    2    0    0  0.20406481727E+02  0.96943140338E+02  0.56785813048E+03  0.57643495150E+03  0.51100000000E-03 0.  1.
         22    1    1    2    0    0 -0.15690146916E+02 -0.35718571122E+02 -0.21295909831E+02  0.44446741261E+02  0.00000000000E+00 0.  1.
          2    1    1    2  501    0 -0.47163348111E+01 -0.61224569216E+02  0.41416556123E+03  0.41869297080E+03  0.25500000000E-02 0.  1.
<mgrwt>
<rscale>  0 0.53824692E+02</rscale>
<asrwt>0</asrwt>
<pdfrwt beam="1">  1       11 0.10000000E+01 0.74260253E+02</pdfrwt>
<pdfrwt beam="2">  1        2 0.60660618E-02 0.53824692E+02</pdfrwt>
<totfact> 0.13189594E+03</totfact>
</mgrwt>
</event>
<event>
 5    1  0.1851087E-003  0.3157343E+03  0.7818608E-02  0.1077629E+00
         11   -1    0    0    0    0  0.00000000000E+00  0.00000000000E+00  0.10004587158E+04  0.10004587158E+04  0.51100000000E-03 0. -1.
          2   -1    0    0  501    0 -0.00000000000E+00 -0.00000000000E+00 -0.31495922533E+03  0.31495922534E+03  0.25500000000E-02 0. -1.
         11    1    1    2    0    0 -0.29182658087E+03  0.81556603014E+02  0.88937872486E+03  0.93957902756E+03  0.51100000000E-03 0. -1.
         22    1    1    2    0    0  0.97809172725E+02  0.83362591547E+01 -0.38203548123E+02  0.10533583709E+03  0.00000000000E+00 0. -1.
          2    1    1    2  501    0  0.19401740815E+03 -0.89892862169E+02 -0.16567568630E+03  0.27050307645E+03  0.25500000000E-02 0. -1.
<mgrwt>
<rscale>  0 0.31573430E+03</rscale>
<asrwt>0</asrwt>
<pdfrwt beam="1">  1       11 0.10000000E+01 0.30300863E+03</pdfrwt>
<pdfrwt beam="2">  1        2 0.48477491E-01 0.31573430E+03</pdfrwt>
<totfact> 0.12867369E+02</totfact>
</mgrwt>
</event>
<event>
 5    1  0.1851087E-003  0.1776050E+03  0.7818608E-02  0.1170141E+00
         11   -1    0    0    0    0  0.00000000000E+00  0.00000000000E+00  0.10002640642E+04  0.10002640642E+04  0.51100000000E-03 0.  1.
         -2   -1    0    0    0  501 -0.00000000000E+00 -0.00000000000E+00 -0.71256090253E+02  0.71256090299E+02  0.25500000000E-02 0. -1.
         11    1    1    2    0    0 -0.76852170463E+02 -0.71529434939E+02  0.46992897465E+03  0.48151423383E+03  0.51100000000E-03 0.  1.
         22    1    1    2    0    0 -0.14008241531E+03  0.47135329341E+02  0.23145235431E+03  0.27461794309E+03  0.00000000000E+00 0. -1.
         -2    1    1    2    0  501  0.21693458577E+03  0.24394105598E+02  0.22762664501E+03  0.31538797760E+03  0.25500000000E-02 0. -1.
<mgrwt>
<rscale>  0 0.17760495E+03</rscale>
<asrwt>0</asrwt>
<pdfrwt beam="1">  1       11 0.10000000E+01 0.10498912E+03</pdfrwt>
<pdfrwt beam="2">  1       -2 0.10965370E-01 0.17760495E+03</pdfrwt>
<totfact> 0.44795238E+02</totfact>
</mgrwt>
</event>
<event>
 5    1  0.1851087E-003  0.2343560E+03  0.7818608E-02  0.1319004E+00
         11   -1    0    0    0    0  0.00000000000E+00  0.00000000000E+00  0.10001420263E+04  0.10001420263E+04  0.51100000000E-03 0. -1.
          2   -1    0    0  501    0 -0.00000000000E+00 -0.00000000000E+00 -0.14234861275E+03  0.14234861277E+03  0.25500000000E-02 0. -1.
         11    1    1    2    0    0 -0.16434528105E+03  0.16783456406E+03  0.84026675798E+03  0.87248268571E+03  0.51100000000E-03 0. -1.
         22    1    1    2    0    0  0.24045012292E+02  0.17699493484E+02 -0.17756507955E+02  0.34737994480E+02  0.00000000000E+00 0.  1.
          2    1    1    2  501    0  0.14030026876E+03 -0.18553405754E+03  0.35283163529E+02  0.23526995889E+03  0.25500000000E-02 0. -1.
<mgrwt>
<rscale>  0 0.83648936E+02</rscale>
<asrwt>0</asrwt>
<pdfrwt beam="1">  1       11 0.10000000E+01 0.23435600E+03</pdfrwt>
<pdfrwt beam="2">  1        2 0.21902896E-01 0.83648936E+02</pdfrwt>
<totfact> 0.29861590E+02</totfact>
</mgrwt>
</event>
<event>
 5    1  0.1851087E-003  0.1978867E+03  0.7818608E-02  0.1151534E+00
         11   -1    0    0    0    0  0.00000000000E+00  0.00000000000E+00  0.10000352913E+04  0.10000352913E+04  0.51100000000E-03 0. -1.
          2   -1    0    0  501    0 -0.00000000000E+00 -0.00000000000E+00 -0.57857269640E+02  0.57857269697E+02  0.25500000000E-02 0. -1.
         11    1    1    2    0    0  0.16077076483E+03 -0.10754139176E+03  0.15985567336E+03  0.25093071967E+03  0.51100000000E-03 0. -1.
         22    1    1    2    0    0 -0.95761364496E+01  0.12397618729E+02  0.31496660405E+02  0.35177307403E+02  0.00000000000E+00 0. -1.
          2    1    1    2  501    0 -0.15119462838E+03  0.95143773035E+02  0.75082568787E+03  0.77178453390E+03  0.25500000000E-02 0. -1.
<mgrwt>
<rscale>  0 0.19788673E+03</rscale>
<asrwt>0</asrwt>
<pdfrwt beam="1">  1       11 0.10000000E+01 0.19342292E+03</pdfrwt>
<pdfrwt beam="2">  1        2 0.89014323E-02 0.19788673E+03</pdfrwt>
<totfact> 0.89757227E+02</totfact>
</mgrwt>
</event>
<event>
 5    1  0.1851087E-003  0.4367313E+03  0.7818608E-02  0.1031754E+00
         11   -1    0    0    0    0  0.00000000000E+00  0.00000000000E+00  0.10001022010E+04  0.10001022010E+04  0.51100000000E-03 0.  1.
          2   -1    0    0  501    0 -0.00000000000E+00 -0.00000000000E+00 -0.21974871263E+03  0.21974871264E+03  0.25500000000E-02 0.  1.
         11    1    1    2    0    0 -0.33689356971E+03 -0.25973833159E+03  0.62556492177E+03  0.75650033018E+03  0.51100000000E-03 0.  1.
         22    1    1    2    0    0  0.15887173098E+03  0.11127359549E+03  0.19468900627E+02  0.19493865202E+03  0.00000000000E+00 0.  1.
          2    1    1    2  501    0  0.17802183873E+03  0.14846473610E+03  0.13531966594E+03  0.26841193142E+03  0.25500000000E-02 0.  1.
<mgrwt>
<rscale>  0 0.43673134E+03</rscale>
<asrwt>0</asrwt>
<pdfrwt beam="1">  1       11 0.10000000E+01 0.42539544E+03</pdfrwt>
<pdfrwt beam="2">  1        2 0.33810948E-01 0.43673134E+03</pdfrwt>
<totfact> 0.19120902E+02</totfact>
</mgrwt>
</event>
<event>
 5    1  0.1851087E-003  0.1292836E+03  0.7818608E-02  0.1275678E+00
         11   -1    0    0    0    0  0.00000000000E+00  0.00000000000E+00  0.10002363150E+04  0.10002363150E+04  0.51100000000E-03 0. -1.
          2   -1    0    0  501    0 -0.00000000000E+00 -0.00000000000E+00 -0.37208291899E+02  0.37208291986E+02  0.25500000000E-02 0. -1.
         11    1    1    2    0    0 -0.13882567659E+03 -0.63112959881E+02  0.72668707296E+03  0.74251593666E+03  0.51100000000E-03 0. -1.
         22    1    1    2    0    0  0.80042066643E+02 -0.11299271625E+02  0.95209607779E+02  0.12489705915E+03  0.00000000000E+00 0. -1.
          2    1    1    2  501    0  0.58783609951E+02  0.74412231506E+02  0.14113134240E+03  0.17003161121E+03  0.25500000000E-02 0. -1.
<mgrwt>
<rscale>  0 0.10222880E+03</rscale>
<asrwt>0</asrwt>
<pdfrwt beam="1">  1       11 0.10000000E+01 0.12928361E+03</pdfrwt>
<pdfrwt beam="2">  1        2 0.57257052E-02 0.10222880E+03</pdfrwt>
<totfact> 0.15023054E+03</totfact>
</mgrwt>
</event>
<event>
 5    1  0.1851087E-003  0.2525469E+03  0.7818608E-02  0.1111706E+00
         11   -1    0    0    0    0  0.00000000000E+00  0.00000000000E+00  0.99999109576E+03  0.99999109576E+03  0.51100000000E-03 0. -1.
         -2   -1    0    0    0  501 -0.00000000000E+00 -0.00000000000E+00 -0.41004774800E+03  0.41004774801E+03  0.25500000000E-02 0.  1.
         11    1    1    2    0    0  0.78919295413E+02  0.20906360394E+03  0.94682518561E+03  0.97283800182E+03  0.51100000000E-03 0. -1.
         22    1    1    2    0    0 -0.88947113115E+02 -0.93389221285E+02 -0.13455696415E+03  0.18638324009E+03  0.00000000000E+00 0.  1.
         -2    1    1    2    0  501  0.10027817702E+02 -0.11567438265E+03 -0.22232487370E+03  0.25081760186E+03  0.25500000000E-02 0.  1.
<mgrwt>
<rscale>  0 0.25254689E+03</rscale>
<asrwt>0</asrwt>
<pdfrwt beam="1">  1       11 0.10000000E+01 0.22346330E+03</pdfrwt>
<pdfrwt beam="2">  1       -2 0.63083705E-01 0.25254689E+03</pdfrwt>
<totfact> 0.19325733E+01</totfact>
</mgrwt>
</event>
<event>
 5    1  0.1851087E-003  0.2269490E+03  0.7818608E-02  0.1128806E+00
         11   -1    0    0    0    0  0.00000000000E+00  0.00000000000E+00  0.10005229759E+04  0.10005229759E+04  0.51100000000E-03 0. -1.
         -2   -1    0    0    0  501 -0.00000000000E+00 -0.00000000000E+00 -0.32037942377E+03  0.32037942378E+03  0.25500000000E-02 0.  1.
         11    1    1    2    0    0  0.20482084218E+03  0.91479877416E+02  0.94549195106E+03  0.97173822344E+03  0.51100000000E-03 0. -1.
         22    1    1    2    0    0 -0.20571790172E+02 -0.53689619134E+01 -0.12467497723E+02  0.24646760484E+02  0.00000000000E+00 0.  1.
         -2    1    1    2    0  501 -0.18424905201E+03 -0.86110915502E+02 -0.25288090121E+03  0.32451741577E+03  0.25500000000E-02 0.  1.
<mgrwt>
<rscale>  0 0.22694900E+03</rscale>
<asrwt>0</asrwt>
<pdfrwt beam="1">  1       11 0.10000000E+01 0.22432152E+03</pdfrwt>
<pdfrwt beam="2">  1       -2 0.49314918E-01 0.22694900E+03</pdfrwt>
<totfact> 0.31997200E+01</totfact>
</mgrwt>
</event>
<event>
 5    1  0.1851087E-003  0.1151935E+03  0.7818608E-02  0.1343014E+00
         11   -1    0    0    0    0  0.00000000000E+00  0.00000000000E+00  0.10003933568E+04  0.10003933568E+04  0.51100000000E-03 0. -1.
          2   -1    0    0  501    0 -0.00000000000E+00 -0.00000000000E+00 -0.25541427064E+02  0.25541427191E+02  0.25500000000E-02 0. -1.
         11    1    1    2    0    0  0.31026422388E+02 -0.12074721355E+03  0.40030383735E+03  0.41926804155E+03  0.51100000000E-03 0. -1.
         22    1    1    2    0    0  0.43272436465E+02  0.10864860285E+03  0.30010910865E+03  0.32209082532E+03  0.00000000000E+00 0. -1.
          2    1    1    2  501    0 -0.74298858853E+02  0.12098610701E+02  0.27443898373E+03  0.28457591712E+03  0.25500000000E-02 0. -1.
<mgrwt>
<rscale>  0 0.75277466E+02</rscale>
<asrwt>0</asrwt>
<pdfrwt beam="1">  1       11 0.10000000E+01 0.11519352E+03</pdfrwt>
<pdfrwt beam="2">  1        2 0.39309959E-02 0.75277466E+02</pdfrwt>
<totfact> 0.23732499E+03</totfact>
</mgrwt>
</event>
<event>
 5    1  0.1851087E-003  0.1515997E+03  0.7818608E-02  0.1500894E+00
         11   -1    0    0    0    0  0.00000000000E+00  0.00000000000E+00  0.10003990386E+04  0.10003990386E+04  0.51100000000E-03 0. -1.
          2   -1    0    0  501    0 -0.00000000000E+00 -0.00000000000E+00 -0.23423240328E+03  0.23423240330E+03  0.25500000000E-02 0.  1.
         11    1    1    2    0    0 -0.43539041873E+02 -0.14633526439E+03  0.88897341388E+03  0.90198857441E+03  0.51100000000E-03 0. -1.
         22    1    1    2    0    0  0.47603386173E+02  0.10552518566E+03 -0.20802621502E+03  0.23806837950E+03  0.00000000000E+00 0.  1.
          2    1    1    2  501    0 -0.40643442997E+01  0.40810078736E+02  0.85219436416E+02  0.94574487947E+02  0.25500000000E-02 0.  1.
<mgrwt>
<rscale>  0 0.41011967E+02</rscale>
<asrwt>0</asrwt>
<pdfrwt beam="1">  1       11 0.10000000E+01 0.15159971E+03</pdfrwt>
<pdfrwt beam="2">  1        2 0.36050133E-01 0.41011967E+02</pdfrwt>
<totfact> 0.17230976E+02</totfact>
</mgrwt>
</event>
<event>
 5    1  0.1851087E-003  0.1620402E+03  0.7818608E-02  0.1433992E+00
         11   -1    0    0    0    0  0.00000000000E+00  0.00000000000E+00  0.10002660198E+04  0.10002660198E+04  0.51100000000E-03 0. -1.
          2   -1    0    0  501    0 -0.00000000000E+00 -0.00000000000E+00 -0.23846969120E+03  0.23846969121E+03  0.25500000000E-02 0. -1.
         11    1    1    2    0    0  0.15734510241E+03  0.37783495628E+02  0.94845645493E+03  0.96216148369E+03  0.51100000000E-03 0. -1.
         22    1    1    2    0    0  0.15273468291E+01  0.16724936194E+02 -0.70212192282E+02  0.72192854384E+02  0.00000000000E+00 0. -1.
          2    1    1    2  501    0 -0.15887244924E+03 -0.54508431822E+02 -0.11644793403E+03  0.20438137296E+03  0.25500000000E-02 0. -1.
<mgrwt>
<rscale>  0 0.52166930E+02</rscale>
<asrwt>0</asrwt>
<pdfrwt beam="1">  1       11 0.10000000E+01 0.16204016E+03</pdfrwt>
<pdfrwt beam="2">  1        2 0.36697403E-01 0.52166930E+02</pdfrwt>
<totfact> 0.17010605E+02</totfact>
</mgrwt>
</event>
<event>
 5    1  0.1851087E-003  0.1205914E+03  0.7818608E-02  0.1511495E+00
         11   -1    0    0    0    0  0.00000000000E+00  0.00000000000E+00  0.10004414227E+04  0.10004414227E+04  0.51100000000E-03 0. -1.
          2   -1    0    0  501    0 -0.00000000000E+00 -0.00000000000E+00 -0.17793824512E+02  0.17793824695E+02  0.25500000000E-02 0.  1.
         11    1    1    2    0    0 -0.22571410448E+02 -0.12042874033E+03  0.56132409067E+03  0.57454093399E+03  0.51100000000E-03 0. -1.
         22    1    1    2    0    0 -0.11042543870E+02  0.68143181405E+01  0.12385610547E+02  0.17938117389E+02  0.00000000000E+00 0.  1.
          2    1    1    2  501    0  0.33613954318E+02  0.11361442219E+03  0.40893789694E+03  0.42575619598E+03  0.25500000000E-02 0.  1.
<mgrwt>
<rscale>  0 0.39557242E+02</rscale>
<asrwt>0</asrwt>
<pdfrwt beam="1">  1       11 0.10000000E+01 0.12059135E+03</pdfrwt>
<pdfrwt beam="2">  1        2 0.27387198E-02 0.39557242E+02</pdfrwt>
<totfact> 0.35035864E+03</totfact>
</mgrwt>
</event>
<event>
 5    1  0.1851087E-003  0.3317964E+02  0.7818608E-02  0.1615776E+00
         11   -1    0    0    0    0  0.00000000000E+00  0.00000000000E+00  0.10001541351E+04  0.10001541351E+04  0.51100000000E-03 0. -1.
          2   -1    0    0  501    0 -0.00000000000E+00 -0.00000000000E+00 -0.35241741467E+01  0.35241750693E+01  0.25500000000E-02 0. -1.
         11    1    1    2    0    0  0.43610238884E+02  0.13384308625E+02  0.26923831816E+03  0.27307556576E+03  0.51100000000E-03 0. -1.
         22    1    1    2    0    0 -0.22312255423E+02  0.98996734780E+01  0.12361235474E+03  0.12599942270E+03  0.00000000000E+00 0. -1.
          2    1    1    2  501    0 -0.21297983461E+02 -0.23283982103E+02  0.60377928810E+03  0.60460332175E+03  0.25500000000E-02 0. -1.
<mgrwt>
<rscale>  0 0.28458905E+02</rscale>
<asrwt>0</asrwt>
<pdfrwt beam="1">  1       11 0.10000000E+01 0.33179640E+02</pdfrwt>
<pdfrwt beam="2">  1        2 0.54226426E-03 0.28458905E+02</pdfrwt>
<totfact> 0.27662401E+04</totfact>
</mgrwt>
</event>
<event>
 5    1  0.1851087E-003  0.1585637E+03  0.7818608E-02  0.1190328E+00
         11   -1    0    0    0    0  0.00000000000E+00  0.00000000000E+00  0.10002345141E+04  0.10002345141E+04  0.51100000000E-03 0. -1.
         -2   -1    0    0    0  501 -0.00000000000E+00 -0.00000000000E+00 -0.60882883041E+02  0.60882883095E+02  0.25500000000E-02 0.  1.
         11    1    1    2    0    0  0.50134817066E+01  0.15319401398E+03  0.87771098687E+03  0.89099389302E+03  0.51100000000E-03 0. -1.
         22    1    1    2    0    0  0.16660879889E+02 -0.54243151421E+02  0.15566528009E+02  0.58840642324E+02  0.00000000000E+00 0.  1.
         -2    1    1    2    0  501 -0.21674361596E+02 -0.98950862556E+02  0.46074116153E+02  0.11128286183E+03  0.25500000000E-02 0.  1.
<mgrwt>
<rscale>  0 0.15856367E+03</rscale>
<asrwt>0</asrwt>
<pdfrwt beam="1">  1       11 0.10000000E+01 0.15327603E+03</pdfrwt>
<pdfrwt beam="2">  1       -2 0.93687937E-02 0.15856367E+03</pdfrwt>
<totfact> 0.57083729E+02</totfact>
</mgrwt>
</event>
<event>
 5    1  0.1851087E-003  0.4449722E+02  0.7818608E-02  0.1576002E+00
         11   -1    0    0    0    0  0.00000000000E+00  0.00000000000E+00  0.10001799089E+04  0.10001799089E+04  0.51100000000E-03 0. -1.
          2   -1    0    0  501    0 -0.00000000000E+00 -0.00000000000E+00 -0.96473333314E+01  0.96473336684E+01  0.25500000000E-02 0. -1.
         11    1    1    2    0    0 -0.47436807174E+02 -0.13309137722E+02  0.22952199785E+03  0.23475035957E+03  0.51100000000E-03 0. -1.
         22    1    1    2    0    0  0.22102862325E+02  0.33017327272E+02  0.52502697901E+02  0.65842339797E+02  0.00000000000E+00 0. -1.
          2    1    1    2  501    0  0.25333944849E+02 -0.19708189550E+02  0.70850787982E+03  0.70923454320E+03  0.25500000000E-02 0. -1.
<mgrwt>
<rscale>  0 0.32097064E+02</rscale>
<asrwt>0</asrwt>
<pdfrwt beam="1">  1       11 0.10000000E+01 0.44497222E+02</pdfrwt>
<pdfrwt beam="2">  1        2 0.14844721E-02 0.32097064E+02</pdfrwt>
<totfact> 0.75222439E+03</totfact>
</mgrwt>
</event>
<event>
 5    1  0.1851087E-003  0.1095902E+03  0.7818608E-02  0.1261331E+00
         11   -1    0    0    0    0  0.00000000000E+00  0.00000000000E+00  0.10001354084E+04  0.10001354084E+04  0.51100000000E-03 0. -1.
          2   -1    0    0  501    0 -0.00000000000E+00 -0.00000000000E+00 -0.20521085073E+02  0.20521085232E+02  0.25500000000E-02 0. -1.
         11    1    1    2    0    0  0.10443475153E+03 -0.26150701252E+02  0.15458189539E+03  0.18837738422E+03  0.51100000000E-03 0. -1.
         22    1    1    2    0    0 -0.12560544640E+02 -0.26215795619E+00  0.60298704618E+02  0.61593585600E+02  0.00000000000E+00 0. -1.
          2    1    1    2  501    0 -0.91874206891E+02  0.26412859208E+02  0.76473372329E+03  0.77068552379E+03  0.25500000000E-02 0. -1.
<mgrwt>
<rscale>  0 0.10959019E+03</rscale>
<asrwt>0</asrwt>
<pdfrwt beam="1">  1       11 0.10000000E+01 0.10765913E+03</pdfrwt>
<pdfrwt beam="2">  1        2 0.31575174E-02 0.10959019E+03</pdfrwt>
<totfact> 0.32954020E+03</totfact>
</mgrwt>
</event>
<event>
 5    1  0.1851087E-003  0.1929420E+03  0.7818608E-02  0.1266915E+00
         11   -1    0    0    0    0  0.00000000000E+00  0.00000000000E+00  0.99991970432E+03  0.99991970432E+03  0.51100000000E-03 0. -1.
          2   -1    0    0  501    0 -0.00000000000E+00 -0.00000000000E+00 -0.74781967092E+03  0.74781967093E+03  0.25500000000E-02 0.  1.
         11    1    1    2    0    0 -0.19228963107E+03 -0.33455330071E+02  0.97224113781E+03  0.99163874035E+03  0.51100000000E-03 0. -1.
         22    1    1    2    0    0  0.11612304988E+03 -0.41186644752E+02 -0.35991588253E+03  0.38042127295E+03  0.00000000000E+00 0.  1.
          2    1    1    2  501    0  0.76166581193E+02  0.74641974823E+02 -0.36022522188E+03  0.37567936194E+03  0.25500000000E-02 0.  1.
<mgrwt>
<rscale>  0 0.10664320E+03</rscale>
<asrwt>0</asrwt>
<pdfrwt beam="1">  1       11 0.10000000E+01 0.19294198E+03</pdfrwt>
<pdfrwt beam="2">  1        2 0.11503994E+00 0.10664320E+03</pdfrwt>
<totfact> 0.49786606E+01</totfact>
</mgrwt>
</event>
<event>
 5    1  0.1851087E-003  0.9803408E+02  0.7818608E-02  0.1284485E+00
         11   -1    0    0    0    0  0.00000000000E+00  0.00000000000E+00  0.10004072214E+04  0.10004072214E+04  0.51100000000E-03 0.  1.
          2   -1    0    0  501    0 -0.00000000000E+00 -0.00000000000E+00 -0.96538593892E+01  0.96538597260E+01  0.25500000000E-02 0.  1.
         11    1    1    2    0    0 -0.32631553046E+02 -0.88110009103E+02  0.37726263603E+03  0.38878694487E+03  0.51100000000E-03 0.  1.
         22    1    1    2    0    0  0.25675216619E+02  0.47517227544E+02  0.27213208614E+03  0.27744004032E+03  0.00000000000E+00 0.  1.
          2    1    1    2  501    0  0.69563364274E+01  0.40592781559E+02  0.34135863981E+03  0.34383409591E+03  0.25500000000E-02 0.  1.
<mgrwt>
<rscale>  0 0.98034083E+02</rscale>
<asrwt>0</asrwt>
<pdfrwt beam="1">  1       11 0.10000000E+01 0.93958506E+02</pdfrwt>
<pdfrwt beam="2">  1        2 0.14858139E-02 0.98034083E+02</pdfrwt>
<totfact> 0.89896296E+03</totfact>
</mgrwt>
</event>
<event>
 5    1  0.1851087E-003  0.1767140E+03  0.7818608E-02  0.1171022E+00
         11   -1    0    0    0    0  0.00000000000E+00  0.00000000000E+00  0.10004726879E+04  0.10004726879E+04  0.51100000000E-03 0. -1.
          2   -1    0    0  501    0 -0.00000000000E+00 -0.00000000000E+00 -0.81381433357E+03  0.81381433358E+03  0.25500000000E-02 0. -1.
         11    1    1    2    0    0 -0.11196194051E+03 -0.13163185496E+03  0.98325498885E+03  0.99832499440E+03  0.51100000000E-03 0. -1.
         22    1    1    2    0    0  0.73140169036E+02  0.10265000641E+03 -0.51299682211E+03  0.52825396130E+03  0.00000000000E+00 0. -1.
          2    1    1    2  501    0  0.38821771476E+02  0.28981848553E+02 -0.28359981242E+03  0.28770806575E+03  0.25500000000E-02 0. -1.
<mgrwt>
<rscale>  0 0.17671398E+03</rscale>
<asrwt>0</asrwt>
<pdfrwt beam="1">  1       11 0.10000000E+01 0.17280747E+03</pdfrwt>
<pdfrwt beam="2">  1        2 0.12526138E+00 0.17671398E+03</pdfrwt>
<totfact> 0.44028234E+01</totfact>
</mgrwt>
</event>
<event>
 5    1  0.1851087E-003  0.2659137E+03  0.7818608E-02  0.1103641E+00
         11   -1    0    0    0    0  0.00000000000E+00  0.00000000000E+00  0.99986382478E+03  0.99986382478E+03  0.51100000000E-03 0. -1.
          2   -1    0    0  501    0 -0.00000000000E+00 -0.00000000000E+00 -0.69285875532E+02  0.69285875579E+02  0.25500000000E-02 0. -1.
         11    1    1    2    0    0  0.16965862529E+03  0.19718339470E+03  0.44016541056E+03  0.51128360909E+03  0.51100000000E-03 0. -1.
         22    1    1    2    0    0 -0.14666988615E+02 -0.48502812169E+02  0.81149127190E+02  0.95670393472E+02  0.00000000000E+00 0. -1.
          2    1    1    2  501    0 -0.15499163667E+03 -0.14868058253E+03  0.40926341150E+03  0.46219569780E+03  0.25500000000E-02 0. -1.
<mgrwt>
<rscale>  0 0.26591374E+03</rscale>
<asrwt>0</asrwt>
<pdfrwt beam="1">  1       11 0.10000000E+01 0.26012575E+03</pdfrwt>
<pdfrwt beam="2">  1        2 0.10657914E-01 0.26591374E+03</pdfrwt>
<totfact> 0.72759956E+02</totfact>
</mgrwt>
</event>
<event>
 5    1  0.1851087E-003  0.6615233E+03  0.7818608E-02  0.9785394E-01
         11   -1    0    0    0    0  0.00000000000E+00  0.00000000000E+00  0.99982980858E+03  0.99982980858E+03  0.51100000000E-03 0. -1.
          2   -1    0    0  501    0 -0.00000000000E+00 -0.00000000000E+00 -0.43657860233E+03  0.43657860234E+03  0.25500000000E-02 0. -1.
         11    1    1    2    0    0 -0.35536712096E+03 -0.55492469562E+03  0.25476972824E+03  0.70649474371E+03  0.51100000000E-03 0. -1.
         22    1    1    2    0    0  0.45880987257E+01  0.18822671860E+02  0.13130147998E+01  0.19418229418E+02  0.00000000000E+00 0. -1.
          2    1    1    2  501    0  0.35077902224E+03  0.53610202376E+03  0.30716846321E+03  0.71049543779E+03  0.25500000000E-02 0. -1.
<mgrwt>
<rscale>  0 0.66152335E+03</rscale>
<asrwt>0</asrwt>
<pdfrwt beam="1">  1       11 0.10000000E+01 0.65895952E+03</pdfrwt>
<pdfrwt beam="2">  1        2 0.67154506E-01 0.66152335E+03</pdfrwt>
<totfact> 0.89239783E+01</totfact>
</mgrwt>
</event>
<event>
 5    1  0.1851087E-003  0.3766249E+03  0.7818608E-02  0.1052188E+00
         11   -1    0    0    0    0  0.00000000000E+00  0.00000000000E+00  0.10004403975E+04  0.10004403975E+04  0.51100000000E-03 0. -1.
          2   -1    0    0  501    0 -0.00000000000E+00 -0.00000000000E+00 -0.14469889010E+04  0.14469889010E+04  0.25500000000E-02 0. -1.
         11    1    1    2    0    0 -0.15635326540E+03 -0.32635106178E+03  0.94178607905E+03  0.10089164375E+04  0.51100000000E-03 0. -1.
         22    1    1    2    0    0  0.16787470567E+03  0.28812571990E+03 -0.11715953864E+04  0.12181272908E+04  0.00000000000E+00 0. -1.
          2    1    1    2  501    0 -0.11521440269E+02  0.38225341881E+02 -0.21673919626E+03  0.22038557019E+03  0.25500000000E-02 0. -1.
<mgrwt>
<rscale>  0 0.37662493E+03</rscale>
<asrwt>0</asrwt>
<pdfrwt beam="1">  1       11 0.10000000E+01 0.36187202E+03</pdfrwt>
<pdfrwt beam="2">  1        2 0.22271171E+00 0.37662493E+03</pdfrwt>
<totfact> 0.17837027E+01</totfact>
</mgrwt>
</event>
<event>
 5    1  0.1851087E-003  0.1204781E+03  0.7818608E-02  0.1242310E+00
         11   -1    0    0    0    0  0.00000000000E+00  0.00000000000E+00  0.10001546303E+04  0.10001546303E+04  0.51100000000E-03 0. -1.
          2   -1    0    0  501    0 -0.00000000000E+00 -0.00000000000E+00 -0.13938382459E+02  0.13938382693E+02  0.25500000000E-02 0. -1.
         11    1    1    2    0    0 -0.11375787803E+03 -0.20073349520E+02  0.50061651443E+03  0.51377104696E+03  0.51100000000E-03 0. -1.
         22    1    1    2    0    0  0.75815060291E+02  0.45646623705E+00  0.26535681231E+03  0.27597530608E+03  0.00000000000E+00 0. -1.
          2    1    1    2  501    0  0.37942817743E+02  0.19616883283E+02  0.22024292106E+03  0.22434665991E+03  0.25500000000E-02 0. -1.
<mgrwt>
<rscale>  0 0.12047808E+03</rscale>
<asrwt>0</asrwt>
<pdfrwt beam="1">  1       11 0.10000000E+01 0.11551534E+03</pdfrwt>
<pdfrwt beam="2">  1        2 0.21446981E-02 0.12047808E+03</pdfrwt>
<totfact> 0.56035045E+03</totfact>
</mgrwt>
</event>
<event>
 5    1  0.1851087E-003  0.7498423E+02  0.7818608E-02  0.1648161E+00
         11   -1    0    0    0    0  0.00000000000E+00  0.00000000000E+00  0.10001251192E+04  0.10001251192E+04  0.51100000000E-03 0. -1.
          2   -1    0    0  501    0 -0.00000000000E+00 -0.00000000000E+00 -0.92555516886E+01  0.92555520399E+01  0.25500000000E-02 0. -1.
         11    1    1    2    0    0  0.81739425409E+02 -0.34642770269E+02  0.35443653986E+03  0.36538570852E+03  0.51100000000E-03 0. -1.
         22    1    1    2    0    0 -0.55998787801E+02  0.37666479636E+02  0.35403114623E+03  0.36040627135E+03  0.00000000000E+00 0. -1.
          2    1    1    2  501    0 -0.25740637608E+02 -0.30237093673E+01  0.28240188139E+03  0.28358869135E+03  0.25500000000E-02 0. -1.
<mgrwt>
<rscale>  0 0.25917624E+02</rscale>
<asrwt>0</asrwt>
<pdfrwt beam="1">  1       11 0.10000000E+01 0.74984229E+02</pdfrwt>
<pdfrwt beam="2">  1        2 0.14241092E-02 0.25917624E+02</pdfrwt>
<totfact> 0.76221381E+03</totfact>
</mgrwt>
</event>
<event>
 5    1  0.1851087E-003  0.1368764E+03  0.7818608E-02  0.1217595E+00
         11   -1    0    0    0    0  0.00000000000E+00  0.00000000000E+00  0.10001256180E+04  0.10001256180E+04  0.51100000000E-03 0.  1.
          2   -1    0    0  501    0 -0.00000000000E+00 -0.00000000000E+00 -0.46003674275E+02  0.46003674346E+02  0.25500000000E-02 0.  1.
         11    1    1    2    0    0  0.13856478698E+03 -0.91807734710E+02  0.58340293490E+03  0.60662001681E+03  0.51100000000E-03 0.  1.
         22    1    1    2    0    0 -0.80372576340E+01  0.70028196096E+02  0.25218930904E+03  0.26185490897E+03  0.00000000000E+00 0.  1.
          2    1    1    2  501    0 -0.13052752935E+03  0.21779538615E+02  0.11852969977E+03  0.17765436655E+03  0.25500000000E-02 0.  1.
<mgrwt>
<rscale>  0 0.13687643E+03</rscale>
<asrwt>0</asrwt>
<pdfrwt beam="1">  1       11 0.10000000E+01 0.70487912E+02</pdfrwt>
<pdfrwt beam="2">  1        2 0.70783772E-02 0.13687643E+03</pdfrwt>
<totfact> 0.11717931E+03</totfact>
</mgrwt>
</event>
<event>
 5    1  0.1851087E-003  0.1160128E+03  0.7818608E-02  0.1476842E+00
         11   -1    0    0    0    0  0.00000000000E+00  0.00000000000E+00  0.10003666248E+04  0.10003666248E+04  0.51100000000E-03 0. -1.
          2   -1    0    0  501    0 -0.00000000000E+00 -0.00000000000E+00 -0.30615702727E+02  0.30615702833E+02  0.25500000000E-02 0. -1.
         11    1    1    2    0    0 -0.44399900126E+02 -0.96819723875E+02  0.45466725287E+03  0.46697721668E+03  0.51100000000E-03 0. -1.
         22    1    1    2    0    0  0.61769393096E+02  0.13790049372E+03  0.22830934606E+03  0.27378305570E+03  0.00000000000E+00 0. -1.
          2    1    1    2  501    0 -0.17369492970E+02 -0.41080769841E+02  0.28677432316E+03  0.29022205527E+03  0.25500000000E-02 0. -1.
<mgrwt>
<rscale>  0 0.44601894E+02</rscale>
<asrwt>0</asrwt>
<pdfrwt beam="1">  1       11 0.10000000E+01 0.11601276E+03</pdfrwt>
<pdfrwt beam="2">  1        2 0.47118348E-02 0.44601894E+02</pdfrwt>
<totfact> 0.17763703E+03</totfact>
</mgrwt>
</event>
<event>
 5    1  0.1851087E-003  0.1145828E+03  0.7818608E-02  0.1252311E+00
         11   -1    0    0    0    0  0.00000000000E+00  0.00000000000E+00  0.10002124768E+04  0.10002124768E+04  0.51100000000E-03 0. -1.
          2   -1    0    0  501    0 -0.00000000000E+00 -0.00000000000E+00 -0.13315753038E+02  0.13315753282E+02  0.25500000000E-02 0. -1.
         11    1    1    2    0    0  0.10627476174E+03 -0.35504291863E+01  0.62326838078E+03  0.63227399520E+03  0.51100000000E-03 0. -1.
         22    1    1    2    0    0 -0.15340988796E+02 -0.15312563146E+02  0.72723357036E+02  0.75884828430E+02  0.00000000000E+00 0. -1.
          2    1    1    2  501    0 -0.90933772941E+02  0.18862992332E+02  0.29090498599E+03  0.30536940649E+03  0.25500000000E-02 0. -1.
<mgrwt>
<rscale>  0 0.11458281E+03</rscale>
<asrwt>0</asrwt>
<pdfrwt beam="1">  1       11 0.10000000E+01 0.10633405E+03</pdfrwt>
<pdfrwt beam="2">  1        2 0.20490126E-02 0.11458281E+03</pdfrwt>
<totfact> 0.59259266E+03</totfact>
</mgrwt>
</event>
<event>
 5    1  0.1851087E-003  0.1820877E+03  0.7818608E-02  0.1165798E+00
         11   -1    0    0    0    0  0.00000000000E+00  0.00000000000E+00  0.10003080791E+04  0.10003080791E+04  0.51100000000E-03 0. -1.
         -2   -1    0    0    0  501 -0.00000000000E+00 -0.00000000000E+00 -0.36102108796E+02  0.36102108886E+02  0.25500000000E-02 0. -1.
         11    1    1    2    0    0 -0.12092534551E+03  0.12966483773E+03  0.64495480159E+03  0.66888160793E+03  0.51100000000E-03 0. -1.
         22    1    1    2    0    0  0.31907123522E+02 -0.14078986321E+02  0.45496605283E+02  0.57325591837E+02  0.00000000000E+00 0.  1.
         -2    1    1    2    0  501  0.89018221988E+02 -0.11558585141E+03  0.27375456340E+03  0.31020298819E+03  0.25500000000E-02 0. -1.
<mgrwt>
<rscale>  0 0.18208775E+03</rscale>
<asrwt>0</asrwt>
<pdfrwt beam="1">  1       11 0.10000000E+01 0.17730175E+03</pdfrwt>
<pdfrwt beam="2">  1       -2 0.55558816E-02 0.18208775E+03</pdfrwt>
<totfact> 0.12905022E+03</totfact>
</mgrwt>
</event>
<event>
 5    1  0.1851087E-003  0.1778964E+03  0.7818608E-02  0.1388283E+00
         11   -1    0    0    0    0  0.00000000000E+00  0.00000000000E+00  0.10000503601E+04  0.10000503601E+04  0.51100000000E-03 0.  1.
         -2   -1    0    0    0  501 -0.00000000000E+00 -0.00000000000E+00 -0.13998035570E+03  0.13998035572E+03  0.25500000000E-02 0. -1.
         11    1    1    2    0    0  0.66483776849E+01 -0.17831877471E+03  0.84316054604E+03  0.86183611711E+03  0.51100000000E-03 0.  1.
         22    1    1    2    0    0 -0.68474646466E+02  0.17036582844E+03  0.69812560117E+02  0.19643595969E+03  0.00000000000E+00 0. -1.
         -2    1    1    2    0  501  0.61826268781E+02  0.79529462711E+01 -0.52903101784E+02  0.81758638997E+02  0.25500000000E-02 0. -1.
<mgrwt>
<rscale>  0 0.62335679E+02</rscale>
<asrwt>0</asrwt>
<pdfrwt beam="1">  1       11 0.10000000E+01 0.17789637E+03</pdfrwt>
<pdfrwt beam="2">  1       -2 0.21536523E-01 0.62335679E+02</pdfrwt>
<totfact> 0.14174180E+02</totfact>
</mgrwt>
</event>
<event>
 5    1  0.1987744E-003  0.3840590E+03  0.7818608E-02  0.1049444E+00
         11   -1    0    0    0    0  0.00000000000E+00  0.00000000000E+00  0.10003278780E+04  0.10003278780E+04  0.51100000000E-03 0.  1.
          2   -1    0    0  501    0 -0.00000000000E+00 -0.00000000000E+00 -0.90768918749E+03  0.90768918750E+03  0.25500000000E-02 0.  1.
         11    1    1    2    0    0 -0.49294419536E+02  0.37808132648E+03  0.91999023000E+03  0.99587019863E+03  0.51100000000E-03 0.  1.
         22    1    1    2    0    0  0.13229625921E+02 -0.25075656220E+02 -0.78901799421E+02  0.83840953529E+02  0.00000000000E+00 0. -1.
          2    1    1    2  501    0  0.36064793615E+02 -0.35300567026E+03 -0.74844974009E+03  0.82830591331E+03  0.25500000000E-02 0.  1.
<mgrwt>
<rscale>  0 0.38405903E+03</rscale>
<asrwt>0</asrwt>
<pdfrwt beam="1">  1       11 0.10000000E+01 0.38128130E+03</pdfrwt>
<pdfrwt beam="2">  1        2 0.13969027E+00 0.38405903E+03</pdfrwt>
<totfact> 0.36984123E+01</totfact>
</mgrwt>
</event>
<event>
 5    1  0.1851087E-003  0.1217054E+03  0.7818608E-02  0.1397620E+00
         11   -1    0    0    0    0  0.00000000000E+00  0.00000000000E+00  0.99991349742E+03  0.99991349742E+03  0.51100000000E-03 0. -1.
          2   -1    0    0  501    0 -0.00000000000E+00 -0.00000000000E+00 -0.11238005529E+03  0.11238005532E+03  0.25500000000E-02 0. -1.
         11    1    1    2    0    0  0.10630865624E+03 -0.54862442043E+02  0.42624030539E+03  0.44271008107E+03  0.51100000000E-03 0. -1.
         22    1    1    2    0    0 -0.15489196297E+03  0.19567663516E+02 -0.42833956863E+02  0.16189243808E+03  0.00000000000E+00 0. -1.
          2    1    1    2  501    0  0.48583306725E+02  0.35294778527E+02  0.50412709360E+03  0.50769103360E+03  0.25500000000E-02 0. -1.
<mgrwt>
<rscale>  0 0.60050471E+02</rscale>
<asrwt>0</asrwt>
<pdfrwt beam="1">  1       11 0.10000000E+01 0.12170536E+03</pdfrwt>
<pdfrwt beam="2">  1        2 0.17287743E-01 0.60050471E+02</pdfrwt>
<totfact> 0.38309428E+02</totfact>
</mgrwt>
</event>
<event>
 5    1  0.1851087E-003  0.1687740E+03  0.7818608E-02  0.1179132E+00
         11   -1    0    0    0    0  0.00000000000E+00  0.00000000000E+00  0.10000600090E+04  0.10000600090E+04  0.51100000000E-03 0. -1.
          2   -1    0    0  501    0 -0.00000000000E+00 -0.00000000000E+00 -0.28257269826E+02  0.28257269941E+02  0.25500000000E-02 0.  1.
         11    1    1    2    0    0 -0.96849902519E+02  0.12969532430E+03  0.56924613628E+03  0.59181242335E+03  0.51100000000E-03 0. -1.
         22    1    1    2    0    0  0.16890813335E+02 -0.56070937232E+02  0.16995445610E+03  0.17976030353E+03  0.00000000000E+00 0. -1.
          2    1    1    2  501    0  0.79959089184E+02 -0.73624387069E+02  0.23260214684E+03  0.25674455210E+03  0.25500000000E-02 0.  1.
<mgrwt>
<rscale>  0 0.16877402E+03</rscale>
<asrwt>0</asrwt>
<pdfrwt beam="1">  1       11 0.10000000E+01 0.16186655E+03</pdfrwt>
<pdfrwt beam="2">  1        2 0.43475330E-02 0.16877402E+03</pdfrwt>
<totfact> 0.22427560E+03</totfact>
</mgrwt>
</event>
<event>
 5    1  0.1851087E-003  0.1487384E+03  0.7818608E-02  0.1202032E+00
         11   -1    0    0    0    0  0.00000000000E+00  0.00000000000E+00  0.10004223418E+04  0.10004223418E+04  0.51100000000E-03 0.  1.
          2   -1    0    0  501    0 -0.00000000000E+00 -0.00000000000E+00 -0.21738302619E+02  0.21738302769E+02  0.25500000000E-02 0.  1.
         11    1    1    2    0    0 -0.12398617448E+03  0.74840389473E+02  0.43351134399E+03  0.45706207536E+03  0.51100000000E-03 0.  1.
         22    1    1    2    0    0  0.15120495513E+02 -0.64903606830E+01  0.30942301790E+02  0.35045402072E+02  0.00000000000E+00 0.  1.
          2    1    1    2  501    0  0.10886567897E+03 -0.68350028790E+02  0.51423039336E+03  0.53005316710E+03  0.25500000000E-02 0.  1.
<mgrwt>
<rscale>  0 0.14873845E+03</rscale>
<asrwt>0</asrwt>
<pdfrwt beam="1">  1       11 0.10000000E+01 0.14482291E+03</pdfrwt>
<pdfrwt beam="2">  1        2 0.33457666E-02 0.14873845E+03</pdfrwt>
<totfact> 0.31446114E+03</totfact>
</mgrwt>
</event>
<event>
 5    1  0.1851087E-003  0.1110422E+03  0.7818608E-02  0.1479272E+00
         11   -1    0    0    0    0  0.00000000000E+00  0.00000000000E+00  0.10004434797E+04  0.10004434797E+04  0.51100000000E-03 0. -1.
          2   -1    0    0  501    0 -0.00000000000E+00 -0.00000000000E+00 -0.38183534649E+02  0.38183534735E+02  0.25500000000E-02 0. -1.
         11    1    1    2    0    0  0.10031121020E+03  0.76996456967E+02  0.91136256187E+02  0.15587370038E+03  0.51100000000E-03 0. -1.
         22    1    1    2    0    0 -0.16010454451E+02 -0.73319044076E+01  0.31930259862E+02  0.36464132635E+02  0.00000000000E+00 0.  1.
          2    1    1    2  501    0 -0.84300755752E+02 -0.69664552560E+02  0.83919342900E+03  0.84628918142E+03  0.25500000000E-02 0. -1.
<mgrwt>
<rscale>  0 0.44219753E+02</rscale>
<asrwt>0</asrwt>
<pdfrwt beam="1">  1       11 0.10000000E+01 0.11104217E+03</pdfrwt>
<pdfrwt beam="2">  1        2 0.58769950E-02 0.44219753E+02</pdfrwt>
<totfact> 0.13455331E+03</totfact>
</mgrwt>
</event>
<event>
 5    1  0.1851087E-003  0.1991060E+03  0.7818608E-02  0.1603473E+00
         11   -1    0    0    0    0  0.00000000000E+00  0.00000000000E+00  0.99977373298E+03  0.99977373298E+03  0.51100000000E-03 0. -1.
          2   -1    0    0  501    0 -0.00000000000E+00 -0.00000000000E+00 -0.69263376446E+02  0.69263376493E+02  0.25500000000E-02 0. -1.
         11    1    1    2    0    0  0.98299831994E+02 -0.16625554650E+03  0.69803906984E+03  0.72426673728E+03  0.51100000000E-03 0. -1.
         22    1    1    2    0    0 -0.11466569112E+03  0.19082180812E+03  0.18795188704E+03  0.29135389995E+03  0.00000000000E+00 0. -1.
          2    1    1    2  501    0  0.16365859121E+02 -0.24566261624E+02  0.44519399660E+02  0.53416472250E+02  0.25500000000E-02 0. -1.
<mgrwt>
<rscale>  0 0.29518512E+02</rscale>
<asrwt>0</asrwt>
<pdfrwt beam="1">  1       11 0.10000000E+01 0.19910598E+03</pdfrwt>
<pdfrwt beam="2">  1        2 0.10653493E-01 0.29518512E+02</pdfrwt>
<totfact> 0.63440066E+02</totfact>
</mgrwt>
</event>
<event>
 5    1  0.1851087E-003  0.1571274E+03  0.7818608E-02  0.1259669E+00
         11   -1    0    0    0    0  0.00000000000E+00  0.00000000000E+00  0.10004350609E+04  0.10004350609E+04  0.51100000000E-03 0. -1.
          2   -1    0    0  501    0 -0.00000000000E+00 -0.00000000000E+00 -0.17514148696E+03  0.17514148698E+03  0.25500000000E-02 0. -1.
         11    1    1    2    0    0 -0.10685816662E+03  0.14924962597E+03  0.76739978316E+03  0.78904787296E+03  0.51100000000E-03 0. -1.
         22    1    1    2    0    0  0.68981628738E+02 -0.35743148903E+02 -0.13719528515E+03  0.15766605235E+03  0.00000000000E+00 0. -1.
          2    1    1    2  501    0  0.37876537878E+02 -0.11350647706E+03  0.19508907598E+03  0.22886262262E+03  0.25500000000E-02 0. -1.
<mgrwt>
<rscale>  0 0.11048771E+03</rscale>
<asrwt>0</asrwt>
<pdfrwt beam="1">  1       11 0.10000000E+01 0.15712742E+03</pdfrwt>
<pdfrwt beam="2">  1        2 0.26956566E-01 0.11048771E+03</pdfrwt>
<totfact> 0.23989977E+02</totfact>
</mgrwt>
</event>
<event>
 5    1  0.1851087E-003  0.3696645E+03  0.7818608E-02  0.1054821E+00
         11   -1    0    0    0    0  0.00000000000E+00  0.00000000000E+00  0.10001709513E+04  0.10001709513E+04  0.51100000000E-03 0. -1.
          2   -1    0    0  501    0 -0.00000000000E+00 -0.00000000000E+00 -0.84895365056E+03  0.84895365056E+03  0.25500000000E-02 0. -1.
         11    1    1    2    0    0  0.26876902609E+03 -0.23979469569E+03  0.92441127607E+03  0.99210608948E+03  0.51100000000E-03 0. -1.
         22    1    1    2    0    0 -0.39260346131E+02  0.63676568965E+02 -0.22597304387E+03  0.23803339423E+03  0.00000000000E+00 0. -1.
          2    1    1    2  501    0 -0.22950867996E+03  0.17611812672E+03 -0.54722093142E+03  0.61898511818E+03  0.25500000000E-02 0. -1.
<mgrwt>
<rscale>  0 0.36966445E+03</rscale>
<asrwt>0</asrwt>
<pdfrwt beam="1">  1       11 0.10000000E+01 0.36019201E+03</pdfrwt>
<pdfrwt beam="2">  1        2 0.13063058E+00 0.36966445E+03</pdfrwt>
<totfact> 0.40540650E+01</totfact>
</mgrwt>
</event>
<event>
 5    1  0.1851087E-003  0.1243034E+03  0.7818608E-02  0.1236162E+00
         11   -1    0    0    0    0  0.00000000000E+00  0.00000000000E+00  0.10001003232E+04  0.10001003232E+04  0.51100000000E-03 0.  1.
          2   -1    0    0  501    0 -0.00000000000E+00 -0.00000000000E+00 -0.15504032498E+02  0.15504032707E+02  0.25500000000E-02 0.  1.
         11    1    1    2    0    0 -0.11623129297E+03  0.35673390513E+02  0.56758102762E+03  0.58045717083E+03  0.51100000000E-03 0.  1.
         22    1    1    2    0    0  0.14069368869E+02 -0.11748385487E+02  0.44249511313E+02  0.47895625619E+02  0.00000000000E+00 0.  1.
          2    1    1    2  501    0  0.10216192411E+03 -0.23925005025E+02  0.37276575176E+03  0.38725155945E+03  0.25500000000E-02 0.  1.
<mgrwt>
<rscale>  0 0.12430343E+03</rscale>
<asrwt>0</asrwt>
<pdfrwt beam="1">  1       11 0.10000000E+01 0.12158250E+03</pdfrwt>
<pdfrwt beam="2">  1        2 0.23854750E-02 0.12430343E+03</pdfrwt>
<totfact> 0.48686871E+03</totfact>
</mgrwt>
</event>
<event>
 5    1  0.1851087E-003  0.1474508E+03  0.7818608E-02  0.1432691E+00
         11   -1    0    0    0    0  0.00000000000E+00  0.00000000000E+00  0.10001963067E+04  0.10001963067E+04  0.51100000000E-03 0. -1.
          2   -1    0    0  501    0 -0.00000000000E+00 -0.00000000000E+00 -0.47068630573E+02  0.47068630642E+02  0.25500000000E-02 0. -1.
         11    1    1    2    0    0 -0.13876793647E+03 -0.71990424063E+02  0.79506642714E+03  0.81028993879E+03  0.51100000000E-03 0. -1.
         22    1    1    2    0    0  0.10685617292E+03  0.30398741334E+02  0.61200842304E+02  0.12683796066E+03  0.00000000000E+00 0. -1.
          2    1    1    2  501    0  0.31911763545E+02  0.41591682729E+02  0.96860406674E+02  0.11013703788E+03  0.25500000000E-02 0. -1.
<mgrwt>
<rscale>  0 0.52423551E+02</rscale>
<asrwt>0</asrwt>
<pdfrwt beam="1">  1       11 0.10000000E+01 0.14745079E+03</pdfrwt>
<pdfrwt beam="2">  1        2 0.72427491E-02 0.52423551E+02</pdfrwt>
<totfact> 0.10564161E+03</totfact>
</mgrwt>
</event>
<event>
 5    1  0.1851087E-003  0.3168633E+03  0.7818608E-02  0.1077102E+00
         11   -1    0    0    0    0  0.00000000000E+00  0.00000000000E+00  0.10005664736E+04  0.10005664736E+04  0.51100000000E-03 0.  1.
          2   -1    0    0  501    0 -0.00000000000E+00 -0.00000000000E+00 -0.46441846042E+03  0.46441846043E+03  0.25500000000E-02 0. -1.
         11    1    1    2    0    0 -0.11627036324E+03  0.27516719880E+03  0.91997830739E+03  0.96726204864E+03  0.51100000000E-03 0.  1.
         22    1    1    2    0    0  0.28718313963E+01 -0.13721385372E+03 -0.18694331420E+03  0.23191311260E+03  0.00000000000E+00 0. -1.
          2    1    1    2  501    0  0.11339853184E+03 -0.13795334508E+03 -0.19688697997E+03  0.26580977283E+03  0.25500000000E-02 0. -1.
<mgrwt>
<rscale>  0 0.31686334E+03</rscale>
<asrwt>0</asrwt>
<pdfrwt beam="1">  1       11 0.10000000E+01 0.29872359E+03</pdfrwt>
<pdfrwt beam="2">  1        2 0.71489466E-01 0.31686334E+03</pdfrwt>
<totfact> 0.83981447E+01</totfact>
</mgrwt>
</event>
<event>
 5    1  0.1851087E-003  0.1795814E+03  0.7818608E-02  0.1168209E+00
         11   -1    0    0    0    0  0.00000000000E+00  0.00000000000E+00  0.10001105506E+04  0.10001105506E+04  0.51100000000E-03 0.  1.
          2   -1    0    0  501    0 -0.00000000000E+00 -0.00000000000E+00 -0.42300817594E+02  0.42300817671E+02  0.25500000000E-02 0.  1.
         11    1    1    2    0    0  0.14815227457E+03  0.84191004410E+02  0.74364553711E+03  0.76291933162E+03  0.51100000000E-03 0.  1.
         22    1    1    2    0    0 -0.63784345954E+02 -0.39097977550E+02  0.51644582015E+02  0.90907961636E+02  0.00000000000E+00 0.  1.
          2    1    1    2  501    0 -0.84367928616E+02 -0.45093026860E+02  0.16251961389E+03  0.18858407503E+03  0.25500000000E-02 0.  1.
<mgrwt>
<rscale>  0 0.17958145E+03</rscale>
<asrwt>0</asrwt>
<pdfrwt beam="1">  1       11 0.10000000E+01 0.17040312E+03</pdfrwt>
<pdfrwt beam="2">  1        2 0.65085374E-02 0.17958145E+03</pdfrwt>
<totfact> 0.13290045E+03</totfact>
</mgrwt>
</event>
<event>
 5    1  0.1851087E-003  0.1616919E+03  0.7818608E-02  0.1346949E+00
         11   -1    0    0    0    0  0.00000000000E+00  0.00000000000E+00  0.10002377675E+04  0.10002377675E+04  0.51100000000E-03 0. -1.
          2   -1    0    0  501    0 -0.00000000000E+00 -0.00000000000E+00 -0.59786895887E+02  0.59786895941E+02  0.25500000000E-02 0. -1.
         11    1    1    2    0    0  0.15110124567E+03  0.49398502119E+02  0.75801555887E+03  0.77450589795E+03  0.51100000000E-03 0. -1.
         22    1    1    2    0    0  0.80177362283E+01  0.32918212552E+02  0.58750890882E+02  0.67820055966E+02  0.00000000000E+00 0. -1.
          2    1    1    2  501    0 -0.15911898190E+03 -0.82316714671E+02  0.12368442186E+03  0.21769870954E+03  0.25500000000E-02 0. -1.
<mgrwt>
<rscale>  0 0.74014943E+02</rscale>
<asrwt>0</asrwt>
<pdfrwt beam="1">  1       11 0.10000000E+01 0.16169186E+03</pdfrwt>
<pdfrwt beam="2">  1        2 0.92001707E-02 0.74014943E+02</pdfrwt>
<totfact> 0.81050561E+02</totfact>
</mgrwt>
</event>
<event>
 5    1  0.1851087E-003  0.1552011E+03  0.7818608E-02  0.1330751E+00
         11   -1    0    0    0    0  0.00000000000E+00  0.00000000000E+00  0.10004898347E+04  0.10004898347E+04  0.51100000000E-03 0.  1.
          2   -1    0    0  501    0 -0.00000000000E+00 -0.00000000000E+00 -0.12236880349E+03  0.12236880351E+03  0.25500000000E-02 0. -1.
         11    1    1    2    0    0 -0.45929630903E+02  0.15397635046E+03  0.91579128121E+03  0.92978057532E+03  0.51100000000E-03 0.  1.
         22    1    1    2    0    0 -0.67716200440E+01 -0.94582597809E+02 -0.57943187095E+02  0.11112666456E+03  0.00000000000E+00 0. -1.
          2    1    1    2  501    0  0.52701250947E+02 -0.59393752650E+02  0.20272937113E+02  0.81951398346E+02  0.25500000000E-02 0. -1.
<mgrwt>
<rscale>  0 0.79404280E+02</rscale>
<asrwt>0</asrwt>
<pdfrwt beam="1">  1       11 0.10000000E+01 0.15520113E+03</pdfrwt>
<pdfrwt beam="2">  1        2 0.18835191E-01 0.79404280E+02</pdfrwt>
<totfact> 0.35240055E+02</totfact>
</mgrwt>
</event>
<event>
 5    1  0.1851087E-003  0.2681528E+03  0.7818608E-02  0.1102341E+00
         11   -1    0    0    0    0  0.00000000000E+00  0.00000000000E+00  0.10002584307E+04  0.10002584307E+04  0.51100000000E-03 0.  1.
          2   -1    0    0  501    0 -0.00000000000E+00 -0.00000000000E+00 -0.89682026312E+02  0.89682026348E+02  0.25500000000E-02 0.  1.
         11    1    1    2    0    0 -0.25326836133E+03 -0.22426614370E+02  0.71266020817E+03  0.75665869993E+03  0.51100000000E-03 0.  1.
         22    1    1    2    0    0  0.55698978278E+02 -0.22550602471E+02  0.19143426955E+02  0.63066446298E+02  0.00000000000E+00 0. -1.
          2    1    1    2  501    0  0.19756938305E+03  0.44977216840E+02  0.17877276923E+03  0.27021531078E+03  0.25500000000E-02 0.  1.
<mgrwt>
<rscale>  0 0.26815277E+03</rscale>
<asrwt>0</asrwt>
<pdfrwt beam="1">  1       11 0.10000000E+01 0.25425935E+03</pdfrwt>
<pdfrwt beam="2">  1        2 0.13800800E-01 0.26815277E+03</pdfrwt>
<totfact> 0.53066772E+02</totfact>
</mgrwt>
</event>
<event>
 5    1  0.1851087E-003  0.1510864E+03  0.7818608E-02  0.1199144E+00
         11   -1    0    0    0    0  0.00000000000E+00  0.00000000000E+00  0.10002758250E+04  0.10002758250E+04  0.51100000000E-03 0.  1.
          2   -1    0    0  501    0 -0.00000000000E+00 -0.00000000000E+00 -0.56829020857E+02  0.56829020914E+02  0.25500000000E-02 0.  1.
         11    1    1    2    0    0 -0.11704050184E+03  0.89951337947E+02  0.88156286442E+03  0.89383600632E+03  0.51100000000E-03 0.  1.
         22    1    1    2    0    0  0.95588428467E+02 -0.56708070560E+02  0.50650671728E+02  0.12214108019E+03  0.00000000000E+00 0. -1.
          2    1    1    2  501    0  0.21452073368E+02 -0.33243267386E+02  0.11233268013E+02  0.41127759422E+02  0.25500000000E-02 0.  1.
<mgrwt>
<rscale>  0 0.15108637E+03</rscale>
<asrwt>0</asrwt>
<pdfrwt beam="1">  1       11 0.10000000E+01 0.14761342E+03</pdfrwt>
<pdfrwt beam="2">  1        2 0.87453376E-02 0.15108637E+03</pdfrwt>
<totfact> 0.90354876E+02</totfact>
</mgrwt>
</event>
<event>
 5    1  0.1851087E-003  0.6816955E+02  0.7818608E-02  0.1366431E+00
         11   -1    0    0    0    0  0.00000000000E+00  0.00000000000E+00  0.10004534980E+04  0.10004534980E+04  0.51100000000E-03 0. -1.
          2   -1    0    0  501    0 -0.00000000000E+00 -0.00000000000E+00 -0.46439389601E+01  0.46439396603E+01  0.25500000000E-02 0. -1.
         11    1    1    2    0    0  0.65138235875E+02  0.54886940868E+01  0.38684066249E+03  0.39232488284E+03  0.51100000000E-03 0. -1.
         22    1    1    2    0    0 -0.15129037057E+02 -0.53471224812E+01  0.91845922703E+02  0.93237079524E+02  0.00000000000E+00 0. -1.
          2    1    1    2  501    0 -0.50009198818E+02 -0.14157160560E+00  0.51712297381E+03  0.51953547526E+03  0.25500000000E-02 0. -1.
<mgrwt>
<rscale>  0 0.68169546E+02</rscale>
<asrwt>0</asrwt>
<pdfrwt beam="1">  1       11 0.10000000E+01 0.65369104E+02</pdfrwt>
<pdfrwt beam="2">  1        2 0.71477618E-03 0.68169546E+02</pdfrwt>
<totfact> 0.22991036E+04</totfact>
</mgrwt>
</event>
<event>
 5    1  0.1851087E-003  0.1454927E+03  0.7818608E-02  0.1206124E+00
         11   -1    0    0    0    0  0.00000000000E+00  0.00000000000E+00  0.10000893549E+04  0.10000893549E+04  0.51100000000E-03 0.  1.
          2   -1    0    0  501    0 -0.00000000000E+00 -0.00000000000E+00 -0.64025123663E+02  0.64025123714E+02  0.25500000000E-02 0.  1.
         11    1    1    2    0    0 -0.80102614885E+02  0.12747209687E+03  0.86225913100E+03  0.87530358926E+03  0.51100000000E-03 0.  1.
         22    1    1    2    0    0  0.16803865046E+02  0.30146015999E+01  0.34589457655E+02  0.38573154967E+02  0.00000000000E+00 0.  1.
          2    1    1    2  501    0  0.63298749839E+02 -0.13048669847E+03  0.39215642610E+02  0.15023773441E+03  0.25500000000E-02 0.  1.
<mgrwt>
<rscale>  0 0.14549271E+03</rscale>
<asrwt>0</asrwt>
<pdfrwt beam="1">  1       11 0.10000000E+01 0.17072132E+02</pdfrwt>
<pdfrwt beam="2">  1        2 0.98508989E-02 0.14549271E+03</pdfrwt>
<totfact> 0.77787744E+02</totfact>
</mgrwt>
</event>
<event>
 5    1  0.1851087E-003  0.9314476E+02  0.7818608E-02  0.1556781E+00
         11   -1    0    0    0    0  0.00000000000E+00  0.00000000000E+00  0.10002341451E+04  0.10002341451E+04  0.51100000000E-03 0.  1.
          2   -1    0    0  501    0 -0.00000000000E+00 -0.00000000000E+00 -0.13510635429E+02  0.13510635670E+02  0.25500000000E-02 0.  1.
         11    1    1    2    0    0  0.26125761582E+02  0.86101217091E+02  0.26103286088E+03  0.27610528691E+03  0.51100000000E-03 0.  1.
         22    1    1    2    0    0  0.61175456910E+01 -0.97186618705E+02  0.50090958014E+03  0.51028724332E+03  0.00000000000E+00 0.  1.
          2    1    1    2  501    0 -0.32243307273E+02  0.11085401614E+02  0.22478106868E+03  0.22735225056E+03  0.25500000000E-02 0.  1.
<mgrwt>
<rscale>  0 0.34095704E+02</rscale>
<asrwt>0</asrwt>
<pdfrwt beam="1">  1       11 0.10000000E+01 0.93144756E+02</pdfrwt>
<pdfrwt beam="2">  1        2 0.20790459E-02 0.34095704E+02</pdfrwt>
<totfact> 0.48969216E+03</totfact>
</mgrwt>
</event>
<event>
 5    1  0.1851087E-003  0.1365701E+03  0.7818608E-02  0.1420730E+00
         11   -1    0    0    0    0  0.00000000000E+00  0.00000000000E+00  0.10002444850E+04  0.10002444850E+04  0.51100000000E-03 0. -1.
          2   -1    0    0  501    0 -0.00000000000E+00 -0.00000000000E+00 -0.29597799169E+02  0.29597799278E+02  0.25500000000E-02 0. -1.
         11    1    1    2    0    0 -0.87204255619E+02  0.10614518157E+03  0.24042861362E+03  0.27690666300E+03  0.51100000000E-03 0. -1.
         22    1    1    2    0    0  0.18448499450E+02  0.12063720420E+02  0.20298908767E+02  0.29965416391E+02  0.00000000000E+00 0.  1.
          2    1    1    2  501    0  0.68755756169E+02 -0.11820890199E+03  0.70991916350E+03  0.72297020493E+03  0.25500000000E-02 0. -1.
<mgrwt>
<rscale>  0 0.54866860E+02</rscale>
<asrwt>0</asrwt>
<pdfrwt beam="1">  1       11 0.10000000E+01 0.13657012E+03</pdfrwt>
<pdfrwt beam="2">  1        2 0.45546207E-02 0.54866860E+02</pdfrwt>
<totfact> 0.18975318E+03</totfact>
</mgrwt>
</event>
<event>
 5    1  0.1851087E-003  0.1918257E+03  0.7818608E-02  0.1415078E+00
         11   -1    0    0    0    0  0.00000000000E+00  0.00000000000E+00  0.10002311639E+04  0.10002311639E+04  0.51100000000E-03 0. -1.
          2   -1    0    0  501    0 -0.00000000000E+00 -0.00000000000E+00 -0.69120950815E+02  0.69120950863E+02  0.25500000000E-02 0. -1.
         11    1    1    2    0    0  0.13543750590E+03  0.13840533743E+03  0.80804150960E+03  0.83092143833E+03  0.51100000000E-03 0. -1.
         22    1    1    2    0    0 -0.16235590935E+02  0.22633429787E+01 -0.62013565614E+00  0.16404319634E+02  0.00000000000E+00 0.  1.
          2    1    1    2  501    0 -0.11920191497E+03 -0.14066868041E+03  0.12368883914E+03  0.22202635680E+03  0.25500000000E-02 0. -1.
<mgrwt>
<rscale>  0 0.56076024E+02</rscale>
<asrwt>0</asrwt>
<pdfrwt beam="1">  1       11 0.10000000E+01 0.19182568E+03</pdfrwt>
<pdfrwt beam="2">  1        2 0.10636450E-01 0.56076024E+02</pdfrwt>
<totfact> 0.66789664E+02</totfact>
</mgrwt>
</event>
<event>
 5    1  0.1851087E-003  0.2694809E+03  0.7818608E-02  0.1101577E+00
         11   -1    0    0    0    0  0.00000000000E+00  0.00000000000E+00  0.10000530411E+04  0.10000530411E+04  0.51100000000E-03 0. -1.
          2   -1    0    0  501    0 -0.00000000000E+00 -0.00000000000E+00 -0.98389946761E+02  0.98389946794E+02  0.25500000000E-02 0. -1.
         11    1    1    2    0    0  0.52210593556E+02 -0.25540964562E+03  0.15189093558E+03  0.30171325703E+03  0.51100000000E-03 0. -1.
         22    1    1    2    0    0 -0.59782913481E-01  0.11176407077E+03  0.24409036864E+03  0.26846101980E+03  0.00000000000E+00 0. -1.
          2    1    1    2  501    0 -0.52150810642E+02  0.14364557485E+03  0.50568179013E+03  0.52826871107E+03  0.25500000000E-02 0. -1.
<mgrwt>
<rscale>  0 0.26948093E+03</rscale>
<asrwt>0</asrwt>
<pdfrwt beam="1">  1       11 0.10000000E+01 0.26069158E+03</pdfrwt>
<pdfrwt beam="2">  1        2 0.15137717E-01 0.26948093E+03</pdfrwt>
<totfact> 0.47512020E+02</totfact>
</mgrwt>
</event>
<event>
 5    1  0.1851087E-003  0.1521796E+03  0.7818608E-02  0.1197820E+00
         11   -1    0    0    0    0  0.00000000000E+00  0.00000000000E+00  0.99995246875E+03  0.99995246875E+03  0.51100000000E-03 0. -1.
          2   -1    0    0  501    0 -0.00000000000E+00 -0.00000000000E+00 -0.48500394623E+02  0.48500394690E+02  0.25500000000E-02 0. -1.
         11    1    1    2    0    0  0.68444028336E+02 -0.13212460277E+03  0.85595202454E+03  0.86878959708E+03  0.51100000000E-03 0. -1.
         22    1    1    2    0    0 -0.22495943688E+02  0.48892449316E+02  0.52961031107E+02  0.75507681056E+02  0.00000000000E+00 0.  1.
          2    1    1    2  501    0 -0.45948084648E+02  0.83232153450E+02  0.42539018475E+02  0.10415558530E+03  0.25500000000E-02 0. -1.
<mgrwt>
<rscale>  0 0.15217960E+03</rscale>
<asrwt>0</asrwt>
<pdfrwt beam="1">  1       11 0.10000000E+01 0.14880019E+03</pdfrwt>
<pdfrwt beam="2">  1        2 0.74612443E-02 0.15217960E+03</pdfrwt>
<totfact> 0.11038431E+03</totfact>
</mgrwt>
</event>
<event>
 5    1  0.1851087E-003  0.1174534E+03  0.7818608E-02  0.1247358E+00
         11   -1    0    0    0    0  0.00000000000E+00  0.00000000000E+00  0.10002354604E+04  0.10002354604E+04  0.51100000000E-03 0.  1.
          2   -1    0    0  501    0 -0.00000000000E+00 -0.00000000000E+00 -0.13575329199E+02  0.13575329438E+02  0.25500000000E-02 0.  1.
         11    1    1    2    0    0  0.97926729090E+02 -0.61266312729E+02  0.47532182232E+03  0.48915645771E+03  0.51100000000E-03 0.  1.
         22    1    1    2    0    0 -0.16186587478E+02  0.85831078289E+01  0.51957849037E+02  0.55093497173E+02  0.00000000000E+00 0.  1.
          2    1    1    2  501    0 -0.81740141613E+02  0.52683204900E+02  0.45938045980E+03  0.46956083491E+03  0.25500000000E-02 0.  1.
<mgrwt>
<rscale>  0 0.11745340E+03</rscale>
<asrwt>0</asrwt>
<pdfrwt beam="1">  1       11 0.10000000E+01 0.11551285E+03</pdfrwt>
<pdfrwt beam="2">  1        2 0.20890039E-02 0.11745340E+03</pdfrwt>
<totfact> 0.57896831E+03</totfact>
</mgrwt>
</event>
<event>
 5    1  0.1851087E-003  0.1716349E+03  0.7818608E-02  0.1176154E+00
         11   -1    0    0    0    0  0.00000000000E+00  0.00000000000E+00  0.10001249947E+04  0.10001249947E+04  0.51100000000E-03 0.  1.
          2   -1    0    0  501    0 -0.00000000000E+00 -0.00000000000E+00 -0.38541263404E+02  0.38541263488E+02  0.25500000000E-02 0.  1.
         11    1    1    2    0    0 -0.12997756398E+02 -0.16890926551E+03  0.59464755850E+03  0.61830817597E+03  0.51100000000E-03 0.  1.
         22    1    1    2    0    0  0.20955224986E+02 -0.40366604345E+01  0.99582085536E+02  0.10184305495E+03  0.00000000000E+00 0. -1.
          2    1    1    2  501    0 -0.79574685883E+01  0.17294592595E+03  0.26735408723E+03  0.31851502724E+03  0.25500000000E-02 0.  1.
<mgrwt>
<rscale>  0 0.17163494E+03</rscale>
<asrwt>0</asrwt>
<pdfrwt beam="1">  1       11 0.10000000E+01 0.21340480E+02</pdfrwt>
<pdfrwt beam="2">  1        2 0.59301661E-02 0.17163494E+03</pdfrwt>
<totfact> 0.14942859E+03</totfact>
</mgrwt>
</event>
<event>
 5    1  0.1851087E-003  0.1656641E+03  0.7818608E-02  0.1182446E+00
         11   -1    0    0    0    0  0.00000000000E+00  0.00000000000E+00  0.10001278708E+04  0.10001278708E+04  0.51100000000E-03 0.  1.
          2   -1    0    0  501    0 -0.00000000000E+00 -0.00000000000E+00 -0.15608830254E+03  0.15608830256E+03  0.25500000000E-02 0.  1.
         11    1    1    2    0    0  0.76720623866E+02  0.14427479830E+03  0.94711187489E+03  0.96110466397E+03  0.51100000000E-03 0.  1.
         22    1    1    2    0    0 -0.62631732293E+00 -0.14471039708E+02 -0.42431943434E+01  0.15093308512E+02  0.00000000000E+00 0.  1.
          2    1    1    2  501    0 -0.76094306543E+02 -0.12980375859E+03 -0.98829112236E+02  0.18001820093E+03  0.25500000000E-02 0.  1.
<mgrwt>
<rscale>  0 0.16566412E+03</rscale>
<asrwt>0</asrwt>
<pdfrwt beam="1">  1       11 0.10000000E+01 0.16340524E+03</pdfrwt>
<pdfrwt beam="2">  1        2 0.24016655E-01 0.16566412E+03</pdfrwt>
<totfact> 0.27517419E+02</totfact>
</mgrwt>
</event>
<event>
 5    1  0.1851087E-003  0.1983993E+03  0.7818608E-02  0.1345905E+00
         11   -1    0    0    0    0  0.00000000000E+00  0.00000000000E+00  0.10001520682E+04  0.10001520682E+04  0.51100000000E-03 0. -1.
          2   -1    0    0  501    0 -0.00000000000E+00 -0.00000000000E+00 -0.17759182720E+03  0.17759182722E+03  0.25500000000E-02 0. -1.
         11    1    1    2    0    0 -0.96292508733E+02  0.17384599380E+03  0.87294783380E+03  0.89528352902E+03  0.51100000000E-03 0. -1.
         22    1    1    2    0    0  0.25729722108E+02  0.10685662174E+02 -0.78139727946E+02  0.82957935482E+02  0.00000000000E+00 0. -1.
          2    1    1    2  501    0  0.70562786624E+02 -0.18453165598E+03  0.27752135095E+02  0.19950243087E+03  0.25500000000E-02 0. -1.
<mgrwt>
<rscale>  0 0.74347048E+02</rscale>
<asrwt>0</asrwt>
<pdfrwt beam="1">  1       11 0.10000000E+01 0.19839928E+03</pdfrwt>
<pdfrwt beam="2">  1        2 0.27325974E-01 0.74347048E+02</pdfrwt>
<totfact> 0.23393021E+02</totfact>
</mgrwt>
</event>
<event>
 5    1  0.1851087E-003  0.1510350E+03  0.7818608E-02  0.1199207E+00
         11   -1    0    0    0    0  0.00000000000E+00  0.00000000000E+00  0.10001744201E+04  0.10001744201E+04  0.51100000000E-03 0. -1.
          2   -1    0    0  501    0 -0.00000000000E+00 -0.00000000000E+00 -0.32862180825E+02  0.32862180924E+02  0.25500000000E-02 0.  1.
         11    1    1    2    0    0  0.14616323399E+03  0.10761446283E+01  0.77419197342E+03  0.78786931706E+03  0.51100000000E-03 0. -1.
         22    1    1    2    0    0 -0.37535308897E+02 -0.13894681160E+02  0.36747340065E+02  0.54335334547E+02  0.00000000000E+00 0. -1.
          2    1    1    2  501    0 -0.10862792510E+03  0.12818536531E+02  0.15637292577E+03  0.19083194940E+03  0.25500000000E-02 0.  1.
<mgrwt>
<rscale>  0 0.15103496E+03</rscale>
<asrwt>0</asrwt>
<pdfrwt beam="1">  1       11 0.10000000E+01 0.14616720E+03</pdfrwt>
<pdfrwt beam="2">  1        2 0.50566018E-02 0.15103496E+03</pdfrwt>
<totfact> 0.18214777E+03</totfact>
</mgrwt>
</event>
<event>
 5    1  0.2034256E-003  0.1980590E+03  0.7818608E-02  0.1151387E+00
         11   -1    0    0    0    0  0.00000000000E+00  0.00000000000E+00  0.99998061283E+03  0.99998061283E+03  0.51100000000E-03 0. -1.
          2   -1    0    0  501    0 -0.00000000000E+00 -0.00000000000E+00 -0.74249136971E+03  0.74249136972E+03  0.25500000000E-02 0.  1.
         11    1    1    2    0    0 -0.14220885243E+03  0.12471680316E+03  0.97754352511E+03  0.99567513888E+03  0.51100000000E-03 0. -1.
         22    1    1    2    0    0  0.32823222194E+02 -0.39056184807E+02 -0.30150100000E+03  0.30578685794E+03  0.00000000000E+00 0.  1.
          2    1    1    2  501    0  0.10938563024E+03 -0.85660618357E+02 -0.41855328199E+03  0.44100998572E+03  0.25500000000E-02 0.  1.
<mgrwt>
<rscale>  0 0.19805897E+03</rscale>
<asrwt>0</asrwt>
<pdfrwt beam="1">  1       11 0.10000000E+01 0.18914978E+03</pdfrwt>
<pdfrwt beam="2">  1        2 0.11422722E+00 0.19805897E+03</pdfrwt>
<totfact> 0.49196390E+01</totfact>
</mgrwt>
</event>
<event>
 5    1  0.1851087E-003  0.1433247E+03  0.7818608E-02  0.1208924E+00
         11   -1    0    0    0    0  0.00000000000E+00  0.00000000000E+00  0.10003475136E+04  0.10003475136E+04  0.51100000000E-03 0.  1.
          2   -1    0    0  501    0 -0.00000000000E+00 -0.00000000000E+00 -0.19586503649E+02  0.19586503815E+02  0.25500000000E-02 0.  1.
         11    1    1    2    0    0 -0.13350912577E+03  0.24078734178E+02  0.43472879157E+03  0.45540486857E+03  0.51100000000E-03 0.  1.
         22    1    1    2    0    0  0.24249433456E+02  0.13535811836E+02  0.10552614338E+03  0.10911929326E+03  0.00000000000E+00 0. -1.
          2    1    1    2  501    0  0.10925969232E+03 -0.37614546014E+02  0.44050607503E+03  0.45540985560E+03  0.25500000000E-02 0.  1.
<mgrwt>
<rscale>  0 0.14332472E+03</rscale>
<asrwt>0</asrwt>
<pdfrwt beam="1">  1       11 0.10000000E+01 0.13566315E+03</pdfrwt>
<pdfrwt beam="2">  1        2 0.30143553E-02 0.14332472E+03</pdfrwt>
<totfact> 0.36045060E+03</totfact>
</mgrwt>
</event>
<event>
 5    1  0.1851087E-003  0.3285486E+03  0.7818608E-02  0.1253067E+00
         11   -1    0    0    0    0  0.00000000000E+00  0.00000000000E+00  0.10012152142E+04  0.10012152142E+04  0.51100000000E-03 0. -1.
          2   -1    0    0  501    0 -0.00000000000E+00 -0.00000000000E+00 -0.21272572604E+04  0.21272572604E+04  0.25500000000E-02 0. -1.
         11    1    1    2    0    0 -0.18379416680E+03  0.27231977634E+03  0.95739562308E+03  0.10121979725E+04  0.51100000000E-03 0. -1.
         22    1    1    2    0    0 -0.33198534089E+02 -0.21700864981E+02 -0.20259883303E+03  0.20644456241E+03  0.00000000000E+00 0. -1.
          2    1    1    2  501    0  0.21699270089E+03 -0.25061891136E+03 -0.18808388362E+04  0.19098299397E+04  0.25500000000E-02 0. -1.
<mgrwt>
<rscale>  0 0.11415286E+03</rscale>
<asrwt>0</asrwt>
<pdfrwt beam="1">  1       11 0.10000000E+01 0.32854855E+03</pdfrwt>
<pdfrwt beam="2">  1        2 0.32766804E+00 0.11415286E+03</pdfrwt>
<totfact> 0.87369966E+00</totfact>
</mgrwt>
</event>
<event>
 5    1  0.1851087E-003  0.2342260E+03  0.7818608E-02  0.1169453E+00
         11   -1    0    0    0    0  0.00000000000E+00  0.00000000000E+00  0.10005626430E+04  0.10005626430E+04  0.51100000000E-03 0.  1.
          2   -1    0    0  501    0 -0.00000000000E+00 -0.00000000000E+00 -0.83509281286E+03  0.83509281287E+03  0.25500000000E-02 0.  1.
         11    1    1    2    0    0 -0.16278989391E+03  0.17665032286E+03  0.95984321246E+03  0.98944675382E+03  0.51100000000E-03 0.  1.
         22    1    1    2    0    0  0.31282387534E+02 -0.13208217894E+03 -0.53563431113E+03  0.55256529481E+03  0.00000000000E+00 0.  1.
          2    1    1    2  501    0  0.13150750638E+03 -0.44568143921E+02 -0.25873907116E+03  0.29364340728E+03  0.25500000000E-02 0.  1.
<mgrwt>
<rscale>  0 0.17830571E+03</rscale>
<asrwt>0</asrwt>
<pdfrwt beam="1">  1       11 0.10000000E+01 0.23422600E+03</pdfrwt>
<pdfrwt beam="2">  1        2 0.12854810E+00 0.17830571E+03</pdfrwt>
<totfact> 0.42585557E+01</totfact>
</mgrwt>
</event>
<event>
 5    1  0.1851087E-003  0.5887885E+03  0.7818608E-02  0.1684839E+00
         11   -1    0    0    0    0  0.00000000000E+00  0.00000000000E+00  0.99974000505E+03  0.99974000505E+03  0.51100000000E-03 0.  1.
          2   -1    0    0  501    0 -0.00000000000E+00 -0.00000000000E+00 -0.27992720141E+04  0.27992720141E+04  0.25500000000E-02 0.  1.
         11    1    1    2    0    0  0.51894933867E+03  0.27897319389E+03  0.87577312525E+03  0.10555155261E+04  0.51100000000E-03 0.  1.
         22    1    1    2    0    0 -0.49926439826E+03 -0.29165609706E+03 -0.24657586303E+04  0.25326456209E+04  0.00000000000E+00 0. -1.
          2    1    1    2  501    0 -0.19684940410E+02  0.12682903175E+02 -0.20954650402E+03  0.21085087210E+03  0.25500000000E-02 0.  1.
<mgrwt>
<rscale>  0 0.23416937E+02</rscale>
<asrwt>0</asrwt>
<pdfrwt beam="1">  1       11 0.10000000E+01 0.58878851E+03</pdfrwt>
<pdfrwt beam="2">  1        2 0.43054525E+00 0.23416937E+02</pdfrwt>
<totfact> 0.50267089E+00</totfact>
</mgrwt>
</event>
<event>
 5    1  0.1851087E-003  0.2047178E+03  0.7818608E-02  0.1145819E+00
         11   -1    0    0    0    0  0.00000000000E+00  0.00000000000E+00  0.10003089663E+04  0.10003089663E+04  0.51100000000E-03 0. -1.
         -2   -1    0    0    0  501 -0.00000000000E+00 -0.00000000000E+00 -0.52000097482E+02  0.52000097545E+02  0.25500000000E-02 0. -1.
         11    1    1    2    0    0 -0.11564898528E+03 -0.15653403090E+03  0.21075628736E+03  0.28687245125E+03  0.51100000000E-03 0. -1.
         22    1    1    2    0    0  0.55837408465E+02  0.60198418610E+02  0.42716876631E+03  0.43498829949E+03  0.00000000000E+00 0. -1.
         -2    1    1    2    0  501  0.59811576811E+02  0.96335612289E+02  0.31038381511E+03  0.33044831306E+03  0.25500000000E-02 0. -1.
<mgrwt>
<rscale>  0 0.20471785E+03</rscale>
<asrwt>0</asrwt>
<pdfrwt beam="1">  1       11 0.10000000E+01 0.19462176E+03</pdfrwt>
<pdfrwt beam="2">  1       -2 0.80024865E-02 0.20471785E+03</pdfrwt>
<totfact> 0.74193677E+02</totfact>
</mgrwt>
</event>
<event>
 5    1  0.1851087E-003  0.1505822E+03  0.7818608E-02  0.1199759E+00
         11   -1    0    0    0    0  0.00000000000E+00  0.00000000000E+00  0.10001438139E+04  0.10001438139E+04  0.51100000000E-03 0. -1.
          2   -1    0    0  501    0 -0.00000000000E+00 -0.00000000000E+00 -0.23942732147E+02  0.23942732283E+02  0.25500000000E-02 0. -1.
         11    1    1    2    0    0 -0.11964053857E+03 -0.82345922425E+02  0.32957881958E+03  0.36016233524E+03  0.51100000000E-03 0. -1.
         22    1    1    2    0    0  0.33113224015E+02  0.45070798710E+02  0.26587707523E+03  0.27169556793E+03  0.00000000000E+00 0.  1.
          2    1    1    2  501    0  0.86527314554E+02  0.37275123715E+02  0.38074518696E+03  0.39222864303E+03  0.25500000000E-02 0. -1.
<mgrwt>
<rscale>  0 0.15058223E+03</rscale>
<asrwt>0</asrwt>
<pdfrwt beam="1">  1       11 0.10000000E+01 0.14524025E+03</pdfrwt>
<pdfrwt beam="2">  1        2 0.36840269E-02 0.15058223E+03</pdfrwt>
<totfact> 0.27677269E+03</totfact>
</mgrwt>
</event>
<event>
 5    1  0.1851087E-003  0.1110814E+03  0.7818608E-02  0.1382985E+00
         11   -1    0    0    0    0  0.00000000000E+00  0.00000000000E+00  0.10000538330E+04  0.10000538330E+04  0.51100000000E-03 0. -1.
          2   -1    0    0  501    0 -0.00000000000E+00 -0.00000000000E+00 -0.22276656153E+02  0.22276656299E+02  0.25500000000E-02 0. -1.
         11    1    1    2    0    0 -0.73563752287E+02 -0.80716792787E+02  0.64617455021E+03  0.65533836728E+03  0.51100000000E-03 0. -1.
         22    1    1    2    0    0 -0.30501486218E+02  0.20070237343E+02  0.68268718337E+02  0.77419461325E+02  0.00000000000E+00 0. -1.
          2    1    1    2  501    0  0.10406523851E+03  0.60646555444E+02  0.26333390825E+03  0.28957266064E+03  0.25500000000E-02 0. -1.
<mgrwt>
<rscale>  0 0.63685551E+02</rscale>
<asrwt>0</asrwt>
<pdfrwt beam="1">  1       11 0.10000000E+01 0.11108143E+03</pdfrwt>
<pdfrwt beam="2">  1        2 0.34273623E-02 0.63685551E+02</pdfrwt>
<totfact> 0.27849504E+03</totfact>
</mgrwt>
</event>
<event>
 5    1  0.1851087E-003  0.1538936E+03  0.7818608E-02  0.1195769E+00
         11   -1    0    0    0    0  0.00000000000E+00  0.00000000000E+00  0.10002102675E+04  0.10002102675E+04  0.51100000000E-03 0. -1.
          2   -1    0    0  501    0 -0.00000000000E+00 -0.00000000000E+00 -0.32866015129E+02  0.32866015228E+02  0.25500000000E-02 0. -1.
         11    1    1    2    0    0 -0.14240853212E+03  0.42704502844E+02  0.76253009553E+03  0.77688867360E+03  0.51100000000E-03 0. -1.
         22    1    1    2    0    0  0.37726843952E+02  0.42690444561E+01  0.37946584057E+02  0.53679444267E+02  0.00000000000E+00 0. -1.
          2    1    1    2  501    0  0.10468168816E+03 -0.46973547300E+02  0.16686757281E+03  0.20250816488E+03  0.25500000000E-02 0. -1.
<mgrwt>
<rscale>  0 0.15389364E+03</rscale>
<asrwt>0</asrwt>
<pdfrwt beam="1">  1       11 0.10000000E+01 0.14867368E+03</pdfrwt>
<pdfrwt beam="2">  1        2 0.50573731E-02 0.15389364E+03</pdfrwt>
<totfact> 0.18238505E+03</totfact>
</mgrwt>
</event>
<event>
 5    1  0.1851087E-003  0.8612012E+02  0.7818608E-02  0.1384943E+00
         11   -1    0    0    0    0  0.00000000000E+00  0.00000000000E+00  0.10003800350E+04  0.10003800350E+04  0.51100000000E-03 0. -1.
          2   -1    0    0  501    0 -0.00000000000E+00 -0.00000000000E+00 -0.16305126451E+02  0.16305126650E+02  0.25500000000E-02 0. -1.
         11    1    1    2    0    0  0.81423275583E+02 -0.30562611617E+02  0.49109841504E+03  0.49873988841E+03  0.51100000000E-03 0. -1.
         22    1    1    2    0    0  0.91866061202E+01  0.45434390889E+02  0.62664651665E+02  0.77945725833E+02  0.00000000000E+00 0. -1.
          2    1    1    2  501    0 -0.90609881703E+02 -0.14871779272E+02  0.43031184184E+03  0.43999954741E+03  0.25500000000E-02 0. -1.
<mgrwt>
<rscale>  0 0.63182256E+02</rscale>
<asrwt>0</asrwt>
<pdfrwt beam="1">  1       11 0.10000000E+01 0.86120119E+02</pdfrwt>
<pdfrwt beam="2">  1        2 0.25094342E-02 0.63182256E+02</pdfrwt>
<totfact> 0.41897813E+03</totfact>
</mgrwt>
</event>
<event>
 5    1  0.1851087E-003  0.1607864E+03  0.7818608E-02  0.1251367E+00
         11   -1    0    0    0    0  0.00000000000E+00  0.00000000000E+00  0.10000510200E+04  0.10000510200E+04  0.51100000000E-03 0. -1.
          2   -1    0    0  501    0 -0.00000000000E+00 -0.00000000000E+00 -0.45568270440E+02  0.45568270511E+02  0.25500000000E-02 0. -1.
         11    1    1    2    0    0 -0.24531305942E+02  0.15599400644E+03  0.46453433945E+03  0.49064046669E+03  0.51100000000E-03 0. -1.
         22    1    1    2    0    0 -0.81433975688E+02 -0.12758588212E+02  0.16131379497E+03  0.18115301382E+03  0.00000000000E+00 0. -1.
          2    1    1    2  501    0  0.10596528163E+03 -0.14323541823E+03  0.32863461509E+03  0.37382580995E+03  0.25500000000E-02 0. -1.
<mgrwt>
<rscale>  0 0.11512256E+03</rscale>
<asrwt>0</asrwt>
<pdfrwt beam="1">  1       11 0.10000000E+01 0.16078641E+03</pdfrwt>
<pdfrwt beam="2">  1        2 0.70108606E-02 0.11512256E+03</pdfrwt>
<totfact> 0.11716601E+03</totfact>
</mgrwt>
</event>
<event>
 5    1  0.1851087E-003  0.4420420E+03  0.7818608E-02  0.1030122E+00
         11   -1    0    0    0    0  0.00000000000E+00  0.00000000000E+00  0.10002953811E+04  0.10002953811E+04  0.51100000000E-03 0. -1.
         -2   -1    0    0    0  501 -0.00000000000E+00 -0.00000000000E+00 -0.27357110795E+03  0.27357110796E+03  0.25500000000E-02 0.  1.
         11    1    1    2    0    0  0.32355117147E+03  0.29427152669E+03  0.70705251238E+03  0.83138700209E+03  0.51100000000E-03 0. -1.
         22    1    1    2    0    0 -0.14861665715E+02 -0.28174431913E+01  0.94108938009E+01  0.17814938004E+02  0.00000000000E+00 0.  1.
         -2    1    1    2    0  501 -0.30868950575E+03 -0.29145408350E+03  0.10260866962E+02  0.42466454896E+03  0.25500000000E-02 0.  1.
<mgrwt>
<rscale>  0 0.44204199E+03</rscale>
<asrwt>0</asrwt>
<pdfrwt beam="1">  1       11 0.10000000E+01 0.43735694E+03</pdfrwt>
<pdfrwt beam="2">  1       -2 0.42100294E-01 0.44204199E+03</pdfrwt>
<totfact> 0.43606287E+01</totfact>
</mgrwt>
</event>
<event>
 5    1  0.1851087E-003  0.3098870E+03  0.7818608E-02  0.1080400E+00
         11   -1    0    0    0    0  0.00000000000E+00  0.00000000000E+00  0.99958601709E+03  0.99958601709E+03  0.51100000000E-03 0. -1.
          2   -1    0    0  501    0 -0.00000000000E+00 -0.00000000000E+00 -0.95901750658E+02  0.95901750692E+02  0.25500000000E-02 0. -1.
         11    1    1    2    0    0  0.19519854130E+03 -0.23398937107E+03  0.51492606362E+03  0.59833297360E+03  0.51100000000E-03 0. -1.
         22    1    1    2    0    0 -0.53769670556E+02  0.44046337866E+02  0.58989448501E+02  0.91164754075E+02  0.00000000000E+00 0. -1.
          2    1    1    2  501    0 -0.14142887075E+03  0.18994303320E+03  0.32976875431E+03  0.40599004011E+03  0.25500000000E-02 0. -1.
<mgrwt>
<rscale>  0 0.30988699E+03</rscale>
<asrwt>0</asrwt>
<pdfrwt beam="1">  1       11 0.10000000E+01 0.30471872E+03</pdfrwt>
<pdfrwt beam="2">  1        2 0.14748007E-01 0.30988699E+03</pdfrwt>
<totfact> 0.49251256E+02</totfact>
</mgrwt>
</event>
<event>
 5    1  0.1851087E-003  0.1847974E+03  0.7818608E-02  0.1282767E+00
         11   -1    0    0    0    0  0.00000000000E+00  0.00000000000E+00  0.10004650079E+04  0.10004650079E+04  0.51100000000E-03 0.  1.
          2   -1    0    0  501    0 -0.00000000000E+00 -0.00000000000E+00 -0.28011130768E+03  0.28011130769E+03  0.25500000000E-02 0.  1.
         11    1    1    2    0    0  0.13947265077E+03 -0.12667326896E+03  0.93969955510E+03  0.95840179008E+03  0.51100000000E-03 0.  1.
         22    1    1    2    0    0 -0.12294700950E+03  0.29230346493E+02 -0.16966128859E+03  0.21155456305E+03  0.00000000000E+00 0.  1.
          2    1    1    2  501    0 -0.16525641270E+02  0.97442922462E+02 -0.49684566304E+02  0.11061996245E+03  0.25500000000E-02 0.  1.
<mgrwt>
<rscale>  0 0.98834306E+02</rscale>
<asrwt>0</asrwt>
<pdfrwt beam="1">  1       11 0.10000000E+01 0.18479739E+03</pdfrwt>
<pdfrwt beam="2">  1        2 0.43114085E-01 0.98834306E+02</pdfrwt>
<totfact> 0.14519916E+02</totfact>
</mgrwt>
</event>
<event>
 5    1  0.1851087E-003  0.4659980E+02  0.7818608E-02  0.1538310E+00
         11   -1    0    0    0    0  0.00000000000E+00  0.00000000000E+00  0.99993841797E+03  0.99993841797E+03  0.51100000000E-03 0. -1.
          2   -1    0    0  501    0 -0.00000000000E+00 -0.00000000000E+00 -0.64567040248E+01  0.64567045284E+01  0.25500000000E-02 0. -1.
         11    1    1    2    0    0 -0.66939855161E+02  0.59011888269E+00  0.29526700856E+03  0.30276046438E+03  0.51100000000E-03 0. -1.
         22    1    1    2    0    0  0.25771137512E+02  0.11201257331E+02  0.99541340042E+02  0.10343161060E+03  0.00000000000E+00 0. -1.
          2    1    1    2  501    0  0.41168717650E+02 -0.11791376214E+02  0.59867336534E+03  0.60020304751E+03  0.25500000000E-02 0. -1.
<mgrwt>
<rscale>  0 0.36186488E+02</rscale>
<asrwt>0</asrwt>
<pdfrwt beam="1">  1       11 0.10000000E+01 0.46599805E+02</pdfrwt>
<pdfrwt beam="2">  1        2 0.99327792E-03 0.36186488E+02</pdfrwt>
<totfact> 0.13078408E+04</totfact>
</mgrwt>
</event>
<event>
 5    1  0.1851087E-003  0.1846895E+03  0.7818608E-02  0.1163340E+00
         11   -1    0    0    0    0  0.00000000000E+00  0.00000000000E+00  0.10000245893E+04  0.10000245893E+04  0.51100000000E-03 0.  1.
          2   -1    0    0  501    0 -0.00000000000E+00 -0.00000000000E+00 -0.34732885564E+02  0.34732885658E+02  0.25500000000E-02 0.  1.
         11    1    1    2    0    0 -0.17634974592E+03  0.16247085935E+00  0.60076752684E+03  0.62611570862E+03  0.51100000000E-03 0.  1.
         22    1    1    2    0    0  0.10242157440E+03  0.24354900003E+02  0.18316039050E+03  0.21126066531E+03  0.00000000000E+00 0.  1.
          2    1    1    2  501    0  0.73928171521E+02 -0.24517370863E+02  0.18136378636E+03  0.19738110099E+03  0.25500000000E-02 0.  1.
<mgrwt>
<rscale>  0 0.18468952E+03</rscale>
<asrwt>0</asrwt>
<pdfrwt beam="1">  1       11 0.10000000E+01 0.17634982E+03</pdfrwt>
<pdfrwt beam="2">  1        2 0.53436521E-02 0.18468952E+03</pdfrwt>
<totfact> 0.17208059E+03</totfact>
</mgrwt>
</event>
<event>
 5    1  0.1851087E-003  0.1678632E+03  0.7818608E-02  0.1180095E+00
         11   -1    0    0    0    0  0.00000000000E+00  0.00000000000E+00  0.10000455808E+04  0.10000455808E+04  0.51100000000E-03 0. -1.
          2   -1    0    0  501    0 -0.00000000000E+00 -0.00000000000E+00 -0.42017953836E+02  0.42017953913E+02  0.25500000000E-02 0. -1.
         11    1    1    2    0    0 -0.12310457307E+03 -0.93582398196E+02  0.78838590315E+03  0.80340819852E+03  0.51100000000E-03 0. -1.
         22    1    1    2    0    0  0.50847284105E+02  0.77797976548E+02  0.81685890151E+02  0.12373583194E+03  0.00000000000E+00 0. -1.
          2    1    1    2  501    0  0.72257288963E+02  0.15784421648E+02  0.87955833641E+02  0.11491950423E+03  0.25500000000E-02 0. -1.
<mgrwt>
<rscale>  0 0.16786320E+03</rscale>
<asrwt>0</asrwt>
<pdfrwt beam="1">  1       11 0.10000000E+01 0.15463635E+03</pdfrwt>
<pdfrwt beam="2">  1        2 0.64645951E-02 0.16786320E+03</pdfrwt>
<totfact> 0.13345221E+03</totfact>
</mgrwt>
</event>
<event>
 5    1  0.1851087E-003  0.2594125E+02  0.7818608E-02  0.1823563E+00
         11   -1    0    0    0    0  0.00000000000E+00  0.00000000000E+00  0.10003185793E+04  0.10003185793E+04  0.51100000000E-03 0. -1.
          2   -1    0    0  501    0 -0.00000000000E+00 -0.00000000000E+00 -0.35325395945E+01  0.35325405149E+01  0.25500000000E-02 0. -1.
         11    1    1    2    0    0 -0.48063412652E+01  0.33151683720E+02  0.96506087331E+02  0.10215458845E+03  0.51100000000E-03 0. -1.
         22    1    1    2    0    0  0.71845988681E+01 -0.77761841011E+01  0.53736654131E+02  0.54769658547E+02  0.00000000000E+00 0. -1.
          2    1    1    2  501    0 -0.23782576029E+01 -0.25375499619E+02  0.84654329823E+03  0.84692687280E+03  0.25500000000E-02 0. -1.
<mgrwt>
<rscale>  0 0.16572370E+02</rscale>
<asrwt>0</asrwt>
<pdfrwt beam="1">  1       11 0.10000000E+01 0.25941248E+02</pdfrwt>
<pdfrwt beam="2">  1        2 0.54364082E-03 0.16572370E+02</pdfrwt>
<totfact> 0.23903199E+04</totfact>
</mgrwt>
</event>
<event>
 5    1  0.1851087E-003  0.1469109E+03  0.7818608E-02  0.1520665E+00
         11   -1    0    0    0    0  0.00000000000E+00  0.00000000000E+00  0.10000935321E+04  0.10000935321E+04  0.51100000000E-03 0.  1.
         -2   -1    0    0    0  501 -0.00000000000E+00 -0.00000000000E+00 -0.45335801131E+02  0.45335801202E+02  0.25500000000E-02 0.  1.
         11    1    1    2    0    0 -0.31306291935E+02 -0.14210312915E+03  0.81347382055E+03  0.82638552744E+03  0.51100000000E-03 0.  1.
         22    1    1    2    0    0  0.28350783684E+01 -0.96047582434E+01  0.34080779716E+00  0.10020239529E+02  0.00000000000E+00 0.  1.
         -2    1    1    2    0  501  0.28471213567E+02  0.15170788740E+03  0.14094310260E+03  0.20902356632E+03  0.25500000000E-02 0.  1.
<mgrwt>
<rscale>  0 0.38356622E+02</rscale>
<asrwt>0</asrwt>
<pdfrwt beam="1">  1       11 0.10000000E+01 0.14691087E+03</pdfrwt>
<pdfrwt beam="2">  1       -2 0.69753908E-02 0.38356622E+02</pdfrwt>
<totfact> 0.79660482E+02</totfact>
</mgrwt>
</event>
<event>
 5    1  0.2711076E-003  0.2418000E+03  0.7818608E-02  0.1118599E+00
         11   -1    0    0    0    0  0.00000000000E+00  0.00000000000E+00  0.99993261194E+03  0.99993261194E+03  0.51100000000E-03 0.  1.
         -2   -1    0    0    0  501 -0.00000000000E+00 -0.00000000000E+00 -0.37039566222E+03  0.37039566223E+03  0.25500000000E-02 0. -1.
         11    1    1    2    0    0  0.85756787876E+02  0.22448827676E+03  0.94373993710E+03  0.97385537013E+03  0.51100000000E-03 0.  1.
         22    1    1    2    0    0  0.10366313614E+01 -0.15089737158E+02 -0.19967792169E+02  0.25049700521E+02  0.00000000000E+00 0.  1.
         -2    1    1    2    0  501 -0.86793419237E+02 -0.20939853960E+03 -0.29423519521E+03  0.37142320352E+03  0.25500000000E-02 0. -1.
<mgrwt>
<rscale>  0 0.24180001E+03</rscale>
<asrwt>0</asrwt>
<pdfrwt beam="1">  1       11 0.10000000E+01 0.24031066E+03</pdfrwt>
<pdfrwt beam="2">  1       -2 0.56980106E-01 0.24180001E+03</pdfrwt>
<totfact> 0.23881882E+01</totfact>
</mgrwt>
</event>
<event>
 5    1  0.1851087E-003  0.8466582E+02  0.7818608E-02  0.1607566E+00
         11   -1    0    0    0    0  0.00000000000E+00  0.00000000000E+00  0.10002036562E+04  0.10002036562E+04  0.51100000000E-03 0.  1.
          2   -1    0    0  501    0 -0.00000000000E+00 -0.00000000000E+00 -0.10135833902E+02  0.10135834223E+02  0.25500000000E-02 0.  1.
         11    1    1    2    0    0 -0.90417411968E+02  0.76203801601E+00  0.47255957155E+03  0.48113245344E+03  0.51100000000E-03 0.  1.
         22    1    1    2    0    0  0.77281792553E+02  0.25271609186E+02  0.39414868312E+03  0.40244790233E+03  0.00000000000E+00 0.  1.
          2    1    1    2  501    0  0.13135619414E+02 -0.26033647202E+02  0.12335956759E+03  0.12675913461E+03  0.25500000000E-02 0.  1.
<mgrwt>
<rscale>  0 0.29159823E+02</rscale>
<asrwt>0</asrwt>
<pdfrwt beam="1">  1       11 0.10000000E+01 0.84665822E+02</pdfrwt>
<pdfrwt beam="2">  1        2 0.15596766E-02 0.29159823E+02</pdfrwt>
<totfact> 0.69272824E+03</totfact>
</mgrwt>
</event>
<event>
 5    1  0.1851087E-003  0.2384472E+03  0.7818608E-02  0.1120832E+00
         11   -1    0    0    0    0  0.00000000000E+00  0.00000000000E+00  0.10001840271E+04  0.10001840271E+04  0.51100000000E-03 0.  1.
          2   -1    0    0  501    0 -0.00000000000E+00 -0.00000000000E+00 -0.25976149578E+03  0.25976149579E+03  0.25500000000E-02 0.  1.
         11    1    1    2    0    0 -0.22463871828E+03 -0.27026089255E+01  0.92910280691E+03  0.95587754637E+03  0.51100000000E-03 0.  1.
         22    1    1    2    0    0  0.12217009188E+03  0.20490689437E+02 -0.57247721590E+02  0.13646501870E+03  0.00000000000E+00 0. -1.
          2    1    1    2  501    0  0.10246862640E+03 -0.17788080512E+02 -0.13143255402E+03  0.16760295781E+03  0.25500000000E-02 0.  1.
<mgrwt>
<rscale>  0 0.23844724E+03</rscale>
<asrwt>0</asrwt>
<pdfrwt beam="1">  1       11 0.10000000E+01 0.22465498E+03</pdfrwt>
<pdfrwt beam="2">  1        2 0.39970660E-01 0.23844724E+03</pdfrwt>
<totfact> 0.15846339E+02</totfact>
</mgrwt>
</event>
<event>
 5    1  0.1851087E-003  0.8680920E+02  0.7818608E-02  0.1310768E+00
         11   -1    0    0    0    0  0.00000000000E+00  0.00000000000E+00  0.10004811384E+04  0.10004811384E+04  0.51100000000E-03 0. -1.
          2   -1    0    0  501    0 -0.00000000000E+00 -0.00000000000E+00 -0.75883088173E+01  0.75883092457E+01  0.25500000000E-02 0. -1.
         11    1    1    2    0    0 -0.87416779359E+01  0.83502095657E+02  0.38804596488E+03  0.39702479491E+03  0.51100000000E-03 0. -1.
         22    1    1    2    0    0  0.90661896609E+01 -0.18045824250E+02  0.10442206891E+03  0.10635702160E+03  0.00000000000E+00 0.  1.
          2    1    1    2  501    0 -0.32451172495E+00 -0.65456271407E+02  0.50042479583E+03  0.50468763117E+03  0.25500000000E-02 0. -1.
<mgrwt>
<rscale>  0 0.86809204E+02</rscale>
<asrwt>0</asrwt>
<pdfrwt beam="1">  1       11 0.10000000E+01 0.83958466E+02</pdfrwt>
<pdfrwt beam="2">  1        2 0.11679938E-02 0.86809204E+02</pdfrwt>
<totfact> 0.12260201E+04</totfact>
</mgrwt>
</event>
<event>
 5    1  0.1851087E-003  0.1403628E+03  0.7818608E-02  0.1212842E+00
         11   -1    0    0    0    0  0.00000000000E+00  0.00000000000E+00  0.10002551825E+04  0.10002551825E+04  0.51100000000E-03 0. -1.
          2   -1    0    0  501    0 -0.00000000000E+00 -0.00000000000E+00 -0.23301331373E+02  0.23301331513E+02  0.25500000000E-02 0. -1.
         11    1    1    2    0    0 -0.94872758192E+02 -0.85372285261E+02  0.71563308342E+03  0.72692501500E+03  0.51100000000E-03 0. -1.
         22    1    1    2    0    0  0.70952749261E+02  0.53282175545E+02  0.11686483163E+03  0.14673333544E+03  0.00000000000E+00 0. -1.
          2    1    1    2  501    0  0.23920008931E+02  0.32090109716E+02  0.14445593606E+03  0.14989816356E+03  0.25500000000E-02 0. -1.
<mgrwt>
<rscale>  0 0.14036275E+03</rscale>
<asrwt>0</asrwt>
<pdfrwt beam="1">  1       11 0.10000000E+01 0.12762941E+03</pdfrwt>
<pdfrwt beam="2">  1        2 0.35857349E-02 0.14036275E+03</pdfrwt>
<totfact> 0.28507307E+03</totfact>
</mgrwt>
</event>
<event>
 5    1  0.1851087E-003  0.8922462E+02  0.7818608E-02  0.1428615E+00
         11   -1    0    0    0    0  0.00000000000E+00  0.00000000000E+00  0.10001612055E+04  0.10001612055E+04  0.51100000000E-03 0. -1.
          2   -1    0    0  501    0 -0.00000000000E+00 -0.00000000000E+00 -0.19111753211E+02  0.19111753381E+02  0.25500000000E-02 0. -1.
         11    1    1    2    0    0 -0.32636854830E+02  0.95166112916E+02  0.50726932959E+03  0.51714981009E+03  0.51100000000E-03 0. -1.
         22    1    1    2    0    0 -0.15059155972E+02 -0.27970746105E+02  0.13485526600E+02  0.34510871388E+02  0.00000000000E+00 0.  1.
          2    1    1    2  501    0  0.47696010802E+02 -0.67195366811E+02  0.46029459609E+03  0.46761227739E+03  0.25500000000E-02 0. -1.
<mgrwt>
<rscale>  0 0.53239036E+02</rscale>
<asrwt>0</asrwt>
<pdfrwt beam="1">  1       11 0.10000000E+01 0.89224617E+02</pdfrwt>
<pdfrwt beam="2">  1        2 0.29407436E-02 0.53239036E+02</pdfrwt>
<totfact> 0.33265296E+03</totfact>
</mgrwt>
</event>
<event>
 5    1  0.1851087E-003  0.1425982E+03  0.7818608E-02  0.1209875E+00
         11   -1    0    0    0    0  0.00000000000E+00  0.00000000000E+00  0.10002017010E+04  0.10002017010E+04  0.51100000000E-03 0. -1.
          2   -1    0    0  501    0 -0.00000000000E+00 -0.00000000000E+00 -0.31112491414E+02  0.31112491519E+02  0.25500000000E-02 0.  1.
         11    1    1    2    0    0 -0.12061367263E+03 -0.55289478003E+02  0.79631787604E+03  0.80729594580E+03  0.51100000000E-03 0. -1.
         22    1    1    2    0    0  0.54422267417E+02  0.52874922689E+02  0.83005171398E+02  0.11246065587E+03  0.00000000000E+00 0.  1.
          2    1    1    2  501    0  0.66191405211E+02  0.24145553136E+01  0.89766162114E+02  0.11155759081E+03  0.25500000000E-02 0.  1.
<mgrwt>
<rscale>  0 0.14259818E+03</rscale>
<asrwt>0</asrwt>
<pdfrwt beam="1">  1       11 0.10000000E+01 0.13268227E+03</pdfrwt>
<pdfrwt beam="2">  1        2 0.47875025E-02 0.14259818E+03</pdfrwt>
<totfact> 0.19476084E+03</totfact>
</mgrwt>
</event>
<event>
 5    1  0.1851087E-003  0.2426277E+03  0.7818608E-02  0.1118055E+00
         11   -1    0    0    0    0  0.00000000000E+00  0.00000000000E+00  0.10000964720E+04  0.10000964720E+04  0.51100000000E-03 0. -1.
          2   -1    0    0  501    0 -0.00000000000E+00 -0.00000000000E+00 -0.92757453861E+02  0.92757453896E+02  0.25500000000E-02 0. -1.
         11    1    1    2    0    0 -0.21773041509E+03 -0.73748398216E+02  0.79109241003E+03  0.82381585388E+03  0.51100000000E-03 0. -1.
         22    1    1    2    0    0  0.52939966978E+02  0.36609735695E+01 -0.41875816726E+01  0.53231369242E+02  0.00000000000E+00 0. -1.
          2    1    1    2  501    0  0.16479044811E+03  0.70087424647E+02  0.12043418974E+03  0.21580670274E+03  0.25500000000E-02 0. -1.
<mgrwt>
<rscale>  0 0.24262772E+03</rscale>
<asrwt>0</asrwt>
<pdfrwt beam="1">  1       11 0.10000000E+01 0.22988119E+03</pdfrwt>
<pdfrwt beam="2">  1        2 0.14271754E-01 0.24262772E+03</pdfrwt>
<totfact> 0.50781516E+02</totfact>
</mgrwt>
</event>
<event>
 5    1  0.1851087E-003  0.6872172E+03  0.7818608E-02  0.9739346E-01
         11   -1    0    0    0    0  0.00000000000E+00  0.00000000000E+00  0.10003739250E+04  0.10003739250E+04  0.51100000000E-03 0. -1.
          2   -1    0    0  501    0 -0.00000000000E+00 -0.00000000000E+00 -0.69491056452E+03  0.69491056452E+03  0.25500000000E-02 0. -1.
         11    1    1    2    0    0  0.21017134824E+03 -0.67996616164E+03  0.22278896310E+02  0.71205500196E+03  0.51100000000E-03 0. -1.
         22    1    1    2    0    0  0.21408816422E+03  0.14496463261E+03  0.68531592828E+02  0.26747909448E+03  0.00000000000E+00 0. -1.
          2    1    1    2  501    0 -0.42425951246E+03  0.53500152903E+03  0.21465287131E+03  0.71575039304E+03  0.25500000000E-02 0. -1.
<mgrwt>
<rscale>  0 0.68721721E+03</rscale>
<asrwt>0</asrwt>
<pdfrwt beam="1">  1       11 0.10000000E+01 0.25855074E+03</pdfrwt>
<pdfrwt beam="2">  1        2 0.10694929E+00 0.68721721E+03</pdfrwt>
<totfact> 0.51373875E+01</totfact>
</mgrwt>
</event>
<event>
 5    1  0.1851087E-003  0.1142316E+03  0.7818608E-02  0.1729369E+00
         11   -1    0    0    0    0  0.00000000000E+00  0.00000000000E+00  0.10000585773E+04  0.10000585773E+04  0.51100000000E-03 0.  1.
          2   -1    0    0  501    0 -0.00000000000E+00 -0.00000000000E+00 -0.18645030843E+02  0.18645031018E+02  0.25500000000E-02 0.  1.
         11    1    1    2    0    0  0.34310329387E+02  0.10366002070E+03  0.39653015034E+03  0.41128914248E+03  0.51100000000E-03 0.  1.
         22    1    1    2    0    0 -0.54267957071E+02 -0.10961382746E+03  0.33440120239E+03  0.35606792399E+03  0.00000000000E+00 0.  1.
          2    1    1    2  501    0  0.19957627684E+02  0.59538067619E+01  0.25048219371E+03  0.25134654183E+03  0.25500000000E-02 0.  1.
<mgrwt>
<rscale>  0 0.20826779E+02</rscale>
<asrwt>0</asrwt>
<pdfrwt beam="1">  1       11 0.10000000E+01 0.11423157E+03</pdfrwt>
<pdfrwt beam="2">  1        2 0.28686342E-02 0.20826779E+02</pdfrwt>
<totfact> 0.29872195E+03</totfact>
</mgrwt>
</event>
<event>
 5    1  0.1851087E-003  0.1580688E+03  0.7818608E-02  0.1190895E+00
         11   -1    0    0    0    0  0.00000000000E+00  0.00000000000E+00  0.10001970257E+04  0.10001970257E+04  0.51100000000E-03 0. -1.
          2   -1    0    0  501    0 -0.00000000000E+00 -0.00000000000E+00 -0.24852890569E+02  0.24852890700E+02  0.25500000000E-02 0. -1.
         11    1    1    2    0    0  0.49578019930E+02  0.14788144834E+03  0.43817474446E+03  0.46510644965E+03  0.51100000000E-03 0. -1.
         22    1    1    2    0    0 -0.14955604739E+02 -0.20941645659E+02  0.10994777998E+03  0.11291916117E+03  0.00000000000E+00 0.  1.
          2    1    1    2  501    0 -0.34622415190E+02 -0.12693980268E+03  0.42722161072E+03  0.44702430561E+03  0.25500000000E-02 0. -1.
<mgrwt>
<rscale>  0 0.15806876E+03</rscale>
<asrwt>0</asrwt>
<pdfrwt beam="1">  1       11 0.10000000E+01 0.15597092E+03</pdfrwt>
<pdfrwt beam="2">  1        2 0.38242749E-02 0.15806876E+03</pdfrwt>
<totfact> 0.26448416E+03</totfact>
</mgrwt>
</event>
<event>
 5    1  0.1851087E-003  0.1281416E+03  0.7818608E-02  0.1230240E+00
         11   -1    0    0    0    0  0.00000000000E+00  0.00000000000E+00  0.10000553484E+04  0.10000553484E+04  0.51100000000E-03 0. -1.
          2   -1    0    0  501    0 -0.00000000000E+00 -0.00000000000E+00 -0.18890359848E+02  0.18890360020E+02  0.25500000000E-02 0. -1.
         11    1    1    2    0    0 -0.11247923783E+03 -0.43162460165E+02  0.69548820368E+03  0.70584588854E+03  0.51100000000E-03 0. -1.
         22    1    1    2    0    0  0.54968462187E+02  0.38607361535E+02  0.18822733668E+03  0.19985392284E+03  0.00000000000E+00 0. -1.
          2    1    1    2  501    0  0.57510775643E+02  0.45550986306E+01  0.97449448214E+02  0.11324589707E+03  0.25500000000E-02 0. -1.
<mgrwt>
<rscale>  0 0.12814161E+03</rscale>
<asrwt>0</asrwt>
<pdfrwt beam="1">  1       11 0.10000000E+01 0.12047646E+03</pdfrwt>
<pdfrwt beam="2">  1        2 0.29063700E-02 0.12814161E+03</pdfrwt>
<totfact> 0.37426758E+03</totfact>
</mgrwt>
</event>
<event>
 5    1  0.1851087E-003  0.1277372E+03  0.7818608E-02  0.1271533E+00
         11   -1    0    0    0    0  0.00000000000E+00  0.00000000000E+00  0.10003636028E+04  0.10003636028E+04  0.51100000000E-03 0.  1.
          2   -1    0    0  501    0 -0.00000000000E+00 -0.00000000000E+00 -0.39622096640E+02  0.39622096722E+02  0.25500000000E-02 0.  1.
         11    1    1    2    0    0  0.18005196530E+02  0.18168541516E+03  0.56254038632E+03  0.59142663402E+03  0.51100000000E-03 0.  1.
         22    1    1    2    0    0 -0.20241747012E+02 -0.82698534940E+02  0.85925934036E+02  0.12096297840E+03  0.00000000000E+00 0.  1.
          2    1    1    2  501    0  0.22365504823E+01 -0.98986880216E+02  0.31227518583E+03  0.32759608713E+03  0.25500000000E-02 0.  1.
<mgrwt>
<rscale>  0 0.10428572E+03</rscale>
<asrwt>0</asrwt>
<pdfrwt beam="1">  1       11 0.10000000E+01 0.12773725E+03</pdfrwt>
<pdfrwt beam="2">  1        2 0.60979234E-02 0.10428572E+03</pdfrwt>
<totfact> 0.13883295E+03</totfact>
</mgrwt>
</event>
<event>
 5    1  0.1851087E-003  0.1665143E+03  0.7818608E-02  0.1181532E+00
         11   -1    0    0    0    0  0.00000000000E+00  0.00000000000E+00  0.99997008156E+03  0.99997008156E+03  0.51100000000E-03 0. -1.
         -2   -1    0    0    0  501 -0.00000000000E+00 -0.00000000000E+00 -0.27503798119E+02  0.27503798237E+02  0.25500000000E-02 0.  1.
         11    1    1    2    0    0 -0.14827619531E+03  0.16742486035E+02  0.61926713747E+03  0.63699130958E+03  0.51100000000E-03 0. -1.
         22    1    1    2    0    0  0.98702093833E+02  0.20427433957E+02  0.25696905710E+03  0.27602985290E+03  0.00000000000E+00 0.  1.
         -2    1    1    2    0  501  0.49574101481E+02 -0.37169919992E+02  0.96230088868E+02  0.11445271731E+03  0.25500000000E-02 0.  1.
<mgrwt>
<rscale>  0 0.16651427E+03</rscale>
<asrwt>0</asrwt>
<pdfrwt beam="1">  1       11 0.10000000E+01 0.14921843E+03</pdfrwt>
<pdfrwt beam="2">  1       -2 0.42312268E-02 0.16651427E+03</pdfrwt>
<totfact> 0.19319166E+03</totfact>
</mgrwt>
</event>
<event>
 5    1  0.1851087E-003  0.1670793E+03  0.7818608E-02  0.1267832E+00
         11   -1    0    0    0    0  0.00000000000E+00  0.00000000000E+00  0.10001637231E+04  0.10001637231E+04  0.51100000000E-03 0. -1.
         -2   -1    0    0    0  501 -0.00000000000E+00 -0.00000000000E+00 -0.21139171762E+03  0.21139171763E+03  0.25500000000E-02 0.  1.
         11    1    1    2    0    0 -0.12857890904E+03 -0.11183726036E+03  0.91548301075E+03  0.93120848988E+03  0.51100000000E-03 0. -1.
         22    1    1    2    0    0  0.26159825674E+02  0.13980747667E+03 -0.88453093460E+02  0.16749452754E+03  0.00000000000E+00 0.  1.
         -2    1    1    2    0  501  0.10241908336E+03 -0.27970216313E+02 -0.38257911764E+02  0.11285242335E+03  0.25500000000E-02 0.  1.
<mgrwt>
<rscale>  0 0.10616968E+03</rscale>
<asrwt>0</asrwt>
<pdfrwt beam="1">  1       11 0.10000000E+01 0.16707933E+03</pdfrwt>
<pdfrwt beam="2">  1       -2 0.32527126E-01 0.10616968E+03</pdfrwt>
<totfact> 0.70191625E+01</totfact>
</mgrwt>
</event>
<event>
 5    1  0.1851087E-003  0.2033377E+03  0.7818608E-02  0.1146953E+00
         11   -1    0    0    0    0  0.00000000000E+00  0.00000000000E+00  0.10003424625E+04  0.10003424625E+04  0.51100000000E-03 0. -1.
          2   -1    0    0  501    0 -0.00000000000E+00 -0.00000000000E+00 -0.90927995770E+02  0.90927995806E+02  0.25500000000E-02 0. -1.
         11    1    1    2    0    0 -0.19378832709E+03 -0.43102872336E+02  0.85918265361E+03  0.88182005283E+03  0.51100000000E-03 0. -1.
         22    1    1    2    0    0  0.64206901254E+02  0.26579581161E+02 -0.10275113600E-01  0.69491009555E+02  0.00000000000E+00 0. -1.
          2    1    1    2  501    0  0.12958142583E+03  0.16523291175E+02  0.50242088252E+02  0.13995939593E+03  0.25500000000E-02 0. -1.
<mgrwt>
<rscale>  0 0.20333774E+03</rscale>
<asrwt>0</asrwt>
<pdfrwt beam="1">  1       11 0.10000000E+01 0.19852399E+03</pdfrwt>
<pdfrwt beam="2">  1        2 0.13993713E-01 0.20333774E+03</pdfrwt>
<totfact> 0.51635196E+02</totfact>
</mgrwt>
</event>
<event>
 5    1  0.1851087E-003  0.1759363E+03  0.7818608E-02  0.1171795E+00
         11   -1    0    0    0    0  0.00000000000E+00  0.00000000000E+00  0.10000176062E+04  0.10000176062E+04  0.51100000000E-03 0. -1.
          2   -1    0    0  501    0 -0.00000000000E+00 -0.00000000000E+00 -0.91387536463E+03  0.91387536463E+03  0.25500000000E-02 0. -1.
         11    1    1    2    0    0  0.17073931673E+03  0.28840857854E+02  0.98391894989E+03  0.99903964352E+03  0.51100000000E-03 0. -1.
         22    1    1    2    0    0 -0.28528242747E+02 -0.10747080899E+02 -0.11036293134E+03  0.11449601302E+03  0.00000000000E+00 0.  1.
          2    1    1    2  501    0 -0.14221107398E+03 -0.18093776955E+02 -0.78741377699E+03  0.80035731429E+03  0.25500000000E-02 0. -1.
<mgrwt>
<rscale>  0 0.17593633E+03</rscale>
<asrwt>0</asrwt>
<pdfrwt beam="1">  1       11 0.10000000E+01 0.17315805E+03</pdfrwt>
<pdfrwt beam="2">  1        2 0.14059868E+00 0.17593633E+03</pdfrwt>
<totfact> 0.37908133E+01</totfact>
</mgrwt>
</event>
<event>
 5    1  0.1851087E-003  0.6571275E+02  0.7818608E-02  0.1487768E+00
         11   -1    0    0    0    0  0.00000000000E+00  0.00000000000E+00  0.10002342156E+04  0.10002342156E+04  0.51100000000E-03 0.  1.
          2   -1    0    0  501    0 -0.00000000000E+00 -0.00000000000E+00 -0.90557579570E+01  0.90557583161E+01  0.25500000000E-02 0. -1.
         11    1    1    2    0    0  0.30386841706E+02  0.72899951726E+02  0.43499019917E+03  0.44210206569E+03  0.51100000000E-03 0.  1.
         22    1    1    2    0    0  0.82199023860E+01 -0.54150257804E+02  0.16959972260E+03  0.17822424953E+03  0.00000000000E+00 0.  1.
          2    1    1    2  501    0 -0.38606744092E+02 -0.18749693922E+02  0.38658853588E+03  0.38896365871E+03  0.25500000000E-02 0. -1.
<mgrwt>
<rscale>  0 0.42918897E+02</rscale>
<asrwt>0</asrwt>
<pdfrwt beam="1">  1       11 0.10000000E+01 0.65712749E+02</pdfrwt>
<pdfrwt beam="2">  1        2 0.13935198E-02 0.42918897E+02</pdfrwt>
<totfact> 0.86151607E+03</totfact>
</mgrwt>
</event>
<event>
 5    1  0.1851087E-003  0.3324947E+03  0.7818608E-02  0.1070038E+00
         11   -1    0    0    0    0  0.00000000000E+00  0.00000000000E+00  0.10003739726E+04  0.10003739726E+04  0.51100000000E-03 0. -1.
          2   -1    0    0  501    0 -0.00000000000E+00 -0.00000000000E+00 -0.13479171240E+03  0.13479171243E+03  0.25500000000E-02 0. -1.
         11    1    1    2    0    0 -0.25006806320E+03 -0.21507063986E+03  0.67660953315E+03  0.75272164624E+03  0.51100000000E-03 0. -1.
         22    1    1    2    0    0  0.26336239155E+02  0.11892909558E+02  0.72357194967E+01  0.29789166272E+02  0.00000000000E+00 0.  1.
          2    1    1    2  501    0  0.22373182405E+03  0.20317773031E+03  0.18173700752E+03  0.35265487249E+03  0.25500000000E-02 0. -1.
<mgrwt>
<rscale>  0 0.33249474E+03</rscale>
<asrwt>0</asrwt>
<pdfrwt beam="1">  1       11 0.10000000E+01 0.32983241E+03</pdfrwt>
<pdfrwt beam="2">  1        2 0.20744941E-01 0.33249474E+03</pdfrwt>
<totfact> 0.33040700E+02</totfact>
</mgrwt>
</event>
<event>
 5    1  0.1851087E-003  0.1743032E+03  0.7818608E-02  0.1173433E+00
         11   -1    0    0    0    0  0.00000000000E+00  0.00000000000E+00  0.10005132135E+04  0.10005132135E+04  0.51100000000E-03 0.  1.
          2   -1    0    0  501    0 -0.00000000000E+00 -0.00000000000E+00 -0.40440244968E+03  0.40440244969E+03  0.25500000000E-02 0.  1.
         11    1    1    2    0    0 -0.32099635063E+02 -0.15833161779E+03  0.97476913204E+03  0.98806586246E+03  0.51100000000E-03 0.  1.
         22    1    1    2    0    0 -0.15345558504E+02  0.37155197280E+02 -0.55978607002E+02  0.68917336662E+02  0.00000000000E+00 0.  1.
          2    1    1    2  501    0  0.47445193567E+02  0.12117642051E+03 -0.32267976120E+03  0.34793246410E+03  0.25500000000E-02 0.  1.
<mgrwt>
<rscale>  0 0.17430317E+03</rscale>
<asrwt>0</asrwt>
<pdfrwt beam="1">  1       11 0.10000000E+01 0.16155274E+03</pdfrwt>
<pdfrwt beam="2">  1        2 0.62247690E-01 0.17430317E+03</pdfrwt>
<totfact> 0.98382985E+01</totfact>
</mgrwt>
</event>
<event>
 5    1  0.1851087E-003  0.2191925E+03  0.7818608E-02  0.1134487E+00
         11   -1    0    0    0    0  0.00000000000E+00  0.00000000000E+00  0.10001554075E+04  0.10001554075E+04  0.51100000000E-03 0. -1.
          2   -1    0    0  501    0 -0.00000000000E+00 -0.00000000000E+00 -0.71108421532E+02  0.71108421578E+02  0.25500000000E-02 0. -1.
         11    1    1    2    0    0 -0.34011153139E+02 -0.20988683961E+03  0.77426778908E+03  0.80293203522E+03  0.51100000000E-03 0. -1.
         22    1    1    2    0    0  0.10966700224E+02  0.39264879897E+02  0.68512128121E+01  0.41339308462E+02  0.00000000000E+00 0. -1.
          2    1    1    2  501    0  0.23044452915E+02  0.17062195971E+03  0.14792798408E+03  0.22699248540E+03  0.25500000000E-02 0. -1.
<mgrwt>
<rscale>  0 0.21919250E+03</rscale>
<asrwt>0</asrwt>
<pdfrwt beam="1">  1       11 0.10000000E+01 0.21262466E+03</pdfrwt>
<pdfrwt beam="2">  1        2 0.10941457E-01 0.21919250E+03</pdfrwt>
<totfact> 0.69810919E+02</totfact>
</mgrwt>
</event>
<event>
 5    1  0.1851087E-003  0.1603757E+03  0.7818608E-02  0.1430700E+00
         11   -1    0    0    0    0  0.00000000000E+00  0.00000000000E+00  0.10003387980E+04  0.10003387980E+04  0.51100000000E-03 0. -1.
          2   -1    0    0  501    0 -0.00000000000E+00 -0.00000000000E+00 -0.17353574243E+03  0.17353574245E+03  0.25500000000E-02 0.  1.
         11    1    1    2    0    0  0.77544237880E+02 -0.14141246720E+03  0.94906130878E+03  0.96266710889E+03  0.51100000000E-03 0. -1.
         22    1    1    2    0    0 -0.50965026013E+01  0.16632939220E+02 -0.43446164729E+02  0.46799553796E+02  0.00000000000E+00 0.  1.
          2    1    1    2  501    0 -0.72447735279E+02  0.12477952798E+03 -0.78812088532E+02  0.16440787772E+03  0.25500000000E-02 0.  1.
<mgrwt>
<rscale>  0 0.52819816E+02</rscale>
<asrwt>0</asrwt>
<pdfrwt beam="1">  1       11 0.10000000E+01 0.16037567E+03</pdfrwt>
<pdfrwt beam="2">  1        2 0.26706851E-01 0.52819816E+02</pdfrwt>
<totfact> 0.23720747E+02</totfact>
</mgrwt>
</event>
<event>
 5    1  0.1851087E-003  0.9428603E+02  0.7818608E-02  0.1490857E+00
         11   -1    0    0    0    0  0.00000000000E+00  0.00000000000E+00  0.99990078202E+03  0.99990078202E+03  0.51100000000E-03 0.  1.
          2   -1    0    0  501    0 -0.00000000000E+00 -0.00000000000E+00 -0.14112570504E+02  0.14112570735E+02  0.25500000000E-02 0.  1.
         11    1    1    2    0    0  0.43030566138E+02  0.87797592469E+02  0.50366635874E+03  0.51306904778E+03  0.51100000000E-03 0.  1.
         22    1    1    2    0    0  0.12380329008E+02 -0.14570982050E+02  0.13489689148E+02  0.23399952512E+02  0.00000000000E+00 0.  1.
          2    1    1    2  501    0 -0.55410895146E+02 -0.73226610419E+02  0.46863216363E+03  0.47754435246E+03  0.25500000000E-02 0.  1.
<mgrwt>
<rscale>  0 0.42459118E+02</rscale>
<asrwt>0</asrwt>
<pdfrwt beam="1">  1       11 0.10000000E+01 0.94286025E+02</pdfrwt>
<pdfrwt beam="2">  1        2 0.21709492E-02 0.42459118E+02</pdfrwt>
<totfact> 0.47921342E+03</totfact>
</mgrwt>
</event>
<event>
 5    1  0.1851087E-003  0.2124144E+03  0.7818608E-02  0.1139668E+00
         11   -1    0    0    0    0  0.00000000000E+00  0.00000000000E+00  0.10000454426E+04  0.10000454426E+04  0.51100000000E-03 0.  1.
          2   -1    0    0  501    0 -0.00000000000E+00 -0.00000000000E+00 -0.26475164964E+03  0.26475164966E+03  0.25500000000E-02 0. -1.
         11    1    1    2    0    0  0.14239054633E+03 -0.14514382382E+03  0.94480958230E+03  0.96644034689E+03  0.51100000000E-03 0.  1.
         22    1    1    2    0    0 -0.76475129559E+02  0.11891986147E+03 -0.14350684432E+03  0.20145618199E+03  0.00000000000E+00 0. -1.
          2    1    1    2  501    0 -0.65915416769E+02  0.26223962353E+02 -0.66008944978E+02  0.96900563430E+02  0.25500000000E-02 0. -1.
<mgrwt>
<rscale>  0 0.21241441E+03</rscale>
<asrwt>0</asrwt>
<pdfrwt beam="1">  1       11 0.10000000E+01 0.20332682E+03</pdfrwt>
<pdfrwt beam="2">  1        2 0.40732873E-01 0.21241441E+03</pdfrwt>
<totfact> 0.15514867E+02</totfact>
</mgrwt>
</event>
<event>
 5    1  0.6240188E-003  0.1666678E+03  0.7818608E-02  0.1181368E+00
         11   -1    0    0    0    0  0.00000000000E+00  0.00000000000E+00  0.10001322713E+04  0.10001322713E+04  0.51100000000E-03 0. -1.
         -2   -1    0    0    0  501 -0.00000000000E+00 -0.00000000000E+00 -0.77543641143E+03  0.77543641144E+03  0.25500000000E-02 0. -1.
         11    1    1    2    0    0 -0.14698927045E+03 -0.74812009596E+02  0.98423489715E+03  0.99795842357E+03  0.51100000000E-03 0. -1.
         22    1    1    2    0    0  0.23489099263E+02  0.59636159738E+01 -0.14530252313E+03  0.14730962538E+03  0.00000000000E+00 0.  1.
         -2    1    1    2    0  501  0.12350017119E+03  0.68848393622E+02 -0.61423651417E+03  0.63030063377E+03  0.25500000000E-02 0. -1.
<mgrwt>
<rscale>  0 0.16666783E+03</rscale>
<asrwt>0</asrwt>
<pdfrwt beam="1">  1       11 0.10000000E+01 0.16493236E+03</pdfrwt>
<pdfrwt beam="2">  1       -2 0.11931369E+00 0.16666783E+03</pdfrwt>
<totfact> 0.46633707E+00</totfact>
</mgrwt>
</event>
<event>
 5    1  0.1851087E-003  0.1603710E+03  0.7818608E-02  0.1188279E+00
         11   -1    0    0    0    0  0.00000000000E+00  0.00000000000E+00  0.10001110290E+04  0.10001110290E+04  0.51100000000E-03 0. -1.
         -2   -1    0    0    0  501 -0.00000000000E+00 -0.00000000000E+00 -0.63195291552E+02  0.63195291603E+02  0.25500000000E-02 0. -1.
         11    1    1    2    0    0  0.10568377043E+03  0.11701234803E+03  0.87864013403E+03  0.89267543601E+03  0.51100000000E-03 0. -1.
         22    1    1    2    0    0 -0.14174177224E+02 -0.33921623438E+02  0.12952760738E+02  0.38978941076E+02  0.00000000000E+00 0. -1.
         -2    1    1    2    0  501 -0.91509593211E+02 -0.83090724587E+02  0.45322842709E+02  0.13165194355E+03  0.25500000000E-02 0. -1.
<mgrwt>
<rscale>  0 0.16037099E+03</rscale>
<asrwt>0</asrwt>
<pdfrwt beam="1">  1       11 0.10000000E+01 0.15767355E+03</pdfrwt>
<pdfrwt beam="2">  1       -2 0.97234317E-02 0.16037099E+03</pdfrwt>
<totfact> 0.53883176E+02</totfact>
</mgrwt>
</event>
<event>
 5    1  0.1851087E-003  0.1577259E+03  0.7818608E-02  0.1531005E+00
         11   -1    0    0    0    0  0.00000000000E+00  0.00000000000E+00  0.10002600066E+04  0.10002600066E+04  0.51100000000E-03 0. -1.
          2   -1    0    0  501    0 -0.00000000000E+00 -0.00000000000E+00 -0.25250261007E+03  0.25250261008E+03  0.25500000000E-02 0. -1.
         11    1    1    2    0    0  0.96673261296E+02  0.12539678642E+03  0.93836193134E+03  0.95162660097E+03  0.51100000000E-03 0. -1.
         22    1    1    2    0    0 -0.11811049490E+03 -0.95162048802E+02 -0.56263524236E+02  0.16177604488E+03  0.00000000000E+00 0.  1.
          2    1    1    2  501    0  0.21437233601E+02 -0.30234737621E+02 -0.13434101057E+03  0.13935997083E+03  0.25500000000E-02 0. -1.
<mgrwt>
<rscale>  0 0.37063383E+02</rscale>
<asrwt>0</asrwt>
<pdfrwt beam="1">  1       11 0.10000000E+01 0.15772591E+03</pdfrwt>
<pdfrwt beam="2">  1        2 0.38856655E-01 0.37063383E+02</pdfrwt>
<totfact> 0.15925693E+02</totfact>
</mgrwt>
</event>
<event>
 5    1  0.1851087E-003  0.4068895E+03  0.7818608E-02  0.1325375E+00
         11   -1    0    0    0    0  0.00000000000E+00  0.00000000000E+00  0.10004757006E+04  0.10004757006E+04  0.51100000000E-03 0. -1.
          2   -1    0    0  501    0 -0.00000000000E+00 -0.00000000000E+00 -0.18691814308E+04  0.18691814308E+04  0.25500000000E-02 0. -1.
         11    1    1    2    0    0 -0.28940545176E+03 -0.28625448526E+03  0.93374823356E+03  0.10186181372E+04  0.51100000000E-03 0. -1.
         22    1    1    2    0    0  0.15414962746E+02 -0.51369921487E+01 -0.31097915800E+02  0.35086894019E+02  0.00000000000E+00 0.  1.
          2    1    1    2  501    0  0.27399048901E+03  0.29139147740E+03 -0.17713560480E+04  0.18159521002E+04  0.25500000000E-02 0. -1.
<mgrwt>
<rscale>  0 0.81309863E+02</rscale>
<asrwt>0</asrwt>
<pdfrwt beam="1">  1       11 0.10000000E+01 0.40688948E+03</pdfrwt>
<pdfrwt beam="2">  1        2 0.28770316E+00 0.81309863E+02</pdfrwt>
<totfact> 0.12258931E+01</totfact>
</mgrwt>
</event>
<event>
 5    1  0.1851087E-003  0.6654965E+02  0.7818608E-02  0.1594978E+00
         11   -1    0    0    0    0  0.00000000000E+00  0.00000000000E+00  0.99969297634E+03  0.99969297634E+03  0.51100000000E-03 0.  1.
          2   -1    0    0  501    0 -0.00000000000E+00 -0.00000000000E+00 -0.73204758121E+01  0.73204762563E+01  0.25500000000E-02 0.  1.
         11    1    1    2    0    0  0.76498546979E+02  0.68776504019E+01  0.31600358705E+03  0.32520393109E+03  0.51100000000E-03 0.  1.
         22    1    1    2    0    0 -0.13779366170E+02 -0.16766992893E+00  0.39701429122E+02  0.42025022541E+02  0.00000000000E+00 0.  1.
          2    1    1    2  501    0 -0.62719180809E+02 -0.67099804730E+01  0.63666748435E+03  0.63978449897E+03  0.25500000000E-02 0.  1.
<mgrwt>
<rscale>  0 0.30283320E+02</rscale>
<asrwt>0</asrwt>
<pdfrwt beam="1">  1       11 0.10000000E+01 0.66549653E+02</pdfrwt>
<pdfrwt beam="2">  1        2 0.11258813E-02 0.30283320E+02</pdfrwt>
<totfact> 0.10692726E+04</totfact>
</mgrwt>
</event>
<event>
 5    1  0.1851087E-003  0.1632891E+03  0.7818608E-02  0.1382969E+00
         11   -1    0    0    0    0  0.00000000000E+00  0.00000000000E+00  0.99963293622E+03  0.99963293622E+03  0.51100000000E-03 0.  1.
          2   -1    0    0  501    0 -0.00000000000E+00 -0.00000000000E+00 -0.31422744471E+03  0.31422744472E+03  0.25500000000E-02 0.  1.
         11    1    1    2    0    0  0.14630276660E+03  0.81166007177E+02  0.92997496585E+03  0.94490521077E+03  0.51100000000E-03 0.  1.
         22    1    1    2    0    0 -0.12945928286E+03 -0.19743763416E+02 -0.16299539854E+02  0.13196665152E+03  0.00000000000E+00 0.  1.
          2    1    1    2  501    0 -0.16843483740E+02 -0.61422243761E+02 -0.22826993449E+03  0.23698851865E+03  0.25500000000E-02 0.  1.
<mgrwt>
<rscale>  0 0.63689834E+02</rscale>
<asrwt>0</asrwt>
<pdfrwt beam="1">  1       11 0.10000000E+01 0.16328906E+03</pdfrwt>
<pdfrwt beam="2">  1        2 0.48324938E-01 0.63689834E+02</pdfrwt>
<totfact> 0.12848608E+02</totfact>
</mgrwt>
</event>
<event>
 5    1  0.1851087E-003  0.3327532E+03  0.7818608E-02  0.1119153E+00
         11   -1    0    0    0    0  0.00000000000E+00  0.00000000000E+00  0.10001370650E+04  0.10001370650E+04  0.51100000000E-03 0.  1.
          2   -1    0    0  501    0 -0.00000000000E+00 -0.00000000000E+00 -0.44572943921E+03  0.44572943922E+03  0.25500000000E-02 0.  1.
         11    1    1    2    0    0 -0.29085858848E+03 -0.19818999717E+03  0.85514245047E+03  0.92474137144E+03  0.51100000000E-03 0.  1.
         22    1    1    2    0    0  0.48179573620E+02  0.16770975466E+03 -0.17077847359E+03  0.24415798198E+03  0.00000000000E+00 0. -1.
          2    1    1    2  501    0  0.24267901486E+03  0.30480242508E+02 -0.12995635108E+03  0.27696715081E+03  0.25500000000E-02 0.  1.
<mgrwt>
<rscale>  0 0.24096292E+03</rscale>
<asrwt>0</asrwt>
<pdfrwt beam="1">  1       11 0.10000000E+01 0.33275320E+03</pdfrwt>
<pdfrwt beam="2">  1        2 0.68583157E-01 0.24096292E+03</pdfrwt>
<totfact> 0.88247137E+01</totfact>
</mgrwt>
</event>
<event>
 5    1  0.1851087E-003  0.1434246E+03  0.7818608E-02  0.1208794E+00
         11   -1    0    0    0    0  0.00000000000E+00  0.00000000000E+00  0.10001135782E+04  0.10001135782E+04  0.51100000000E-03 0.  1.
         -2   -1    0    0    0  501 -0.00000000000E+00 -0.00000000000E+00 -0.34906088191E+02  0.34906088284E+02  0.25500000000E-02 0. -1.
         11    1    1    2    0    0  0.71722060255E+02 -0.12012457889E+03  0.81656573876E+03  0.82846458832E+03  0.51100000000E-03 0.  1.
         22    1    1    2    0    0 -0.45732995336E+02  0.47742011861E+02  0.61002455985E+02  0.89956134839E+02  0.00000000000E+00 0. -1.
         -2    1    1    2    0  501 -0.25989064919E+02  0.72382567030E+02  0.87639295284E+02  0.11659894335E+03  0.25500000000E-02 0. -1.
<mgrwt>
<rscale>  0 0.14342465E+03</rscale>
<asrwt>0</asrwt>
<pdfrwt beam="1">  1       11 0.10000000E+01 0.13990700E+03</pdfrwt>
<pdfrwt beam="2">  1       -2 0.53707772E-02 0.14342465E+03</pdfrwt>
<totfact> 0.13326710E+03</totfact>
</mgrwt>
</event>
<event>
 5    1  0.1851087E-003  0.2087666E+03  0.7818608E-02  0.1142546E+00
         11   -1    0    0    0    0  0.00000000000E+00  0.00000000000E+00  0.10000975376E+04  0.10000975376E+04  0.51100000000E-03 0. -1.
          2   -1    0    0  501    0 -0.00000000000E+00 -0.00000000000E+00 -0.45621324714E+02  0.45621324785E+02  0.25500000000E-02 0. -1.
         11    1    1    2    0    0  0.19364660109E+03 -0.66270344642E+02  0.34116142077E+03  0.39784655298E+03  0.51100000000E-03 0. -1.
         22    1    1    2    0    0 -0.13673822747E+03  0.42935018398E+02  0.36694437963E+03  0.39394027009E+03  0.00000000000E+00 0. -1.
          2    1    1    2  501    0 -0.56908373616E+02  0.23335326244E+02  0.24637041249E+03  0.25393203932E+03  0.25500000000E-02 0. -1.
<mgrwt>
<rscale>  0 0.20876660E+03</rscale>
<asrwt>0</asrwt>
<pdfrwt beam="1">  1       11 0.10000000E+01 0.20467244E+03</pdfrwt>
<pdfrwt beam="2">  1        2 0.70193497E-02 0.20876660E+03</pdfrwt>
<totfact> 0.12176399E+03</totfact>
</mgrwt>
</event>
<event>
 5    1  0.1851087E-003  0.2618778E+03  0.7818608E-02  0.1281869E+00
         11   -1    0    0    0    0  0.00000000000E+00  0.00000000000E+00  0.10002187854E+04  0.10002187854E+04  0.51100000000E-03 0.  1.
          2   -1    0    0  501    0 -0.00000000000E+00 -0.00000000000E+00 -0.49995167924E+03  0.49995167925E+03  0.25500000000E-02 0.  1.
         11    1    1    2    0    0 -0.18881927325E+03 -0.18376735898E+03  0.93949938200E+03  0.97574702098E+03  0.51100000000E-03 0.  1.
         22    1    1    2    0    0  0.83124254437E+01  0.36689484019E+02 -0.14172896458E+03  0.14663667363E+03  0.00000000000E+00 0.  1.
          2    1    1    2  501    0  0.18050684780E+03  0.14707787497E+03 -0.29750331125E+03  0.37778677004E+03  0.25500000000E-02 0.  1.
<mgrwt>
<rscale>  0 0.99255575E+02</rscale>
<asrwt>0</asrwt>
<pdfrwt beam="1">  1       11 0.10000000E+01 0.26187779E+03</pdfrwt>
<pdfrwt beam="2">  1        2 0.76932469E-01 0.99255575E+02</pdfrwt>
<totfact> 0.78712264E+01</totfact>
</mgrwt>
</event>
<event>
 5    1  0.1851087E-003  0.1483999E+03  0.7818608E-02  0.1356068E+00
         11   -1    0    0    0    0  0.00000000000E+00  0.00000000000E+00  0.99972699341E+03  0.99972699341E+03  0.51100000000E-03 0.  1.
          2   -1    0    0  501    0 -0.00000000000E+00 -0.00000000000E+00 -0.75367987734E+02  0.75367987778E+02  0.25500000000E-02 0.  1.
         11    1    1    2    0    0  0.94544025919E+02 -0.98276210601E+02  0.61070714987E+03  0.62574756037E+03  0.51100000000E-03 0.  1.
         22    1    1    2    0    0 -0.99381629748E+02  0.16930905633E+03  0.32254741007E+03  0.37759647327E+03  0.00000000000E+00 0.  1.
          2    1    1    2  501    0  0.48376038287E+01 -0.71032845725E+02 -0.88955542556E+01  0.71750947552E+02  0.25500000000E-02 0.  1.
<mgrwt>
<rscale>  0 0.71197385E+02</rscale>
<asrwt>0</asrwt>
<pdfrwt beam="1">  1       11 0.10000000E+01 0.14839993E+03</pdfrwt>
<pdfrwt beam="2">  1        2 0.11591909E-01 0.71197385E+02</pdfrwt>
<totfact> 0.61281220E+02</totfact>
</mgrwt>
</event>
<event>
 5    1  0.1851087E-003  0.1065251E+03  0.7818608E-02  0.1392692E+00
         11   -1    0    0    0    0  0.00000000000E+00  0.00000000000E+00  0.99996180369E+03  0.99996180369E+03  0.51100000000E-03 0. -1.
          2   -1    0    0  501    0 -0.00000000000E+00 -0.00000000000E+00 -0.16456099130E+02  0.16456099327E+02  0.25500000000E-02 0. -1.
         11    1    1    2    0    0  0.65499748602E+02 -0.91846571977E+02  0.54488335593E+03  0.55643856931E+03  0.51100000000E-03 0. -1.
         22    1    1    2    0    0 -0.34843807321E+02 -0.50546448162E+01  0.84007771520E+02  0.91087573350E+02  0.00000000000E+00 0. -1.
          2    1    1    2  501    0 -0.30655941281E+02  0.96901216793E+02  0.35461457711E+03  0.36889176036E+03  0.25500000000E-02 0. -1.
<mgrwt>
<rscale>  0 0.61242087E+02</rscale>
<asrwt>0</asrwt>
<pdfrwt beam="1">  1       11 0.10000000E+01 0.10652514E+03</pdfrwt>
<pdfrwt beam="2">  1        2 0.25316108E-02 0.61242087E+02</pdfrwt>
<totfact> 0.41243508E+03</totfact>
</mgrwt>
</event>
<event>
 5    1  0.1851087E-003  0.2284700E+03  0.7818608E-02  0.1127721E+00
         11   -1    0    0    0    0  0.00000000000E+00  0.00000000000E+00  0.10000324584E+04  0.10000324584E+04  0.51100000000E-03 0.  1.
          2   -1    0    0  501    0 -0.00000000000E+00 -0.00000000000E+00 -0.15533802374E+03  0.15533802377E+03  0.25500000000E-02 0. -1.
         11    1    1    2    0    0  0.86929970283E+02 -0.20631429525E+03  0.89402906236E+03  0.92163461985E+03  0.51100000000E-03 0.  1.
         22    1    1    2    0    0 -0.70197008391E+01  0.18418133943E+02 -0.18880761661E+02  0.27294450328E+02  0.00000000000E+00 0.  1.
          2    1    1    2  501    0 -0.79910269444E+02  0.18789616131E+03 -0.30453866096E+02  0.20644141194E+03  0.25500000000E-02 0. -1.
<mgrwt>
<rscale>  0 0.22847002E+03</rscale>
<asrwt>0</asrwt>
<pdfrwt beam="1">  1       11 0.10000000E+01 0.22388034E+03</pdfrwt>
<pdfrwt beam="2">  1        2 0.23898933E-01 0.22847002E+03</pdfrwt>
<totfact> 0.27880278E+02</totfact>
</mgrwt>
</event>
<event>
 5    1  0.1851087E-003  0.7439381E+02  0.7818608E-02  0.1571254E+00
         11   -1    0    0    0    0  0.00000000000E+00  0.00000000000E+00  0.10004312763E+04  0.10004312763E+04  0.51100000000E-03 0. -1.
          2   -1    0    0  501    0 -0.00000000000E+00 -0.00000000000E+00 -0.79210237129E+01  0.79210241234E+01  0.25500000000E-02 0. -1.
         11    1    1    2    0    0  0.81156040860E+02 -0.15046310848E+02  0.35658224990E+03  0.36601037606E+03  0.51100000000E-03 0. -1.
         22    1    1    2    0    0 -0.10489366348E+02  0.96656589984E+01  0.45699653570E+02  0.47873897969E+02  0.00000000000E+00 0. -1.
          2    1    1    2  501    0 -0.70666674511E+02  0.53806518492E+01  0.59022834913E+03  0.59446802641E+03  0.25500000000E-02 0. -1.
<mgrwt>
<rscale>  0 0.32574943E+02</rscale>
<asrwt>0</asrwt>
<pdfrwt beam="1">  1       11 0.10000000E+01 0.74393813E+02</pdfrwt>
<pdfrwt beam="2">  1        2 0.12191446E-02 0.32574943E+02</pdfrwt>
<totfact> 0.97700068E+03</totfact>
</mgrwt>
</event>
<event>
 5    1  0.1851087E-003  0.1167087E+03  0.7818608E-02  0.1409678E+00
         11   -1    0    0    0    0  0.00000000000E+00  0.00000000000E+00  0.99985012373E+03  0.99985012373E+03  0.51100000000E-03 0. -1.
          2   -1    0    0  501    0 -0.00000000000E+00 -0.00000000000E+00 -0.19154925934E+02  0.19154926103E+02  0.25500000000E-02 0. -1.
         11    1    1    2    0    0  0.46272406639E+02 -0.10975861976E+03  0.42718171378E+03  0.44347751557E+03  0.51100000000E-03 0. -1.
         22    1    1    2    0    0  0.22891715951E+02  0.16294588944E+02  0.39173385367E+02  0.48208903837E+02  0.00000000000E+00 0.  1.
          2    1    1    2  501    0 -0.69164122590E+02  0.93464030815E+02  0.51434009866E+03  0.52731863043E+03  0.25500000000E-02 0. -1.
<mgrwt>
<rscale>  0 0.57265828E+02</rscale>
<asrwt>0</asrwt>
<pdfrwt beam="1">  1       11 0.10000000E+01 0.11670865E+03</pdfrwt>
<pdfrwt beam="2">  1        2 0.29464699E-02 0.57265828E+02</pdfrwt>
<totfact> 0.33491819E+03</totfact>
</mgrwt>
</event>
<event>
 5    1  0.1851087E-003  0.1007196E+03  0.7818608E-02  0.1526870E+00
         11   -1    0    0    0    0  0.00000000000E+00  0.00000000000E+00  0.10002492142E+04  0.10002492142E+04  0.51100000000E-03 0. -1.
          2   -1    0    0  501    0 -0.00000000000E+00 -0.00000000000E+00 -0.12908648026E+02  0.12908648278E+02  0.25500000000E-02 0. -1.
         11    1    1    2    0    0 -0.47242389151E+02  0.96878309267E+02  0.51133433860E+03  0.52257062295E+03  0.51100000000E-03 0. -1.
         22    1    1    2    0    0  0.10008938469E+02 -0.98125058657E+01  0.17582946617E+02  0.22486087530E+02  0.00000000000E+00 0. -1.
          2    1    1    2  501    0  0.37233450682E+02 -0.87065803401E+02  0.45842328096E+03  0.46810115200E+03  0.25500000000E-02 0. -1.
<mgrwt>
<rscale>  0 0.37573155E+02</rscale>
<asrwt>0</asrwt>
<pdfrwt beam="1">  1       11 0.10000000E+01 0.10071958E+03</pdfrwt>
<pdfrwt beam="2">  1        2 0.19864407E-02 0.37573155E+02</pdfrwt>
<totfact> 0.52798814E+03</totfact>
</mgrwt>
</event>
<event>
 5    1  0.1851087E-003  0.1239385E+03  0.7818608E-02  0.1236738E+00
         11   -1    0    0    0    0  0.00000000000E+00  0.00000000000E+00  0.10000530901E+04  0.10000530901E+04  0.51100000000E-03 0.  1.
          2   -1    0    0  501    0 -0.00000000000E+00 -0.00000000000E+00 -0.18827947516E+02  0.18827947689E+02  0.25500000000E-02 0.  1.
         11    1    1    2    0    0 -0.11684525112E+03  0.28616166948E+02  0.71712979323E+03  0.72714980441E+03  0.51100000000E-03 0.  1.
         22    1    1    2    0    0  0.35899939713E+02 -0.17688261435E+02  0.62476216301E+02  0.74195403276E+02  0.00000000000E+00 0.  1.
          2    1    1    2  501    0  0.80945311403E+02 -0.10927905513E+02  0.20161913303E+03  0.21753583007E+03  0.25500000000E-02 0.  1.
<mgrwt>
<rscale>  0 0.12393853E+03</rscale>
<asrwt>0</asrwt>
<pdfrwt beam="1">  1       11 0.10000000E+01 0.12029837E+03</pdfrwt>
<pdfrwt beam="2">  1        2 0.28967610E-02 0.12393853E+03</pdfrwt>
<totfact> 0.37461412E+03</totfact>
</mgrwt>
</event>
<event>
 5    1  0.2632446E-003  0.3625791E+03  0.7818608E-02  0.1057567E+00
         11   -1    0    0    0    0  0.00000000000E+00  0.00000000000E+00  0.10001510012E+04  0.10001510012E+04  0.51100000000E-03 0.  1.
          2   -1    0    0  501    0 -0.00000000000E+00 -0.00000000000E+00 -0.82960150040E+03  0.82960150040E+03  0.25500000000E-02 0.  1.
         11    1    1    2    0    0  0.26076631429E+03 -0.24505603763E+03  0.92548742312E+03  0.99225929202E+03  0.51100000000E-03 0.  1.
         22    1    1    2    0    0 -0.72109955070E+01  0.22822626767E+02 -0.71767521550E+02  0.75653472479E+02  0.00000000000E+00 0.  1.
          2    1    1    2  501    0 -0.25355531878E+03  0.22223341087E+03 -0.68317040075E+03  0.76183973712E+03  0.25500000000E-02 0.  1.
<mgrwt>
<rscale>  0 0.36257911E+03</rscale>
<asrwt>0</asrwt>
<pdfrwt beam="1">  1       11 0.10000000E+01 0.35784289E+03</pdfrwt>
<pdfrwt beam="2">  1        2 0.12765027E+00 0.36257911E+03</pdfrwt>
<totfact> 0.41824272E+01</totfact>
</mgrwt>
</event>
<event>
 5    1  0.1851087E-003  0.1486311E+03  0.7818608E-02  0.1202165E+00
         11   -1    0    0    0    0  0.00000000000E+00  0.00000000000E+00  0.10000472817E+04  0.10000472817E+04  0.51100000000E-03 0. -1.
          2   -1    0    0  501    0 -0.00000000000E+00 -0.00000000000E+00 -0.30899401646E+02  0.30899401751E+02  0.25500000000E-02 0.  1.
         11    1    1    2    0    0 -0.83203739660E+02 -0.11085349777E+03  0.77040175617E+03  0.78277086441E+03  0.51100000000E-03 0. -1.
         22    1    1    2    0    0  0.51752353932E+02  0.10188443467E+03  0.16872206370E+03  0.20377899535E+03  0.00000000000E+00 0.  1.
          2    1    1    2  501    0  0.31451385728E+02  0.89690630978E+01  0.30024060177E+02  0.44396823682E+02  0.25500000000E-02 0.  1.
<mgrwt>
<rscale>  0 0.14863114E+03</rscale>
<asrwt>0</asrwt>
<pdfrwt beam="1">  1       11 0.10000000E+01 0.13860505E+03</pdfrwt>
<pdfrwt beam="2">  1        2 0.47539787E-02 0.14863114E+03</pdfrwt>
<totfact> 0.19723876E+03</totfact>
</mgrwt>
</event>
<event>
 5    1  0.1851087E-003  0.1618799E+03  0.7818608E-02  0.1449330E+00
         11   -1    0    0    0    0  0.00000000000E+00  0.00000000000E+00  0.10004200006E+04  0.10004200006E+04  0.51100000000E-03 0. -1.
          2   -1    0    0  501    0 -0.00000000000E+00 -0.00000000000E+00 -0.81652629529E+02  0.81652629569E+02  0.25500000000E-02 0. -1.
         11    1    1    2    0    0  0.13134278636E+03  0.10021911915E+03  0.84962741284E+03  0.86554118332E+03  0.51100000000E-03 0. -1.
         22    1    1    2    0    0 -0.83493500895E+02 -0.11195703734E+03  0.10666198203E+02  0.14006894975E+03  0.00000000000E+00 0. -1.
          2    1    1    2  501    0 -0.47849285465E+02  0.11737918188E+02  0.58473760003E+02  0.76462497070E+02  0.25500000000E-02 0. -1.
<mgrwt>
<rscale>  0 0.49267970E+02</rscale>
<asrwt>0</asrwt>
<pdfrwt beam="1">  1       11 0.10000000E+01 0.16187991E+03</pdfrwt>
<pdfrwt beam="2">  1        2 0.12567219E-01 0.49267970E+02</pdfrwt>
<totfact> 0.54464000E+02</totfact>
</mgrwt>
</event>
<event>
 5    1  0.1851087E-003  0.1043295E+03  0.7818608E-02  0.1271446E+00
         11   -1    0    0    0    0  0.00000000000E+00  0.00000000000E+00  0.10002183663E+04  0.10002183663E+04  0.51100000000E-03 0. -1.
          2   -1    0    0  501    0 -0.00000000000E+00 -0.00000000000E+00 -0.12756152524E+02  0.12756152779E+02  0.25500000000E-02 0. -1.
         11    1    1    2    0    0 -0.10203220032E+03 -0.12532651827E+02  0.28847375373E+03  0.30624294907E+03  0.51100000000E-03 0. -1.
         22    1    1    2    0    0  0.18842815607E+02 -0.41812015901E+01  0.11429024287E+03  0.11590855776E+03  0.00000000000E+00 0.  1.
          2    1    1    2  501    0  0.83189384718E+02  0.16713853417E+02  0.58469821713E+03  0.59082301220E+03  0.25500000000E-02 0. -1.
<mgrwt>
<rscale>  0 0.10432950E+03</rscale>
<asrwt>0</asrwt>
<pdfrwt beam="1">  1       11 0.10000000E+01 0.10279907E+03</pdfrwt>
<pdfrwt beam="2">  1        2 0.19629135E-02 0.10432950E+03</pdfrwt>
<totfact> 0.62086624E+03</totfact>
</mgrwt>
</event>
<event>
 5    1  0.1851087E-003  0.3818093E+03  0.7818608E-02  0.1050267E+00
         11   -1    0    0    0    0  0.00000000000E+00  0.00000000000E+00  0.10001440312E+04  0.10001440312E+04  0.51100000000E-03 0. -1.
          2   -1    0    0  501    0 -0.00000000000E+00 -0.00000000000E+00 -0.16089234660E+03  0.16089234662E+03  0.25500000000E-02 0. -1.
         11    1    1    2    0    0  0.22301744267E+03  0.30884428231E+03  0.27011914079E+03  0.46699670307E+03  0.51100000000E-03 0. -1.
         22    1    1    2    0    0 -0.97855717940E+01  0.97703588852E+01  0.20259597349E+02  0.24528934197E+02  0.00000000000E+00 0.  1.
          2    1    1    2  501    0 -0.21323187088E+03 -0.31861464120E+03  0.54887294645E+03  0.66951074054E+03  0.25500000000E-02 0. -1.
<mgrwt>
<rscale>  0 0.38180933E+03</rscale>
<asrwt>0</asrwt>
<pdfrwt beam="1">  1       11 0.10000000E+01 0.13828135E+02</pdfrwt>
<pdfrwt beam="2">  1        2 0.24756233E-01 0.38180933E+03</pdfrwt>
<totfact> 0.27067511E+02</totfact>
</mgrwt>
</event>
<event>
 5    1  0.1860614E-003  0.2345143E+03  0.7818608E-02  0.1324493E+00
         11   -1    0    0    0    0  0.00000000000E+00  0.00000000000E+00  0.10006170420E+04  0.10006170420E+04  0.51100000000E-03 0. -1.
          2   -1    0    0  501    0 -0.00000000000E+00 -0.00000000000E+00 -0.11519065086E+04  0.11519065086E+04  0.25500000000E-02 0. -1.
         11    1    1    2    0    0  0.96730637873E+02  0.21358408665E+03  0.97060583933E+03  0.99852424794E+03  0.51100000000E-03 0. -1.
         22    1    1    2    0    0  0.27149361930E+02 -0.83781380194E+01 -0.80278474933E+02  0.85158173932E+02  0.00000000000E+00 0. -1.
          2    1    1    2  501    0 -0.12387999980E+03 -0.20520594863E+03 -0.10416168310E+04  0.10688411287E+04  0.25500000000E-02 0. -1.
<mgrwt>
<rscale>  0 0.81628322E+02</rscale>
<asrwt>0</asrwt>
<pdfrwt beam="1">  1       11 0.10000000E+01 0.23451432E+03</pdfrwt>
<pdfrwt beam="2">  1        2 0.17732573E+00 0.81628322E+02</pdfrwt>
<totfact> 0.28584628E+01</totfact>
</mgrwt>
</event>
<event>
 5    1  0.1851087E-003  0.1570092E+03  0.7818608E-02  0.1192115E+00
         11   -1    0    0    0    0  0.00000000000E+00  0.00000000000E+00  0.10001107666E+04  0.10001107666E+04  0.51100000000E-03 0.  1.
         -2   -1    0    0    0  501 -0.00000000000E+00 -0.00000000000E+00 -0.26128078414E+02  0.26128078539E+02  0.25500000000E-02 0.  1.
         11    1    1    2    0    0  0.34835379345E+02  0.14653072921E+03  0.63564397827E+03  0.65324423102E+03  0.51100000000E-03 0.  1.
         22    1    1    2    0    0 -0.24112206577E+02 -0.76672009629E+02  0.23001284950E+03  0.24365119844E+03  0.00000000000E+00 0.  1.
         -2    1    1    2    0  501 -0.10723172768E+02 -0.69858719577E+02  0.10832586038E+03  0.12934341564E+03  0.25500000000E-02 0.  1.
<mgrwt>
<rscale>  0 0.15700923E+03</rscale>
<asrwt>0</asrwt>
<pdfrwt beam="1">  1       11 0.10000000E+01 0.15061460E+03</pdfrwt>
<pdfrwt beam="2">  1       -2 0.40201495E-02 0.15700923E+03</pdfrwt>
<totfact> 0.20744131E+03</totfact>
</mgrwt>
</event>
<event>
 5    1  0.1851087E-003  0.1327383E+03  0.7818608E-02  0.1341997E+00
         11   -1    0    0    0    0  0.00000000000E+00  0.00000000000E+00  0.10001285150E+04  0.10001285150E+04  0.51100000000E-03 0. -1.
          2   -1    0    0  501    0 -0.00000000000E+00 -0.00000000000E+00 -0.46773282815E+02  0.46773282885E+02  0.25500000000E-02 0. -1.
         11    1    1    2    0    0 -0.93217249963E+02 -0.10702680418E+03  0.82292892462E+03  0.83507856366E+03  0.51100000000E-03 0. -1.
         22    1    1    2    0    0  0.40307122758E+02  0.15169426180E+02 -0.86883229918E+00  0.43075869175E+02  0.00000000000E+00 0. -1.
          2    1    1    2  501    0  0.52910127205E+02  0.91857378002E+02  0.13129513987E+03  0.16874736506E+03  0.25500000000E-02 0. -1.
<mgrwt>
<rscale>  0 0.75608572E+02</rscale>
<asrwt>0</asrwt>
<pdfrwt beam="1">  1       11 0.10000000E+01 0.13273834E+03</pdfrwt>
<pdfrwt beam="2">  1        2 0.71968142E-02 0.75608572E+02</pdfrwt>
<totfact> 0.10980955E+03</totfact>
</mgrwt>
</event>
<event>
 5    1  0.1851087E-003  0.2105214E+03  0.7818608E-02  0.1141154E+00
         11   -1    0    0    0    0  0.00000000000E+00  0.00000000000E+00  0.10002711524E+04  0.10002711524E+04  0.51100000000E-03 0. -1.
          2   -1    0    0  501    0 -0.00000000000E+00 -0.00000000000E+00 -0.13635569873E+03  0.13635569876E+03  0.25500000000E-02 0. -1.
         11    1    1    2    0    0  0.17920087592E+03  0.10270645536E+03  0.89968371468E+03  0.92308848783E+03  0.51100000000E-03 0. -1.
         22    1    1    2    0    0 -0.39878231694E+02 -0.43079715281E+02 -0.51397968149E+01  0.58928369594E+02  0.00000000000E+00 0. -1.
          2    1    1    2  501    0 -0.13932264423E+03 -0.59626740076E+02 -0.30628464227E+02  0.15460999371E+03  0.25500000000E-02 0. -1.
<mgrwt>
<rscale>  0 0.21052141E+03</rscale>
<asrwt>0</asrwt>
<pdfrwt beam="1">  1       11 0.10000000E+01 0.20654677E+03</pdfrwt>
<pdfrwt beam="2">  1        2 0.20983487E-01 0.21052141E+03</pdfrwt>
<totfact> 0.32235615E+02</totfact>
</mgrwt>
</event>
<event>
 5    1  0.1851087E-003  0.1894423E+03  0.7818608E-02  0.1672753E+00
         11   -1    0    0    0    0  0.00000000000E+00  0.00000000000E+00  0.10000152508E+04  0.10000152508E+04  0.51100000000E-03 0.  1.
          2   -1    0    0  501    0 -0.00000000000E+00 -0.00000000000E+00 -0.83980608899E+02  0.83980608937E+02  0.25500000000E-02 0.  1.
         11    1    1    2    0    0  0.58041160136E+02 -0.18230572199E+03  0.84562902663E+03  0.86700207798E+03  0.51100000000E-03 0.  1.
         22    1    1    2    0    0 -0.34955227957E+02  0.17504479159E+03  0.50088516585E+02  0.18539527102E+03  0.00000000000E+00 0.  1.
          2    1    1    2  501    0 -0.23085932178E+02  0.72609303976E+01  0.20317098672E+02  0.31598510720E+02  0.25500000000E-02 0.  1.
<mgrwt>
<rscale>  0 0.24200855E+02</rscale>
<asrwt>0</asrwt>
<pdfrwt beam="1">  1       11 0.10000000E+01 0.18944229E+03</pdfrwt>
<pdfrwt beam="2">  1        2 0.12920290E-01 0.24200855E+02</pdfrwt>
<totfact> 0.50104536E+02</totfact>
</mgrwt>
</event>
<event>
 5    1  0.1851087E-003  0.1182849E+04  0.7818608E-02  0.9128002E-01
         11   -1    0    0    0    0  0.00000000000E+00  0.00000000000E+00  0.99994876243E+03  0.99994876243E+03  0.51100000000E-03 0. -1.
          2   -1    0    0  501    0 -0.00000000000E+00 -0.00000000000E+00 -0.19948599996E+04  0.19948599996E+04  0.25500000000E-02 0. -1.
         11    1    1    2    0    0  0.78428850839E+03 -0.81245636713E+03  0.37033794331E+03  0.11884208031E+04  0.51100000000E-03 0. -1.
         22    1    1    2    0    0 -0.18526501524E+03  0.25111253049E+02 -0.29204128249E+03  0.34675901081E+03  0.00000000000E+00 0.  1.
          2    1    1    2  501    0 -0.59902349314E+03  0.78734511408E+03 -0.10732078980E+04  0.14596289482E+04  0.25500000000E-02 0. -1.
<mgrwt>
<rscale>  0 0.11828492E+04</rscale>
<asrwt>0</asrwt>
<pdfrwt beam="1">  1       11 0.10000000E+01 0.11292448E+04</pdfrwt>
<pdfrwt beam="2">  1        2 0.30688580E+00 0.11828492E+04</pdfrwt>
<totfact> 0.81908035E+00</totfact>
</mgrwt>
</event>
<event>
 5    1  0.1851087E-003  0.1055707E+03  0.7818608E-02  0.1268999E+00
         11   -1    0    0    0    0  0.00000000000E+00  0.00000000000E+00  0.10001919322E+04  0.10001919322E+04  0.51100000000E-03 0.  1.
          2   -1    0    0  501    0 -0.00000000000E+00 -0.00000000000E+00 -0.10971357441E+02  0.10971357737E+02  0.25500000000E-02 0.  1.
         11    1    1    2    0    0  0.77976287291E+02  0.68130521741E+02  0.45899098670E+03  0.47052608349E+03  0.51100000000E-03 0.  1.
         22    1    1    2    0    0 -0.80041491316E+01 -0.89800675865E+01  0.35170631529E+02  0.37170974420E+02  0.00000000000E+00 0.  1.
          2    1    1    2  501    0 -0.69972138160E+02 -0.59150454155E+02  0.49505895657E+03  0.50346623207E+03  0.25500000000E-02 0.  1.
<mgrwt>
<rscale>  0 0.10557070E+03</rscale>
<asrwt>0</asrwt>
<pdfrwt beam="1">  1       11 0.10000000E+01 0.10354748E+03</pdfrwt>
<pdfrwt beam="2">  1        2 0.16882251E-02 0.10557070E+03</pdfrwt>
<totfact> 0.76308965E+03</totfact>
</mgrwt>
</event>
<event>
 5    1  0.1851087E-003  0.1950406E+03  0.7818608E-02  0.1153992E+00
         11   -1    0    0    0    0  0.00000000000E+00  0.00000000000E+00  0.10001401244E+04  0.10001401244E+04  0.51100000000E-03 0. -1.
          2   -1    0    0  501    0 -0.00000000000E+00 -0.00000000000E+00 -0.69930797500E+02  0.69930797546E+02  0.25500000000E-02 0. -1.
         11    1    1    2    0    0 -0.17716747164E+03  0.76062608717E+02  0.99876256098E+02  0.21713843507E+03  0.51100000000E-03 0. -1.
         22    1    1    2    0    0  0.14369211658E+02  0.18294715339E+01  0.55479300930E+02  0.57339114411E+02  0.00000000000E+00 0.  1.
          2    1    1    2  501    0  0.16279825998E+03 -0.77892080251E+02  0.77485376989E+03  0.79559337248E+03  0.25500000000E-02 0. -1.
<mgrwt>
<rscale>  0 0.19504056E+03</rscale>
<asrwt>0</asrwt>
<pdfrwt beam="1">  1       11 0.10000000E+01 0.19280527E+03</pdfrwt>
<pdfrwt beam="2">  1        2 0.10760091E-01 0.19504056E+03</pdfrwt>
<totfact> 0.70865485E+02</totfact>
</mgrwt>
</event>
<event>
 5    1  0.1851087E-003  0.5714288E+03  0.7818608E-02  0.9966522E-01
         11   -1    0    0    0    0  0.00000000000E+00  0.00000000000E+00  0.99981631993E+03  0.99981631993E+03  0.51100000000E-03 0. -1.
          2   -1    0    0  501    0 -0.00000000000E+00 -0.00000000000E+00 -0.32968853560E+03  0.32968853561E+03  0.25500000000E-02 0. -1.
         11    1    1    2    0    0  0.15945247046E+02  0.55610590230E+03  0.45578182417E+03  0.71919753664E+03  0.51100000000E-03 0. -1.
         22    1    1    2    0    0 -0.59211292121E+00 -0.15132787210E+03 -0.14632224084E+01  0.15133610439E+03  0.00000000000E+00 0. -1.
          2    1    1    2  501    0 -0.15353134125E+02 -0.40477803019E+03  0.21580918257E+03  0.45897121450E+03  0.25500000000E-02 0. -1.
<mgrwt>
<rscale>  0 0.57142876E+03</rscale>
<asrwt>0</asrwt>
<pdfrwt beam="1">  1       11 0.10000000E+01 0.55633445E+03</pdfrwt>
<pdfrwt beam="2">  1        2 0.50711995E-01 0.57142876E+03</pdfrwt>
<totfact> 0.12229189E+02</totfact>
</mgrwt>
</event>
<event>
 5    1  0.1851087E-003  0.4897605E+03  0.7818608E-02  0.1016487E+00
         11   -1    0    0    0    0  0.00000000000E+00  0.00000000000E+00  0.10006444847E+04  0.10006444847E+04  0.51100000000E-03 0.  1.
          2   -1    0    0  501    0 -0.00000000000E+00 -0.00000000000E+00 -0.39143514720E+03  0.39143514721E+03  0.25500000000E-02 0.  1.
         11    1    1    2    0    0  0.30519437118E+03  0.30320309899E+03  0.76540008065E+03  0.87801651858E+03  0.51100000000E-03 0.  1.
         22    1    1    2    0    0 -0.23419657026E+03 -0.68084953098E+02 -0.69382951673E+02  0.25356969129E+03  0.00000000000E+00 0.  1.
          2    1    1    2  501    0 -0.70997800922E+02 -0.23511814590E+03 -0.86807791461E+02  0.26049342205E+03  0.25500000000E-02 0.  1.
<mgrwt>
<rscale>  0 0.48976049E+03</rscale>
<asrwt>0</asrwt>
<pdfrwt beam="1">  1       11 0.10000000E+01 0.43020428E+03</pdfrwt>
<pdfrwt beam="2">  1        2 0.60259602E-01 0.48976049E+03</pdfrwt>
<totfact> 0.10110307E+02</totfact>
</mgrwt>
</event>
<event>
 5    1  0.1851087E-003  0.1741571E+03  0.7818608E-02  0.1173581E+00
         11   -1    0    0    0    0  0.00000000000E+00  0.00000000000E+00  0.10001597049E+04  0.10001597049E+04  0.51100000000E-03 0. -1.
          2   -1    0    0  501    0 -0.00000000000E+00 -0.00000000000E+00 -0.52591541496E+02  0.52591541557E+02  0.25500000000E-02 0. -1.
         11    1    1    2    0    0  0.35261752672E+02  0.16602897061E+03  0.81867626835E+03  0.83608602586E+03  0.51100000000E-03 0. -1.
         22    1    1    2    0    0  0.66229189580E+01 -0.15771552118E+02  0.20587927813E+02  0.26766913968E+02  0.00000000000E+00 0.  1.
          2    1    1    2  501    0 -0.41884671630E+02 -0.15025741849E+03  0.10830396721E+03  0.18989830660E+03  0.25500000000E-02 0. -1.
<mgrwt>
<rscale>  0 0.17415710E+03</rscale>
<asrwt>0</asrwt>
<pdfrwt beam="1">  1       11 0.10000000E+01 0.16973217E+03</pdfrwt>
<pdfrwt beam="2">  1        2 0.80922983E-02 0.17415710E+03</pdfrwt>
<totfact> 0.10045350E+03</totfact>
</mgrwt>
</event>
<event>
 5    1  0.1851087E-003  0.1708811E+03  0.7818608E-02  0.1185708E+00
         11   -1    0    0    0    0  0.00000000000E+00  0.00000000000E+00  0.99995626967E+03  0.99995626967E+03  0.51100000000E-03 0. -1.
          2   -1    0    0  501    0 -0.00000000000E+00 -0.00000000000E+00 -0.38259461758E+02  0.38259461843E+02  0.25500000000E-02 0. -1.
         11    1    1    2    0    0  0.60547631134E+02 -0.13738894926E+03  0.67720252169E+03  0.69364615936E+03  0.51100000000E-03 0. -1.
         22    1    1    2    0    0 -0.10898260170E+02 -0.17525792067E+02  0.83393426823E+02  0.85909191008E+02  0.00000000000E+00 0. -1.
          2    1    1    2  501    0 -0.49649370964E+02  0.15491474132E+03  0.20110085940E+03  0.25866038115E+03  0.25500000000E-02 0. -1.
<mgrwt>
<rscale>  0 0.16267648E+03</rscale>
<asrwt>0</asrwt>
<pdfrwt beam="1">  1       11 0.10000000E+01 0.17088109E+03</pdfrwt>
<pdfrwt beam="2">  1        2 0.58858135E-02 0.16267648E+03</pdfrwt>
<totfact> 0.15031354E+03</totfact>
</mgrwt>
</event>
<event>
 5    1  0.1851087E-003  0.1927292E+03  0.7818608E-02  0.1156023E+00
         11   -1    0    0    0    0  0.00000000000E+00  0.00000000000E+00  0.99994623378E+03  0.99994623378E+03  0.51100000000E-03 0. -1.
          2   -1    0    0  501    0 -0.00000000000E+00 -0.00000000000E+00 -0.37087509981E+02  0.37087510068E+02  0.25500000000E-02 0. -1.
         11    1    1    2    0    0  0.46479788146E+02 -0.18432877736E+03  0.53503817070E+03  0.56780570002E+03  0.51100000000E-03 0. -1.
         22    1    1    2    0    0 -0.13078790870E+02  0.34362010879E+02  0.56888777268E+02  0.67735777410E+02  0.00000000000E+00 0. -1.
          2    1    1    2  501    0 -0.33400997276E+02  0.14996676648E+03  0.37093177583E+03  0.40149226642E+03  0.25500000000E-02 0. -1.
<mgrwt>
<rscale>  0 0.19272917E+03</rscale>
<asrwt>0</asrwt>
<pdfrwt beam="1">  1       11 0.10000000E+01 0.19009858E+03</pdfrwt>
<pdfrwt beam="2">  1        2 0.57054638E-02 0.19272917E+03</pdfrwt>
<totfact> 0.15844211E+03</totfact>
</mgrwt>
</event>
<event>
 5    1  0.1851087E-003  0.1785455E+03  0.7818608E-02  0.1475192E+00
         11   -1    0    0    0    0  0.00000000000E+00  0.00000000000E+00  0.10002476387E+04  0.10002476387E+04  0.51100000000E-03 0.  1.
          2   -1    0    0  501    0 -0.00000000000E+00 -0.00000000000E+00 -0.39386797518E+02  0.39386797601E+02  0.25500000000E-02 0.  1.
         11    1    1    2    0    0  0.16067650406E+03 -0.93056070737E+02  0.32220273715E+03  0.37187494549E+03  0.51100000000E-03 0.  1.
         22    1    1    2    0    0 -0.11097885303E+02  0.19808349285E+01  0.96869633185E+01  0.14863513163E+02  0.00000000000E+00 0.  1.
          2    1    1    2  501    0 -0.14957861876E+03  0.91075235809E+02  0.62897114067E+03  0.65289597761E+03  0.25500000000E-02 0.  1.
<mgrwt>
<rscale>  0 0.44864143E+02</rscale>
<asrwt>0</asrwt>
<pdfrwt beam="1">  1       11 0.10000000E+01 0.17854546E+03</pdfrwt>
<pdfrwt beam="2">  1        2 0.60610077E-02 0.44864143E+02</pdfrwt>
<totfact> 0.12969061E+03</totfact>
</mgrwt>
</event>
<event>
 5    1  0.1851087E-003  0.5009224E+03  0.7818608E-02  0.1013538E+00
         11   -1    0    0    0    0  0.00000000000E+00  0.00000000000E+00  0.10000836454E+04  0.10000836454E+04  0.51100000000E-03 0. -1.
          2   -1    0    0  501    0 -0.00000000000E+00 -0.00000000000E+00 -0.44224208624E+03  0.44224208625E+03  0.25500000000E-02 0. -1.
         11    1    1    2    0    0  0.19878944471E+03 -0.38193449213E+02  0.33483967617E+03  0.39127176186E+03  0.51100000000E-03 0. -1.
         22    1    1    2    0    0  0.12071058021E+03  0.46595327834E+03  0.18545453181E+03  0.51582640989E+03  0.00000000000E+00 0. -1.
          2    1    1    2  501    0 -0.31950002492E+03 -0.42775982912E+03  0.37547351214E+02  0.53522755994E+03  0.25500000000E-02 0. -1.
<mgrwt>
<rscale>  0 0.50092243E+03</rscale>
<asrwt>0</asrwt>
<pdfrwt beam="1">  1       11 0.10000000E+01 0.20242525E+03</pdfrwt>
<pdfrwt beam="2">  1        2 0.68042933E-01 0.50092243E+03</pdfrwt>
<totfact> 0.88236739E+01</totfact>
</mgrwt>
</event>
<event>
 5    1  0.1851087E-003  0.1657243E+03  0.7818608E-02  0.1445497E+00
         11   -1    0    0    0    0  0.00000000000E+00  0.00000000000E+00  0.10003035786E+04  0.10003035786E+04  0.51100000000E-03 0. -1.
          2   -1    0    0  501    0 -0.00000000000E+00 -0.00000000000E+00 -0.49092380504E+02  0.49092380570E+02  0.25500000000E-02 0. -1.
         11    1    1    2    0    0 -0.46585658838E+02  0.15790971076E+03  0.77091587242E+03  0.78830005880E+03  0.51100000000E-03 0. -1.
         22    1    1    2    0    0 -0.14979672516E+02  0.16283674001E+01  0.29390958654E+02  0.33028330561E+02  0.00000000000E+00 0. -1.
          2    1    1    2  501    0  0.61565331354E+02 -0.15953807816E+03  0.15090436705E+03  0.22806756983E+03  0.25500000000E-02 0. -1.
<mgrwt>
<rscale>  0 0.49971198E+02</rscale>
<asrwt>0</asrwt>
<pdfrwt beam="1">  1       11 0.10000000E+01 0.16572433E+03</pdfrwt>
<pdfrwt beam="2">  1        2 0.75549665E-02 0.49971198E+02</pdfrwt>
<totfact> 0.99894135E+02</totfact>
</mgrwt>
</event>
<event>
 5    1  0.1851087E-003  0.7186148E+03  0.7818608E-02  0.9685918E-01
         11   -1    0    0    0    0  0.00000000000E+00  0.00000000000E+00  0.10005713690E+04  0.10005713690E+04  0.51100000000E-03 0.  1.
          2   -1    0    0  501    0 -0.00000000000E+00 -0.00000000000E+00 -0.73192062769E+03  0.73192062769E+03  0.25500000000E-02 0.  1.
         11    1    1    2    0    0  0.64870173347E+03 -0.29026526472E+03 -0.34271564950E+03  0.78900055724E+03  0.51100000000E-03 0.  1.
         22    1    1    2    0    0 -0.28043276085E+01  0.16620700458E+02  0.18621431103E+02  0.25117118333E+02  0.00000000000E+00 0. -1.
          2    1    1    2  501    0 -0.64589740586E+03  0.27364456427E+03  0.59274495973E+03  0.91837432115E+03  0.25500000000E-02 0.  1.
<mgrwt>
<rscale>  0 0.71861480E+03</rscale>
<asrwt>0</asrwt>
<pdfrwt beam="1">  1       11 0.10000000E+01 0.71068162E+03</pdfrwt>
<pdfrwt beam="2">  1        2 0.11266751E+00 0.71861480E+03</pdfrwt>
<totfact> 0.48024871E+01</totfact>
</mgrwt>
</event>
<event>
 5    1  0.1851087E-003  0.1337652E+03  0.7818608E-02  0.1221973E+00
         11   -1    0    0    0    0  0.00000000000E+00  0.00000000000E+00  0.10004201969E+04  0.10004201969E+04  0.51100000000E-03 0.  1.
          2   -1    0    0  501    0 -0.00000000000E+00 -0.00000000000E+00 -0.20030186094E+02  0.20030186256E+02  0.25500000000E-02 0.  1.
         11    1    1    2    0    0 -0.12104311029E+03  0.36754933935E+02  0.67937882492E+03  0.69105567610E+03  0.51100000000E-03 0.  1.
         22    1    1    2    0    0  0.56986306082E+02 -0.39974935108E+02  0.15939019888E+03  0.17392719746E+03  0.00000000000E+00 0.  1.
          2    1    1    2  501    0  0.64056804207E+02  0.32200011727E+01  0.14162098699E+03  0.15546750958E+03  0.25500000000E-02 0.  1.
<mgrwt>
<rscale>  0 0.13376524E+03</rscale>
<asrwt>0</asrwt>
<pdfrwt beam="1">  1       11 0.10000000E+01 0.12650043E+03</pdfrwt>
<pdfrwt beam="2">  1        2 0.30828619E-02 0.13376524E+03</pdfrwt>
<totfact> 0.34731989E+03</totfact>
</mgrwt>
</event>
<event>
 5    1  0.1851087E-003  0.1947747E+03  0.7818608E-02  0.1154224E+00
         11   -1    0    0    0    0  0.00000000000E+00  0.00000000000E+00  0.10006748018E+04  0.10006748018E+04  0.51100000000E-03 0. -1.
          2   -1    0    0  501    0 -0.00000000000E+00 -0.00000000000E+00 -0.10874980566E+03  0.10874980569E+03  0.25500000000E-02 0. -1.
         11    1    1    2    0    0 -0.44772329140E+02  0.18567300946E+03  0.89446911887E+03  0.91463327761E+03  0.51100000000E-03 0. -1.
         22    1    1    2    0    0  0.89456797381E+00 -0.26353216366E+02 -0.12620298759E+02  0.29232930155E+02  0.00000000000E+00 0.  1.
          2    1    1    2  501    0  0.43877761166E+02 -0.15931979309E+03  0.10076176057E+02  0.16555839974E+03  0.25500000000E-02 0. -1.
<mgrwt>
<rscale>  0 0.19477472E+03</rscale>
<asrwt>0</asrwt>
<pdfrwt beam="1">  1       11 0.10000000E+01 0.19099484E+03</pdfrwt>
<pdfrwt beam="2">  1        2 0.16742029E-01 0.19477472E+03</pdfrwt>
<totfact> 0.41719155E+02</totfact>
</mgrwt>
</event>
<event>
 5    1  0.1851087E-003  0.1666952E+03  0.7818608E-02  0.1361486E+00
         11   -1    0    0    0    0  0.00000000000E+00  0.00000000000E+00  0.10004125322E+04  0.10004125322E+04  0.51100000000E-03 0. -1.
          2   -1    0    0  501    0 -0.00000000000E+00 -0.00000000000E+00 -0.37744057638E+02  0.37744057724E+02  0.25500000000E-02 0. -1.
         11    1    1    2    0    0 -0.17936004855E+03 -0.36213466502E+02  0.37469816868E+03  0.41698940009E+03  0.51100000000E-03 0. -1.
         22    1    1    2    0    0  0.21872244924E+02  0.19123316608E+02  0.32700234873E+02  0.43742447312E+02  0.00000000000E+00 0. -1.
          2    1    1    2  501    0  0.15748780363E+03  0.17090149894E+02  0.55527007104E+03  0.57742474256E+03  0.25500000000E-02 0. -1.
<mgrwt>
<rscale>  0 0.69592018E+02</rscale>
<asrwt>0</asrwt>
<pdfrwt beam="1">  1       11 0.10000000E+01 0.16669519E+03</pdfrwt>
<pdfrwt beam="2">  1        2 0.58091734E-02 0.69592018E+02</pdfrwt>
<totfact> 0.14264206E+03</totfact>
</mgrwt>
</event>
<event>
 5    1  0.1851087E-003  0.1312129E+03  0.7818608E-02  0.1225667E+00
         11   -1    0    0    0    0  0.00000000000E+00  0.00000000000E+00  0.10003606262E+04  0.10003606262E+04  0.51100000000E-03 0. -1.
          2   -1    0    0  501    0 -0.00000000000E+00 -0.00000000000E+00 -0.19712542036E+02  0.19712542201E+02  0.25500000000E-02 0. -1.
         11    1    1    2    0    0 -0.38469032818E+02 -0.12217366386E+03  0.68122036428E+03  0.69315759777E+03  0.51100000000E-03 0. -1.
         22    1    1    2    0    0  0.15736025575E+02  0.19524701104E+02  0.43102423455E+02  0.49866375062E+02  0.00000000000E+00 0. -1.
          2    1    1    2  501    0  0.22733007243E+02  0.10264896276E+03  0.25632529643E+03  0.27704919558E+03  0.25500000000E-02 0. -1.
<mgrwt>
<rscale>  0 0.13121292E+03</rscale>
<asrwt>0</asrwt>
<pdfrwt beam="1">  1       11 0.10000000E+01 0.12808697E+03</pdfrwt>
<pdfrwt beam="2">  1        2 0.30337924E-02 0.13121292E+03</pdfrwt>
<totfact> 0.35418454E+03</totfact>
</mgrwt>
</event>
<event>
 5    1  0.1851087E-003  0.8492318E+02  0.7818608E-02  0.1561533E+00
         11   -1    0    0    0    0  0.00000000000E+00  0.00000000000E+00  0.10002434210E+04  0.10002434210E+04  0.51100000000E-03 0.  1.
          2   -1    0    0  501    0 -0.00000000000E+00 -0.00000000000E+00 -0.11951846733E+02  0.11951847005E+02  0.25500000000E-02 0.  1.
         11    1    1    2    0    0  0.70998411335E+02 -0.52308046146E+02  0.21475595961E+03  0.23215733521E+03  0.51100000000E-03 0.  1.
         22    1    1    2    0    0  0.33901161715E+01  0.12842507273E+02  0.54832283153E+02  0.56418101320E+02  0.00000000000E+00 0. -1.
          2    1    1    2  501    0 -0.74388527506E+02  0.39465538873E+02  0.71870333151E+03  0.72361983148E+03  0.25500000000E-02 0.  1.
<mgrwt>
<rscale>  0 0.33585495E+02</rscale>
<asrwt>0</asrwt>
<pdfrwt beam="1">  1       11 0.10000000E+01 0.84923182E+02</pdfrwt>
<pdfrwt beam="2">  1        2 0.18391932E-02 0.33585495E+02</pdfrwt>
<totfact> 0.57302815E+03</totfact>
</mgrwt>
</event>
<event>
 5    1  0.1851087E-003  0.1911002E+03  0.7818608E-02  0.1157473E+00
         11   -1    0    0    0    0  0.00000000000E+00  0.00000000000E+00  0.10001353966E+04  0.10001353966E+04  0.51100000000E-03 0. -1.
          2   -1    0    0  501    0 -0.00000000000E+00 -0.00000000000E+00 -0.17530840721E+03  0.17530840723E+03  0.25500000000E-02 0. -1.
         11    1    1    2    0    0  0.17224363423E+03 -0.69704229758E+02  0.93606271512E+03  0.95432696484E+03  0.51100000000E-03 0. -1.
         22    1    1    2    0    0 -0.15451188646E+02 -0.64053550864E+01 -0.79130801463E+01  0.18503638608E+02  0.00000000000E+00 0.  1.
          2    1    1    2  501    0 -0.15679244558E+03  0.76109584845E+02 -0.10332264554E+03  0.20261320042E+03  0.25500000000E-02 0. -1.
<mgrwt>
<rscale>  0 0.19110016E+03</rscale>
<asrwt>0</asrwt>
<pdfrwt beam="1">  1       11 0.10000000E+01 0.18581321E+03</pdfrwt>
<pdfrwt beam="2">  1        2 0.26974175E-01 0.19110016E+03</pdfrwt>
<totfact> 0.24267691E+02</totfact>
</mgrwt>
</event>
<event>
 5    1  0.1851087E-003  0.2218035E+03  0.7818608E-02  0.1132546E+00
         11   -1    0    0    0    0  0.00000000000E+00  0.00000000000E+00  0.10002813424E+04  0.10002813424E+04  0.51100000000E-03 0. -1.
          2   -1    0    0  501    0 -0.00000000000E+00 -0.00000000000E+00 -0.15564233394E+03  0.15564233396E+03  0.25500000000E-02 0. -1.
         11    1    1    2    0    0 -0.90076392512E+02  0.19130388491E+03  0.90230228676E+03  0.92674718752E+03  0.51100000000E-03 0. -1.
         22    1    1    2    0    0  0.83323809498E+02 -0.99700460409E+02 -0.32391478510E+02  0.13391133976E+03  0.00000000000E+00 0. -1.
          2    1    1    2  501    0  0.67525830141E+01 -0.91603424502E+02 -0.25271799805E+02  0.95265149083E+02  0.25500000000E-02 0. -1.
<mgrwt>
<rscale>  0 0.22180354E+03</rscale>
<asrwt>0</asrwt>
<pdfrwt beam="1">  1       11 0.10000000E+01 0.21144960E+03</pdfrwt>
<pdfrwt beam="2">  1        2 0.23951711E-01 0.22180354E+03</pdfrwt>
<totfact> 0.27792361E+02</totfact>
</mgrwt>
</event>
<event>
 5    1  0.1851087E-003  0.5023923E+02  0.7818608E-02  0.1558739E+00
         11   -1    0    0    0    0  0.00000000000E+00  0.00000000000E+00  0.99984205777E+03  0.99984205777E+03  0.51100000000E-03 0. -1.
         -2   -1    0    0    0  501 -0.00000000000E+00 -0.00000000000E+00 -0.11206082239E+02  0.11206082529E+02  0.25500000000E-02 0. -1.
         11    1    1    2    0    0 -0.24137231406E+02 -0.48579613388E+02  0.17584655019E+03  0.18402335175E+03  0.51100000000E-03 0. -1.
         22    1    1    2    0    0  0.45366604825E+02  0.22170338819E+02  0.88105710243E+02  0.10154934236E+03  0.00000000000E+00 0.  1.
         -2    1    1    2    0  501 -0.21229373418E+02  0.26409274569E+02  0.72468371510E+03  0.72547544618E+03  0.25500000000E-02 0. -1.
<mgrwt>
<rscale>  0 0.33884157E+02</rscale>
<asrwt>0</asrwt>
<pdfrwt beam="1">  1       11 0.10000000E+01 0.50239235E+02</pdfrwt>
<pdfrwt beam="2">  1       -2 0.17237403E-02 0.33884157E+02</pdfrwt>
<totfact> 0.57269695E+03</totfact>
</mgrwt>
</event>
<event>
 5    1  0.1851087E-003  0.2167828E+03  0.7818608E-02  0.1136305E+00
         11   -1    0    0    0    0  0.00000000000E+00  0.00000000000E+00  0.10000691014E+04  0.10000691014E+04  0.51100000000E-03 0. -1.
          2   -1    0    0  501    0 -0.00000000000E+00 -0.00000000000E+00 -0.56688806314E+02  0.56688806371E+02  0.25500000000E-02 0. -1.
         11    1    1    2    0    0  0.22736666727E+02 -0.20778296691E+03  0.70136030045E+03  0.73184492101E+03  0.51100000000E-03 0. -1.
         22    1    1    2    0    0 -0.15766627920E+02  0.57195533255E+02  0.35204109306E+02  0.68987280656E+02  0.00000000000E+00 0. -1.
          2    1    1    2  501    0 -0.69700388071E+01  0.15058743365E+03  0.20681588530E+03  0.25592570608E+03  0.25500000000E-02 0. -1.
<mgrwt>
<rscale>  0 0.21678277E+03</rscale>
<asrwt>0</asrwt>
<pdfrwt beam="1">  1       11 0.10000000E+01 0.20902325E+03</pdfrwt>
<pdfrwt beam="2">  1        2 0.87219572E-02 0.21678277E+03</pdfrwt>
<totfact> 0.92546039E+02</totfact>
</mgrwt>
</event>
<event>
 5    1  0.1911886E-003  0.1832551E+03  0.7818608E-02  0.1164689E+00
         11   -1    0    0    0    0  0.00000000000E+00  0.00000000000E+00  0.10005115125E+04  0.10005115125E+04  0.51100000000E-03 0.  1.
          2   -1    0    0  501    0 -0.00000000000E+00 -0.00000000000E+00 -0.51303368107E+03  0.51303368108E+03  0.25500000000E-02 0.  1.
         11    1    1    2    0    0  0.17319876546E+03 -0.40522160934E+02  0.97584684382E+03  0.99192586440E+03  0.51100000000E-03 0.  1.
         22    1    1    2    0    0 -0.97467575569E+01 -0.76670743081E+01 -0.24939415424E+02  0.27852428135E+02  0.00000000000E+00 0.  1.
          2    1    1    2  501    0 -0.16345200790E+03  0.48189235242E+02 -0.46342959693E+03  0.49376690108E+03  0.25500000000E-02 0.  1.
<mgrwt>
<rscale>  0 0.18325510E+03</rscale>
<asrwt>0</asrwt>
<pdfrwt beam="1">  1       11 0.10000000E+01 0.17787596E+03</pdfrwt>
<pdfrwt beam="2">  1        2 0.78968629E-01 0.18325510E+03</pdfrwt>
<totfact> 0.75769140E+01</totfact>
</mgrwt>
</event>
<event>
 5    1  0.2203181E-003  0.3876366E+03  0.7818608E-02  0.1048147E+00
         11   -1    0    0    0    0  0.00000000000E+00  0.00000000000E+00  0.10002271760E+04  0.10002271760E+04  0.51100000000E-03 0. -1.
          2   -1    0    0  501    0 -0.00000000000E+00 -0.00000000000E+00 -0.52285335451E+03  0.52285335452E+03  0.25500000000E-02 0. -1.
         11    1    1    2    0    0 -0.27998915145E+03  0.26285096591E+03  0.88246107901E+03  0.96240433872E+03  0.51100000000E-03 0. -1.
         22    1    1    2    0    0  0.15115562154E+02 -0.10213489408E+02 -0.38645129853E+02  0.42734548628E+02  0.00000000000E+00 0. -1.
          2    1    1    2  501    0  0.26487358930E+03 -0.25263747650E+03 -0.36644212764E+03  0.51794164320E+03  0.25500000000E-02 0. -1.
<mgrwt>
<rscale>  0 0.38763656E+03</rscale>
<asrwt>0</asrwt>
<pdfrwt beam="1">  1       11 0.10000000E+01 0.38403718E+03</pdfrwt>
<pdfrwt beam="2">  1        2 0.80457249E-01 0.38763656E+03</pdfrwt>
<totfact> 0.73225163E+01</totfact>
</mgrwt>
</event>
<event>
 5    1  0.1851087E-003  0.2279906E+03  0.7818608E-02  0.1473996E+00
         11   -1    0    0    0    0  0.00000000000E+00  0.00000000000E+00  0.10001747924E+04  0.10001747924E+04  0.51100000000E-03 0.  1.
         -2   -1    0    0    0  501 -0.00000000000E+00 -0.00000000000E+00 -0.12793304360E+03  0.12793304363E+03  0.25500000000E-02 0. -1.
         11    1    1    2    0    0  0.21783703518E+03  0.85753227366E+02  0.80746768232E+03  0.84072031490E+03  0.51100000000E-03 0.  1.
         22    1    1    2    0    0 -0.17644008478E+03 -0.67968963262E+02 -0.21259296065E+02  0.19027044214E+03  0.00000000000E+00 0. -1.
         -2    1    1    2    0  501 -0.41396950404E+02 -0.17784264105E+02  0.86033362498E+02  0.97117078940E+02  0.25500000000E-02 0. -1.
<mgrwt>
<rscale>  0 0.45055383E+02</rscale>
<asrwt>0</asrwt>
<pdfrwt beam="1">  1       11 0.10000000E+01 0.22799058E+03</pdfrwt>
<pdfrwt beam="2">  1       -2 0.19685446E-01 0.45055383E+02</pdfrwt>
<totfact> 0.16201952E+02</totfact>
</mgrwt>
</event>
<event>
 5    1  0.1851087E-003  0.4822507E+02  0.7818608E-02  0.1706492E+00
         11   -1    0    0    0    0  0.00000000000E+00  0.00000000000E+00  0.10004874579E+04  0.10004874579E+04  0.51100000000E-03 0.  1.
          2   -1    0    0  501    0 -0.00000000000E+00 -0.00000000000E+00 -0.44563066377E+01  0.44563073673E+01  0.25500000000E-02 0.  1.
         11    1    1    2    0    0 -0.50777434580E+02 -0.17289018499E+02  0.26160315620E+03  0.26704581884E+03  0.51100000000E-03 0.  1.
         22    1    1    2    0    0  0.47057833618E+01  0.89702906150E+01  0.25684147463E+02  0.27609526285E+02  0.00000000000E+00 0.  1.
          2    1    1    2  501    0  0.46071651218E+02  0.83187278840E+01  0.70874384761E+03  0.71028842016E+03  0.25500000000E-02 0.  1.
<mgrwt>
<rscale>  0 0.22102138E+02</rscale>
<asrwt>0</asrwt>
<pdfrwt beam="1">  1       11 0.10000000E+01 0.48225069E+02</pdfrwt>
<pdfrwt beam="2">  1        2 0.68591987E-03 0.22102138E+02</pdfrwt>
<totfact> 0.19075702E+04</totfact>
</mgrwt>
</event>
<event>
 5    1  0.1851087E-003  0.1113314E+03  0.7818608E-02  0.1258124E+00
         11   -1    0    0    0    0  0.00000000000E+00  0.00000000000E+00  0.10001390389E+04  0.10001390389E+04  0.51100000000E-03 0. -1.
         -2   -1    0    0    0  501 -0.00000000000E+00 -0.00000000000E+00 -0.12155897049E+02  0.12155897316E+02  0.25500000000E-02 0. -1.
         11    1    1    2    0    0  0.27369188130E+02 -0.10223111247E+03  0.56985224823E+03  0.57959628849E+03  0.51100000000E-03 0. -1.
         22    1    1    2    0    0 -0.76976569721E+01  0.55973279610E+02  0.15907332219E+03  0.16880931190E+03  0.00000000000E+00 0. -1.
         -2    1    1    2    0  501 -0.19671531158E+02  0.46257832863E+02  0.25905757147E+03  0.26388933586E+03  0.25500000000E-02 0. -1.
<mgrwt>
<rscale>  0 0.11133138E+03</rscale>
<asrwt>0</asrwt>
<pdfrwt beam="1">  1       11 0.10000000E+01 0.10583134E+03</pdfrwt>
<pdfrwt beam="2">  1       -2 0.18703980E-02 0.11133138E+03</pdfrwt>
<totfact> 0.61265351E+03</totfact>
</mgrwt>
</event>
<event>
 5    1  0.1851087E-003  0.1485759E+03  0.7818608E-02  0.1202234E+00
         11   -1    0    0    0    0  0.00000000000E+00  0.00000000000E+00  0.10001442123E+04  0.10001442123E+04  0.51100000000E-03 0.  1.
         -2   -1    0    0    0  501 -0.00000000000E+00 -0.00000000000E+00 -0.35620998198E+02  0.35620998289E+02  0.25500000000E-02 0. -1.
         11    1    1    2    0    0  0.54343945438E+02  0.13280596383E+03  0.80531433040E+03  0.81799869143E+03  0.51100000000E-03 0.  1.
         22    1    1    2    0    0  0.12193661935E+01 -0.16585419881E+02  0.61936069068E+01  0.17746091768E+02  0.00000000000E+00 0. -1.
         -2    1    1    2    0  501 -0.55563311632E+02 -0.11622054395E+03  0.15301527681E+03  0.20002042741E+03  0.25500000000E-02 0. -1.
<mgrwt>
<rscale>  0 0.14857587E+03</rscale>
<asrwt>0</asrwt>
<pdfrwt beam="1">  1       11 0.10000000E+01 0.14349456E+03</pdfrwt>
<pdfrwt beam="2">  1       -2 0.54809437E-02 0.14857587E+03</pdfrwt>
<totfact> 0.12961938E+03</totfact>
</mgrwt>
</event>
<event>
 5    1  0.1851087E-003  0.2010285E+03  0.7818608E-02  0.1148874E+00
         11   -1    0    0    0    0  0.00000000000E+00  0.00000000000E+00  0.10002583438E+04  0.10002583438E+04  0.51100000000E-03 0. -1.
          2   -1    0    0  501    0 -0.00000000000E+00 -0.00000000000E+00 -0.65255912087E+02  0.65255912137E+02  0.25500000000E-02 0. -1.
         11    1    1    2    0    0  0.86692100557E+02  0.17957620203E+03  0.79726952008E+03  0.82182833992E+03  0.51100000000E-03 0. -1.
         22    1    1    2    0    0 -0.87908302497E+01 -0.61785859670E+01  0.98816922636E+01  0.14597995171E+02  0.00000000000E+00 0.  1.
          2    1    1    2  501    0 -0.77901270307E+02 -0.17339761607E+03  0.12785121934E+03  0.22908792082E+03  0.25500000000E-02 0. -1.
<mgrwt>
<rscale>  0 0.20102853E+03</rscale>
<asrwt>0</asrwt>
<pdfrwt beam="1">  1       11 0.10000000E+01 0.19940695E+03</pdfrwt>
<pdfrwt beam="2">  1        2 0.10041964E-01 0.20102853E+03</pdfrwt>
<totfact> 0.77288480E+02</totfact>
</mgrwt>
</event>
<event>
 5    1  0.1851087E-003  0.1328501E+03  0.7818608E-02  0.1223287E+00
         11   -1    0    0    0    0  0.00000000000E+00  0.00000000000E+00  0.10000531151E+04  0.10000531151E+04  0.51100000000E-03 0. -1.
          2   -1    0    0  501    0 -0.00000000000E+00 -0.00000000000E+00 -0.17891638074E+02  0.17891638256E+02  0.25500000000E-02 0. -1.
         11    1    1    2    0    0  0.12303628921E+03 -0.41987971194E+02  0.58065361862E+03  0.59502902702E+03  0.51100000000E-03 0. -1.
         22    1    1    2    0    0 -0.16162066085E+02  0.11295982858E+02  0.38442744666E+02  0.43204817166E+02  0.00000000000E+00 0. -1.
          2    1    1    2  501    0 -0.10687422313E+03  0.30691988336E+02  0.36306511379E+03  0.37971090921E+03  0.25500000000E-02 0. -1.
<mgrwt>
<rscale>  0 0.13285011E+03</rscale>
<asrwt>0</asrwt>
<pdfrwt beam="1">  1       11 0.10000000E+01 0.13000353E+03</pdfrwt>
<pdfrwt beam="2">  1        2 0.27527058E-02 0.13285011E+03</pdfrwt>
<totfact> 0.40419971E+03</totfact>
</mgrwt>
</event>
<event>
 5    1  0.1851087E-003  0.1242642E+03  0.7818608E-02  0.1236224E+00
         11   -1    0    0    0    0  0.00000000000E+00  0.00000000000E+00  0.10001645204E+04  0.10001645204E+04  0.51100000000E-03 0. -1.
          2   -1    0    0  501    0 -0.00000000000E+00 -0.00000000000E+00 -0.15299529547E+02  0.15299529760E+02  0.25500000000E-02 0. -1.
         11    1    1    2    0    0 -0.11267970705E+03  0.43593009354E+02  0.55500737450E+03  0.56800550402E+03  0.51100000000E-03 0. -1.
         22    1    1    2    0    0  0.81701964886E+01 -0.12695988073E+02  0.60793867904E+02  0.62640518824E+02  0.00000000000E+00 0. -1.
          2    1    1    2  501    0  0.10450951057E+03 -0.30897021281E+02  0.36906374847E+03  0.38481802733E+03  0.25500000000E-02 0. -1.
<mgrwt>
<rscale>  0 0.12426415E+03</rscale>
<asrwt>0</asrwt>
<pdfrwt beam="1">  1       11 0.10000000E+01 0.12081832E+03</pdfrwt>
<pdfrwt beam="2">  1        2 0.23541610E-02 0.12426415E+03</pdfrwt>
<totfact> 0.49563708E+03</totfact>
</mgrwt>
</event>
<event>
 5    1  0.1851087E-003  0.1586932E+03  0.7818608E-02  0.1190180E+00
         11   -1    0    0    0    0  0.00000000000E+00  0.00000000000E+00  0.10001902495E+04  0.10001902495E+04  0.51100000000E-03 0. -1.
          2   -1    0    0  501    0 -0.00000000000E+00 -0.00000000000E+00 -0.26133921838E+02  0.26133921962E+02  0.25500000000E-02 0. -1.
         11    1    1    2    0    0  0.14813653524E+03  0.39735056183E+02  0.61366024050E+03  0.63253632191E+03  0.51100000000E-03 0. -1.
         22    1    1    2    0    0 -0.30800413165E+02 -0.28917828563E+01  0.39779935491E+02  0.50393165479E+02  0.00000000000E+00 0.  1.
          2    1    1    2  501    0 -0.11733612208E+03 -0.36843273327E+02  0.32061615172E+03  0.34339468412E+03  0.25500000000E-02 0. -1.
<mgrwt>
<rscale>  0 0.15869320E+03</rscale>
<asrwt>0</asrwt>
<pdfrwt beam="1">  1       11 0.10000000E+01 0.15337310E+03</pdfrwt>
<pdfrwt beam="2">  1        2 0.40213682E-02 0.15869320E+03</pdfrwt>
<totfact> 0.24745232E+03</totfact>
</mgrwt>
</event>
<event>
 5    1  0.1851087E-003  0.1774966E+03  0.7818608E-02  0.1170248E+00
         11   -1    0    0    0    0  0.00000000000E+00  0.00000000000E+00  0.10000719658E+04  0.10000719658E+04  0.51100000000E-03 0. -1.
          2   -1    0    0  501    0 -0.00000000000E+00 -0.00000000000E+00 -0.30861825249E+02  0.30861825354E+02  0.25500000000E-02 0. -1.
         11    1    1    2    0    0  0.13933888654E+03 -0.10393502125E+03  0.47238167445E+03  0.50335103089E+03  0.51100000000E-03 0. -1.
         22    1    1    2    0    0 -0.10148603696E+02  0.69384814853E+01  0.15008790976E+02  0.19401043499E+02  0.00000000000E+00 0.  1.
          2    1    1    2  501    0 -0.12919028284E+03  0.96996539763E+02  0.48181967510E+03  0.50818171673E+03  0.25500000000E-02 0. -1.
<mgrwt>
<rscale>  0 0.17749660E+03</rscale>
<asrwt>0</asrwt>
<pdfrwt beam="1">  1       11 0.10000000E+01 0.17383281E+03</pdfrwt>
<pdfrwt beam="2">  1        2 0.47483147E-02 0.17749660E+03</pdfrwt>
<totfact> 0.20039347E+03</totfact>
</mgrwt>
</event>
<event>
 5    1  0.1851087E-003  0.1521113E+03  0.7818608E-02  0.1289084E+00
         11   -1    0    0    0    0  0.00000000000E+00  0.00000000000E+00  0.10003890266E+04  0.10003890266E+04  0.51100000000E-03 0. -1.
          2   -1    0    0  501    0 -0.00000000000E+00 -0.00000000000E+00 -0.49699969256E+02  0.49699969321E+02  0.25500000000E-02 0. -1.
         11    1    1    2    0    0  0.17174326116E+03 -0.40158868715E+02  0.69807887864E+03  0.72001569656E+03  0.51100000000E-03 0. -1.
         22    1    1    2    0    0 -0.78193320693E+02  0.61417790003E+02  0.63376020809E+02  0.11791039116E+03  0.00000000000E+00 0. -1.
          2    1    1    2  501    0 -0.93549940467E+02 -0.21258921288E+02  0.18923415790E+03  0.21216290821E+03  0.25500000000E-02 0. -1.
<mgrwt>
<rscale>  0 0.95935046E+02</rscale>
<asrwt>0</asrwt>
<pdfrwt beam="1">  1       11 0.10000000E+01 0.15211130E+03</pdfrwt>
<pdfrwt beam="2">  1        2 0.76491235E-02 0.95935046E+02</pdfrwt>
<totfact> 0.10363870E+03</totfact>
</mgrwt>
</event>
<event>
 5    1  0.1851087E-003  0.2004605E+03  0.7818608E-02  0.1149351E+00
         11   -1    0    0    0    0  0.00000000000E+00  0.00000000000E+00  0.10007519135E+04  0.10007519135E+04  0.51100000000E-03 0.  1.
         -2   -1    0    0    0  501 -0.00000000000E+00 -0.00000000000E+00 -0.35760201710E+03  0.35760201710E+03  0.25500000000E-02 0. -1.
         11    1    1    2    0    0 -0.18308038073E+03 -0.69473302753E+02  0.96199826961E+03  0.98172584581E+03  0.51100000000E-03 0.  1.
         22    1    1    2    0    0  0.40625121148E+02  0.34107384277E+02 -0.71859942181E+02  0.89317217941E+02  0.00000000000E+00 0. -1.
         -2    1    1    2    0  501  0.14245525958E+03  0.35365918476E+02 -0.24698843100E+03  0.28731086688E+03  0.25500000000E-02 0. -1.
<mgrwt>
<rscale>  0 0.20046054E+03</rscale>
<asrwt>0</asrwt>
<pdfrwt beam="1">  1       11 0.10000000E+01 0.19581871E+03</pdfrwt>
<pdfrwt beam="2">  1       -2 0.55057060E-01 0.20046054E+03</pdfrwt>
<totfact> 0.25657376E+01</totfact>
</mgrwt>
</event>
<event>
 5    1  0.2019886E-003  0.1899518E+03  0.7818608E-02  0.1158505E+00
         11   -1    0    0    0    0  0.00000000000E+00  0.00000000000E+00  0.10001626610E+04  0.10001626610E+04  0.51100000000E-03 0. -1.
          2   -1    0    0  501    0 -0.00000000000E+00 -0.00000000000E+00 -0.21223665340E+03  0.21223665342E+03  0.25500000000E-02 0.  1.
         11    1    1    2    0    0  0.31474997130E+02 -0.18524634701E+03  0.94649172285E+03  0.96496293502E+03  0.51100000000E-03 0. -1.
         22    1    1    2    0    0 -0.77558683287E+01  0.81414321535E+01 -0.10276010099E+02  0.15232622709E+02  0.00000000000E+00 0. -1.
          2    1    1    2  501    0 -0.23719128802E+02  0.17710491485E+03 -0.14828970519E+03  0.23220375666E+03  0.25500000000E-02 0.  1.
<mgrwt>
<rscale>  0 0.18995177E+03</rscale>
<asrwt>0</asrwt>
<pdfrwt beam="1">  1       11 0.10000000E+01 0.18790126E+03</pdfrwt>
<pdfrwt beam="2">  1        2 0.32657103E-01 0.18995177E+03</pdfrwt>
<totfact> 0.19680916E+02</totfact>
</mgrwt>
</event>
<event>
 5    1  0.1851087E-003  0.4526586E+03  0.7818608E-02  0.1213303E+00
         11   -1    0    0    0    0  0.00000000000E+00  0.00000000000E+00  0.99990187604E+03  0.99990187604E+03  0.51100000000E-03 0.  1.
          2   -1    0    0  501    0 -0.00000000000E+00 -0.00000000000E+00 -0.91136224632E+03  0.91136224632E+03  0.25500000000E-02 0.  1.
         11    1    1    2    0    0  0.33058044029E+02  0.45460367420E+03  0.87396412890E+03  0.98568282601E+03  0.51100000000E-03 0.  1.
         22    1    1    2    0    0  0.15472978144E+02 -0.40453436463E+02 -0.21313761080E+03  0.21749375787E+03  0.00000000000E+00 0. -1.
          2    1    1    2  501    0 -0.48531022173E+02 -0.41415023774E+03 -0.57228688838E+03  0.70808753848E+03  0.25500000000E-02 0.  1.
<mgrwt>
<rscale>  0 0.14001915E+03</rscale>
<asrwt>0</asrwt>
<pdfrwt beam="1">  1       11 0.10000000E+01 0.45265858E+03</pdfrwt>
<pdfrwt beam="2">  1        2 0.14019581E+00 0.14001915E+03</pdfrwt>
<totfact> 0.38435852E+01</totfact>
</mgrwt>
</event>
<event>
 5    1  0.1851087E-003  0.2165836E+03  0.7818608E-02  0.1136456E+00
         11   -1    0    0    0    0  0.00000000000E+00  0.00000000000E+00  0.10002768887E+04  0.10002768887E+04  0.51100000000E-03 0. -1.
          2   -1    0    0  501    0 -0.00000000000E+00 -0.00000000000E+00 -0.60449215846E+02  0.60449215900E+02  0.25500000000E-02 0. -1.
         11    1    1    2    0    0  0.10576769272E+03  0.18705427712E+03  0.72300009945E+03  0.75425807998E+03  0.51100000000E-03 0. -1.
         22    1    1    2    0    0 -0.98479059060E+01 -0.99703856568E+01  0.71298213543E+01  0.15723364571E+02  0.00000000000E+00 0. -1.
          2    1    1    2  501    0 -0.95919786815E+02 -0.17708389146E+03  0.20969775201E+03  0.29074466001E+03  0.25500000000E-02 0. -1.
<mgrwt>
<rscale>  0 0.21658359E+03</rscale>
<asrwt>0</asrwt>
<pdfrwt beam="1">  1       11 0.10000000E+01 0.21488627E+03</pdfrwt>
<pdfrwt beam="2">  1        2 0.93024541E-02 0.21658359E+03</pdfrwt>
<totfact> 0.85344318E+02</totfact>
</mgrwt>
</event>
<event>
 5    1  0.1851087E-003  0.2441343E+03  0.7818608E-02  0.1231741E+00
         11   -1    0    0    0    0  0.00000000000E+00  0.00000000000E+00  0.10001398181E+04  0.10001398181E+04  0.51100000000E-03 0. -1.
         -2   -1    0    0    0  501 -0.00000000000E+00 -0.00000000000E+00 -0.29892038444E+03  0.29892038445E+03  0.25500000000E-02 0.  1.
         11    1    1    2    0    0  0.21063833926E+03 -0.12993850041E+03  0.90205637816E+03  0.93539202115E+03  0.51100000000E-03 0. -1.
         22    1    1    2    0    0 -0.28105159935E+02  0.59966828462E+02  0.19573251399E+02  0.69058183448E+02  0.00000000000E+00 0. -1.
         -2    1    1    2    0  501 -0.18253317932E+03  0.69971671949E+02 -0.22041019590E+03  0.29460999795E+03  0.25500000000E-02 0.  1.
<mgrwt>
<rscale>  0 0.12715388E+03</rscale>
<asrwt>0</asrwt>
<pdfrwt beam="1">  1       11 0.10000000E+01 0.24413433E+03</pdfrwt>
<pdfrwt beam="2">  1       -2 0.45994180E-01 0.12715388E+03</pdfrwt>
<totfact> 0.36718486E+01</totfact>
</mgrwt>
</event>
<event>
 5    1  0.1851087E-003  0.1434470E+03  0.7818608E-02  0.1208765E+00
         11   -1    0    0    0    0  0.00000000000E+00  0.00000000000E+00  0.10005059443E+04  0.10005059443E+04  0.51100000000E-03 0. -1.
          2   -1    0    0  501    0 -0.00000000000E+00 -0.00000000000E+00 -0.20130394751E+02  0.20130394912E+02  0.25500000000E-02 0. -1.
         11    1    1    2    0    0  0.64567163997E+01 -0.13713625624E+03  0.40446990579E+03  0.42713457675E+03  0.51100000000E-03 0. -1.
         22    1    1    2    0    0  0.14735503846E+02  0.94729294492E+02  0.37148117795E+03  0.38365223820E+03  0.00000000000E+00 0. -1.
          2    1    1    2  501    0 -0.21192220246E+02  0.42406961753E+02  0.20442446581E+03  0.20984952426E+03  0.25500000000E-02 0. -1.
<mgrwt>
<rscale>  0 0.14344696E+03</rscale>
<asrwt>0</asrwt>
<pdfrwt beam="1">  1       11 0.10000000E+01 0.13728824E+03</pdfrwt>
<pdfrwt beam="2">  1        2 0.30985506E-02 0.14344696E+03</pdfrwt>
<totfact> 0.34736756E+03</totfact>
</mgrwt>
</event>
<event>
 5    1  0.1851087E-003  0.1857584E+03  0.7818608E-02  0.1162344E+00
         11   -1    0    0    0    0  0.00000000000E+00  0.00000000000E+00  0.10002698021E+04  0.10002698021E+04  0.51100000000E-03 0. -1.
          2   -1    0    0  501    0 -0.00000000000E+00 -0.00000000000E+00 -0.36612409419E+02  0.36612409508E+02  0.25500000000E-02 0. -1.
         11    1    1    2    0    0  0.17113829233E+03 -0.63518678666E+02  0.61896986347E+03  0.64532676182E+03  0.51100000000E-03 0. -1.
         22    1    1    2    0    0 -0.48281827636E+02  0.30623852346E+02  0.85661155318E+02  0.10298926518E+03  0.00000000000E+00 0. -1.
          2    1    1    2  501    0 -0.12285646470E+03  0.32894826320E+02  0.25902637389E+03  0.28856618460E+03  0.25500000000E-02 0. -1.
<mgrwt>
<rscale>  0 0.18575838E+03</rscale>
<asrwt>0</asrwt>
<pdfrwt beam="1">  1       11 0.10000000E+01 0.18254571E+03</pdfrwt>
<pdfrwt beam="2">  1        2 0.56341979E-02 0.18575838E+03</pdfrwt>
<totfact> 0.16063511E+03</totfact>
</mgrwt>
</event>
<event>
 5    1  0.1851087E-003  0.5395995E+03  0.7818608E-02  0.1003930E+00
         11   -1    0    0    0    0  0.00000000000E+00  0.00000000000E+00  0.10001746520E+04  0.10001746520E+04  0.51100000000E-03 0.  1.
          2   -1    0    0  501    0 -0.00000000000E+00 -0.00000000000E+00 -0.40386763364E+03  0.40386763365E+03  0.25500000000E-02 0.  1.
         11    1    1    2    0    0 -0.49382465295E+03 -0.19860762892E+03  0.67405525030E+03  0.85887033863E+03  0.51100000000E-03 0.  1.
         22    1    1    2    0    0  0.14548609923E+02  0.11092479960E+02 -0.20292451554E+02  0.27321946351E+02  0.00000000000E+00 0.  1.
          2    1    1    2  501    0  0.47927604302E+03  0.18751514896E+03 -0.57455780370E+02  0.51785000069E+03  0.25500000000E-02 0.  1.
<mgrwt>
<rscale>  0 0.53959954E+03</rscale>
<asrwt>0</asrwt>
<pdfrwt beam="1">  1       11 0.10000000E+01 0.53226664E+03</pdfrwt>
<pdfrwt beam="2">  1        2 0.62144332E-01 0.53959954E+03</pdfrwt>
<totfact> 0.97602330E+01</totfact>
</mgrwt>
</event>
<event>
 5    1  0.1851087E-003  0.2089182E+03  0.7818608E-02  0.1715965E+00
         11   -1    0    0    0    0  0.00000000000E+00  0.00000000000E+00  0.99998436476E+03  0.99998436476E+03  0.51100000000E-03 0. -1.
          2   -1    0    0  501    0 -0.00000000000E+00 -0.00000000000E+00 -0.48113038700E+03  0.48113038701E+03  0.25500000000E-02 0. -1.
         11    1    1    2    0    0  0.10679772557E+03  0.17974678881E+03  0.92098508336E+03  0.94441949686E+03  0.51100000000E-03 0. -1.
         22    1    1    2    0    0 -0.85766764245E+02 -0.18449595175E+03 -0.44466957057E+03  0.48900482723E+03  0.00000000000E+00 0. -1.
          2    1    1    2  501    0 -0.21030961326E+02  0.47491629447E+01  0.42538464967E+02  0.47690427669E+02  0.25500000000E-02 0. -1.
<mgrwt>
<rscale>  0 0.21560517E+02</rscale>
<asrwt>0</asrwt>
<pdfrwt beam="1">  1       11 0.10000000E+01 0.20891816E+03</pdfrwt>
<pdfrwt beam="2">  1        2 0.74018900E-01 0.21560517E+02</pdfrwt>
<totfact> 0.83219865E+01</totfact>
</mgrwt>
</event>
<event>
 5    1  0.1851087E-003  0.7638015E+03  0.7818608E-02  0.9613943E-01
         11   -1    0    0    0    0  0.00000000000E+00  0.00000000000E+00  0.10000149726E+04  0.10000149726E+04  0.51100000000E-03 0. -1.
          2   -1    0    0  501    0 -0.00000000000E+00 -0.00000000000E+00 -0.89853353778E+03  0.89853353778E+03  0.25500000000E-02 0. -1.
         11    1    1    2    0    0  0.74544797584E+03  0.16107376610E+03  0.61368809139E+03  0.97890271034E+03  0.51100000000E-03 0. -1.
         22    1    1    2    0    0 -0.10140839811E+02  0.10743984810E+01 -0.29021646617E+01  0.10602524411E+02  0.00000000000E+00 0. -1.
          2    1    1    2  501    0 -0.73530713603E+03 -0.16214816458E+03 -0.50930449187E+03  0.90904327566E+03  0.25500000000E-02 0. -1.
<mgrwt>
<rscale>  0 0.76380150E+03</rscale>
<asrwt>0</asrwt>
<pdfrwt beam="1">  1       11 0.10000000E+01 0.76265159E+03</pdfrwt>
<pdfrwt beam="2">  1        2 0.13823799E+00 0.76380150E+03</pdfrwt>
<totfact> 0.36478700E+01</totfact>
</mgrwt>
</event>
<event>
 5    1  0.1851087E-003  0.5061670E+02  0.7818608E-02  0.1537805E+00
         11   -1    0    0    0    0  0.00000000000E+00  0.00000000000E+00  0.10002136942E+04  0.10002136942E+04  0.51100000000E-03 0. -1.
          2   -1    0    0  501    0 -0.00000000000E+00 -0.00000000000E+00 -0.79059849700E+01  0.79059853812E+01  0.25500000000E-02 0. -1.
         11    1    1    2    0    0  0.43046303700E+02 -0.51393182291E+02  0.19978672829E+03  0.21073438317E+03  0.51100000000E-03 0. -1.
         22    1    1    2    0    0 -0.18005611669E+01  0.25893048833E+02  0.10515585075E+03  0.10831179504E+03  0.00000000000E+00 0. -1.
          2    1    1    2  501    0 -0.41245742534E+02  0.25500133458E+02  0.68736513021E+03  0.68907350139E+03  0.25500000000E-02 0. -1.
<mgrwt>
<rscale>  0 0.36246171E+02</rscale>
<asrwt>0</asrwt>
<pdfrwt beam="1">  1       11 0.10000000E+01 0.50616695E+02</pdfrwt>
<pdfrwt beam="2">  1        2 0.12165653E-02 0.36246171E+02</pdfrwt>
<totfact> 0.10000742E+04</totfact>
</mgrwt>
</event>
<event>
 5    1  0.1851087E-003  0.8583834E+02  0.7818608E-02  0.1556600E+00
         11   -1    0    0    0    0  0.00000000000E+00  0.00000000000E+00  0.10005766066E+04  0.10005766066E+04  0.51100000000E-03 0. -1.
         -2   -1    0    0    0  501 -0.00000000000E+00 -0.00000000000E+00 -0.93326511138E+01  0.93326514621E+01  0.25500000000E-02 0. -1.
         11    1    1    2    0    0  0.23119672824E+02  0.86674729792E+02  0.46620655481E+03  0.47475844363E+03  0.51100000000E-03 0. -1.
         22    1    1    2    0    0  0.90739380312E+01 -0.10074777909E+02  0.26822153414E+02  0.30054374308E+02  0.00000000000E+00 0. -1.
         -2    1    1    2    0  501 -0.32193610855E+02 -0.76599951883E+02  0.49821524729E+03  0.50509644014E+03  0.25500000000E-02 0. -1.
<mgrwt>
<rscale>  0 0.34115291E+02</rscale>
<asrwt>0</asrwt>
<pdfrwt beam="1">  1       11 0.10000000E+01 0.85838345E+02</pdfrwt>
<pdfrwt beam="2">  1       -2 0.14366204E-02 0.34115291E+02</pdfrwt>
<totfact> 0.73793992E+03</totfact>
</mgrwt>
</event>
<event>
 5    1  0.1851087E-003  0.7147731E+03  0.7818608E-02  0.9692297E-01
         11   -1    0    0    0    0  0.00000000000E+00  0.00000000000E+00  0.10006137645E+04  0.10006137645E+04  0.51100000000E-03 0. -1.
          2   -1    0    0  501    0 -0.00000000000E+00 -0.00000000000E+00 -0.65767021833E+03  0.65767021834E+03  0.25500000000E-02 0. -1.
         11    1    1    2    0    0 -0.70891001187E+03  0.48073998164E+02 -0.22503435519E+03  0.74532206143E+03  0.51100000000E-03 0. -1.
         22    1    1    2    0    0  0.29373261154E+02 -0.43588291175E+01  0.65262554499E+01  0.30403616106E+02  0.00000000000E+00 0. -1.
          2    1    1    2  501    0  0.67953675072E+03 -0.43715169047E+02  0.56145164594E+03  0.88255830533E+03  0.25500000000E-02 0. -1.
<mgrwt>
<rscale>  0 0.71477309E+03</rscale>
<asrwt>0</asrwt>
<pdfrwt beam="1">  1       11 0.10000000E+01 0.71053854E+03</pdfrwt>
<pdfrwt beam="2">  1        2 0.10124213E+00 0.71477309E+03</pdfrwt>
<totfact> 0.54947355E+01</totfact>
</mgrwt>
</event>
<event>
 5    1  0.1851087E-003  0.3787680E+03  0.7818608E-02  0.1051390E+00
         11   -1    0    0    0    0  0.00000000000E+00  0.00000000000E+00  0.10003406671E+04  0.10003406671E+04  0.51100000000E-03 0. -1.
          2   -1    0    0  501    0 -0.00000000000E+00 -0.00000000000E+00 -0.22987734441E+03  0.22987734442E+03  0.25500000000E-02 0. -1.
         11    1    1    2    0    0 -0.37855894669E+03  0.14172502696E+02  0.73393209630E+03  0.82593223568E+03  0.51100000000E-03 0. -1.
         22    1    1    2    0    0 -0.23908089875E+00 -0.13101616434E+02  0.21511752676E+02  0.25188589005E+02  0.00000000000E+00 0. -1.
          2    1    1    2  501    0  0.37879802759E+03 -0.10708862616E+01  0.15019473752E+02  0.37909718688E+03  0.25500000000E-02 0. -1.
<mgrwt>
<rscale>  0 0.37876801E+03</rscale>
<asrwt>0</asrwt>
<pdfrwt beam="1">  1       11 0.10000000E+01 0.13103798E+02</pdfrwt>
<pdfrwt beam="2">  1        2 0.35377792E-01 0.37876801E+03</pdfrwt>
<totfact> 0.18165874E+02</totfact>
</mgrwt>
</event>
<event>
 5    1  0.1851087E-003  0.1118732E+03  0.7818608E-02  0.1257140E+00
         11   -1    0    0    0    0  0.00000000000E+00  0.00000000000E+00  0.10003166716E+04  0.10003166716E+04  0.51100000000E-03 0.  1.
          2   -1    0    0  501    0 -0.00000000000E+00 -0.00000000000E+00 -0.12187123816E+02  0.12187124082E+02  0.25500000000E-02 0.  1.
         11    1    1    2    0    0 -0.48164486077E+02 -0.97575926075E+02  0.46942979866E+03  0.48187676323E+03  0.51100000000E-03 0.  1.
         22    1    1    2    0    0 -0.24741272409E+01  0.12497770226E+02  0.51599893246E+02  0.53149454835E+02  0.00000000000E+00 0. -1.
          2    1    1    2  501    0  0.50638613318E+02  0.85078155849E+02  0.46709985584E+03  0.47747757759E+03  0.25500000000E-02 0.  1.
<mgrwt>
<rscale>  0 0.11187322E+03</rscale>
<asrwt>0</asrwt>
<pdfrwt beam="1">  1       11 0.10000000E+01 0.10881586E+03</pdfrwt>
<pdfrwt beam="2">  1        2 0.18755358E-02 0.11187322E+03</pdfrwt>
<totfact> 0.66629072E+03</totfact>
</mgrwt>
</event>
<event>
 5    1  0.1851087E-003  0.2050740E+03  0.7818608E-02  0.1145527E+00
         11   -1    0    0    0    0  0.00000000000E+00  0.00000000000E+00  0.10001778213E+04  0.10001778213E+04  0.51100000000E-03 0. -1.
          2   -1    0    0  501    0 -0.00000000000E+00 -0.00000000000E+00 -0.79686917654E+02  0.79686917695E+02  0.25500000000E-02 0. -1.
         11    1    1    2    0    0 -0.53485130066E+02  0.19141756674E+03  0.83390241468E+03  0.85725992628E+03  0.51100000000E-03 0. -1.
         22    1    1    2    0    0  0.25374401010E+02 -0.29224018203E+02  0.28425410749E+02  0.48019865085E+02  0.00000000000E+00 0. -1.
          2    1    1    2  501    0  0.28110729056E+02 -0.16219354854E+03  0.58163078264E+02  0.17458494768E+03  0.25500000000E-02 0. -1.
<mgrwt>
<rscale>  0 0.20507398E+03</rscale>
<asrwt>0</asrwt>
<pdfrwt beam="1">  1       11 0.10000000E+01 0.19874945E+03</pdfrwt>
<pdfrwt beam="2">  1        2 0.12261705E-01 0.20507398E+03</pdfrwt>
<totfact> 0.60554775E+02</totfact>
</mgrwt>
</event>
<event>
 5    1  0.1851087E-003  0.1921353E+03  0.7818608E-02  0.1156549E+00
         11   -1    0    0    0    0  0.00000000000E+00  0.00000000000E+00  0.10004229317E+04  0.10004229317E+04  0.51100000000E-03 0.  1.
          2   -1    0    0  501    0 -0.00000000000E+00 -0.00000000000E+00 -0.41201342644E+02  0.41201342723E+02  0.25500000000E-02 0.  1.
         11    1    1    2    0    0 -0.69860949347E+02  0.17526115379E+03  0.36742911341E+03  0.41303895416E+03  0.51100000000E-03 0.  1.
         22    1    1    2    0    0  0.73844984542E+01  0.11836165799E+02  0.53534787579E+02  0.55322681781E+02  0.00000000000E+00 0. -1.
          2    1    1    2  501    0  0.62476450893E+02 -0.18709731959E+03  0.53825768811E+03  0.57326263853E+03  0.25500000000E-02 0.  1.
<mgrwt>
<rscale>  0 0.19213529E+03</rscale>
<asrwt>0</asrwt>
<pdfrwt beam="1">  1       11 0.10000000E+01 0.13950829E+02</pdfrwt>
<pdfrwt beam="2">  1        2 0.63413487E-02 0.19213529E+03</pdfrwt>
<totfact> 0.13807656E+03</totfact>
</mgrwt>
</event>
<event>
 5    1  0.1851087E-003  0.1544055E+03  0.7818608E-02  0.1195162E+00
         11   -1    0    0    0    0  0.00000000000E+00  0.00000000000E+00  0.10003644550E+04  0.10003644550E+04  0.51100000000E-03 0.  1.
         -2   -1    0    0    0  501 -0.00000000000E+00 -0.00000000000E+00 -0.25431487417E+02  0.25431487545E+02  0.25500000000E-02 0.  1.
         11    1    1    2    0    0  0.14982873015E+03  0.13531664151E+02  0.63277231280E+03  0.65040952803E+03  0.51100000000E-03 0.  1.
         22    1    1    2    0    0 -0.17875916679E+02  0.28613578673E+01  0.72488588438E+02  0.74714999965E+02  0.00000000000E+00 0.  1.
         -2    1    1    2    0  501 -0.13195281347E+03 -0.16393022018E+02  0.26967206639E+03  0.30067141459E+03  0.25500000000E-02 0.  1.
<mgrwt>
<rscale>  0 0.15440546E+03</rscale>
<asrwt>0</asrwt>
<pdfrwt beam="1">  1       11 0.10000000E+01 0.15043854E+03</pdfrwt>
<pdfrwt beam="2">  1       -2 0.39139624E-02 0.15440546E+03</pdfrwt>
<totfact> 0.21554711E+03</totfact>
</mgrwt>
</event>
<event>
 5    1  0.1851087E-003  0.7223739E+03  0.7818608E-02  0.9679717E-01
         11   -1    0    0    0    0  0.00000000000E+00  0.00000000000E+00  0.10004964191E+04  0.10004964191E+04  0.51100000000E-03 0. -1.
         -2   -1    0    0    0  501 -0.00000000000E+00 -0.00000000000E+00 -0.69248008827E+03  0.69248008828E+03  0.25500000000E-02 0.  1.
         11    1    1    2    0    0  0.30319283641E+03  0.64619694792E+03  0.58139187359E+03  0.92060463948E+03  0.51100000000E-03 0. -1.
         22    1    1    2    0    0  0.39453931855E+01 -0.33115304606E+02 -0.29674281156E+02  0.44640256368E+02  0.00000000000E+00 0. -1.
         -2    1    1    2    0  501 -0.30713822959E+03 -0.61308164331E+03 -0.24370126164E+03  0.72773161150E+03  0.25500000000E-02 0.  1.
<mgrwt>
<rscale>  0 0.72237394E+03</rscale>
<asrwt>0</asrwt>
<pdfrwt beam="1">  1       11 0.10000000E+01 0.71379016E+03</pdfrwt>
<pdfrwt beam="2">  1       -2 0.10658828E+00 0.72237394E+03</pdfrwt>
<totfact> 0.58032072E+00</totfact>
</mgrwt>
</event>
<event>
 5    1  0.1851087E-003  0.1641167E+03  0.7818608E-02  0.1184126E+00
         11   -1    0    0    0    0  0.00000000000E+00  0.00000000000E+00  0.10001080652E+04  0.10001080652E+04  0.51100000000E-03 0. -1.
          2   -1    0    0  501    0 -0.00000000000E+00 -0.00000000000E+00 -0.57817616672E+02  0.57817616728E+02  0.25500000000E-02 0. -1.
         11    1    1    2    0    0  0.12573426541E+03 -0.96384893297E+02  0.75070508310E+02  0.17531324643E+03  0.51100000000E-03 0. -1.
         22    1    1    2    0    0 -0.17724855682E+02  0.15638624281E+01  0.56006026855E+02  0.58764710658E+02  0.00000000000E+00 0.  1.
          2    1    1    2  501    0 -0.10800940973E+03  0.94821030869E+02  0.81121391336E+03  0.82384772484E+03  0.25500000000E-02 0. -1.
<mgrwt>
<rscale>  0 0.16411669E+03</rscale>
<asrwt>0</asrwt>
<pdfrwt beam="1">  1       11 0.10000000E+01 0.15842720E+03</pdfrwt>
<pdfrwt beam="2">  1        2 0.88959789E-02 0.16411669E+03</pdfrwt>
<totfact> 0.88881766E+02</totfact>
</mgrwt>
</event>
<event>
 5    1  0.1851087E-003  0.1246157E+03  0.7818608E-02  0.1366884E+00
         11   -1    0    0    0    0  0.00000000000E+00  0.00000000000E+00  0.10003614775E+04  0.10003614775E+04  0.51100000000E-03 0. -1.
         -2   -1    0    0    0  501 -0.00000000000E+00 -0.00000000000E+00 -0.50544579886E+02  0.50544579951E+02  0.25500000000E-02 0.  1.
         11    1    1    2    0    0  0.82426407892E+02 -0.10776729614E+03  0.77344678909E+03  0.78525654304E+03  0.51100000000E-03 0. -1.
         22    1    1    2    0    0 -0.31889660049E+02  0.19058901617E+02 -0.21550196083E+02  0.42948842826E+02  0.00000000000E+00 0.  1.
         -2    1    1    2    0  501 -0.50536747844E+02  0.88708394528E+02  0.19792030463E+03  0.22270067160E+03  0.25500000000E-02 0.  1.
<mgrwt>
<rscale>  0 0.68041086E+02</rscale>
<asrwt>0</asrwt>
<pdfrwt beam="1">  1       11 0.10000000E+01 0.12461568E+03</pdfrwt>
<pdfrwt beam="2">  1       -2 0.77788999E-02 0.68041086E+02</pdfrwt>
<totfact> 0.71506899E+02</totfact>
</mgrwt>
</event>
<event>
 5    1  0.1851087E-003  0.1284882E+03  0.7818608E-02  0.1277742E+00
         11   -1    0    0    0    0  0.00000000000E+00  0.00000000000E+00  0.10001229773E+04  0.10001229773E+04  0.51100000000E-03 0. -1.
          2   -1    0    0  501    0 -0.00000000000E+00 -0.00000000000E+00 -0.44817555097E+02  0.44817555170E+02  0.25500000000E-02 0. -1.
         11    1    1    2    0    0  0.15671568421E+03  0.85214338933E+02  0.27617510497E+03  0.32877648615E+03  0.51100000000E-03 0. -1.
         22    1    1    2    0    0 -0.57432023582E+02 -0.10494153328E+03  0.45077763821E+03  0.46638143386E+03  0.00000000000E+00 0. -1.
          2    1    1    2  501    0 -0.99283660628E+02  0.19727194344E+02  0.22835267899E+03  0.24978261243E+03  0.25500000000E-02 0. -1.
<mgrwt>
<rscale>  0 0.10122454E+03</rscale>
<asrwt>0</asrwt>
<pdfrwt beam="1">  1       11 0.10000000E+01 0.12848822E+03</pdfrwt>
<pdfrwt beam="2">  1        2 0.68958562E-02 0.10122454E+03</pdfrwt>
<totfact> 0.11850212E+03</totfact>
</mgrwt>
</event>
<event>
 5    1  0.1851087E-003  0.1803506E+03  0.7818608E-02  0.1304219E+00
         11   -1    0    0    0    0  0.00000000000E+00  0.00000000000E+00  0.10000742016E+04  0.10000742016E+04  0.51100000000E-03 0. -1.
          2   -1    0    0  501    0 -0.00000000000E+00 -0.00000000000E+00 -0.53900528348E+03  0.53900528349E+03  0.25500000000E-02 0. -1.
         11    1    1    2    0    0 -0.40485647191E+02 -0.17645815821E+03  0.96745739043E+03  0.98425117299E+03  0.51100000000E-03 0. -1.
         22    1    1    2    0    0  0.41400833890E+02  0.15911250654E+02 -0.23789813055E+03  0.24199735012E+03  0.00000000000E+00 0. -1.
          2    1    1    2  501    0 -0.91518669969E+00  0.16054690756E+03 -0.26849034181E+03  0.31283096193E+03  0.25500000000E-02 0. -1.
<mgrwt>
<rscale>  0 0.89437721E+02</rscale>
<asrwt>0</asrwt>
<pdfrwt beam="1">  1       11 0.10000000E+01 0.18035057E+03</pdfrwt>
<pdfrwt beam="2">  1        2 0.82930040E-01 0.89437721E+02</pdfrwt>
<totfact> 0.72650709E+01</totfact>
</mgrwt>
</event>
<event>
 5    1  0.1851087E-003  0.1417818E+03  0.7818608E-02  0.1210951E+00
         11   -1    0    0    0    0  0.00000000000E+00  0.00000000000E+00  0.10004457470E+04  0.10004457470E+04  0.51100000000E-03 0.  1.
          2   -1    0    0  501    0 -0.00000000000E+00 -0.00000000000E+00 -0.33619492372E+02  0.33619492469E+02  0.25500000000E-02 0.  1.
         11    1    1    2    0    0  0.11503016883E+03 -0.78509473275E+02  0.81309244093E+03  0.82493332738E+03  0.51100000000E-03 0.  1.
         22    1    1    2    0    0 -0.34073975358E+02  0.24869326937E+02  0.65571183402E+02  0.77968579003E+02  0.00000000000E+00 0. -1.
          2    1    1    2  501    0 -0.80956193472E+02  0.53640146338E+02  0.88162630333E+02  0.13116333312E+03  0.25500000000E-02 0.  1.
<mgrwt>
<rscale>  0 0.14178177E+03</rscale>
<asrwt>0</asrwt>
<pdfrwt beam="1">  1       11 0.10000000E+01 0.13926836E+03</pdfrwt>
<pdfrwt beam="2">  1        2 0.51745350E-02 0.14178177E+03</pdfrwt>
<totfact> 0.17585383E+03</totfact>
</mgrwt>
</event>
<event>
 5    1  0.1851087E-003  0.1514931E+03  0.7818608E-02  0.1515454E+00
         11   -1    0    0    0    0  0.00000000000E+00  0.00000000000E+00  0.10003809733E+04  0.10003809733E+04  0.51100000000E-03 0. -1.
          2   -1    0    0  501    0 -0.00000000000E+00 -0.00000000000E+00 -0.44426900656E+02  0.44426900729E+02  0.25500000000E-02 0. -1.
         11    1    1    2    0    0 -0.17728338481E+02 -0.12603478696E+03  0.88291042696E+02  0.15490116116E+03  0.51100000000E-03 0. -1.
         22    1    1    2    0    0 -0.46231531080E+01  0.15803397054E+03  0.72172648958E+03  0.73884046665E+03  0.00000000000E+00 0. -1.
          2    1    1    2  501    0  0.22351491589E+02 -0.31999183583E+02  0.14593654039E+03  0.15106624625E+03  0.25500000000E-02 0. -1.
<mgrwt>
<rscale>  0 0.39032511E+02</rscale>
<asrwt>0</asrwt>
<pdfrwt beam="1">  1       11 0.10000000E+01 0.15149305E+03</pdfrwt>
<pdfrwt beam="2">  1        2 0.68375115E-02 0.39032511E+02</pdfrwt>
<totfact> 0.11026399E+03</totfact>
</mgrwt>
</event>
<event>
 5    1  0.1851087E-003  0.1749367E+03  0.7818608E-02  0.1396571E+00
         11   -1    0    0    0    0  0.00000000000E+00  0.00000000000E+00  0.10001552967E+04  0.10001552967E+04  0.51100000000E-03 0. -1.
          2   -1    0    0  501    0 -0.00000000000E+00 -0.00000000000E+00 -0.38280429716E+02  0.38280429801E+02  0.25500000000E-02 0. -1.
         11    1    1    2    0    0  0.67558407497E+02  0.16288421399E+03  0.62572546589E+03  0.65009827276E+03  0.51100000000E-03 0. -1.
         22    1    1    2    0    0  0.17068126659E+02 -0.11863435076E+02  0.27742669776E+02  0.34665801098E+02  0.00000000000E+00 0.  1.
          2    1    1    2  501    0 -0.84626534156E+02 -0.15102077891E+03  0.30840673128E+03  0.35367165260E+03  0.25500000000E-02 0. -1.
<mgrwt>
<rscale>  0 0.60301345E+02</rscale>
<asrwt>0</asrwt>
<pdfrwt beam="1">  1       11 0.10000000E+01 0.17493671E+03</pdfrwt>
<pdfrwt beam="2">  1        2 0.58902113E-02 0.60301345E+02</pdfrwt>
<totfact> 0.13832982E+03</totfact>
</mgrwt>
</event>
<event>
 5    1  0.1851087E-003  0.1982152E+03  0.7818608E-02  0.1151254E+00
         11   -1    0    0    0    0  0.00000000000E+00  0.00000000000E+00  0.10000983679E+04  0.10000983679E+04  0.51100000000E-03 0. -1.
          2   -1    0    0  501    0 -0.00000000000E+00 -0.00000000000E+00 -0.39724882926E+02  0.39724883008E+02  0.25500000000E-02 0. -1.
         11    1    1    2    0    0 -0.12390668101E+03 -0.15321437683E+03  0.41123691174E+03  0.45600801358E+03  0.51100000000E-03 0. -1.
         22    1    1    2    0    0  0.74013004045E+01  0.80467012193E+01  0.18625556538E+02  0.21597222149E+02  0.00000000000E+00 0. -1.
          2    1    1    2  501    0  0.11650538061E+03  0.14516767561E+03  0.53051101669E+03  0.56221801518E+03  0.25500000000E-02 0. -1.
<mgrwt>
<rscale>  0 0.19821517E+03</rscale>
<asrwt>0</asrwt>
<pdfrwt beam="1">  1       11 0.10000000E+01 0.19704707E+03</pdfrwt>
<pdfrwt beam="2">  1        2 0.61121215E-02 0.19821517E+03</pdfrwt>
<totfact> 0.14513159E+03</totfact>
</mgrwt>
</event>
<event>
 5    1  0.1851087E-003  0.1747253E+03  0.7818608E-02  0.1173008E+00
         11   -1    0    0    0    0  0.00000000000E+00  0.00000000000E+00  0.10001543979E+04  0.10001543979E+04  0.51100000000E-03 0.  1.
          2   -1    0    0  501    0 -0.00000000000E+00 -0.00000000000E+00 -0.31698318500E+02  0.31698318602E+02  0.25500000000E-02 0.  1.
         11    1    1    2    0    0  0.15841133463E+03 -0.40159027431E+02  0.30793682338E+03  0.34861437953E+03  0.51100000000E-03 0.  1.
         22    1    1    2    0    0 -0.28733062432E+02 -0.42522053359E+01  0.52897196639E+02  0.60347191643E+02  0.00000000000E+00 0.  1.
          2    1    1    2  501    0 -0.12967827219E+03  0.44411232767E+02  0.60762205935E+03  0.62289114530E+03  0.25500000000E-02 0.  1.
<mgrwt>
<rscale>  0 0.17472532E+03</rscale>
<asrwt>0</asrwt>
<pdfrwt beam="1">  1       11 0.10000000E+01 0.16342254E+03</pdfrwt>
<pdfrwt beam="2">  1        2 0.48774172E-02 0.17472532E+03</pdfrwt>
<totfact> 0.19319001E+03</totfact>
</mgrwt>
</event>
<event>
 5    1  0.1851087E-003  0.2215320E+03  0.7818608E-02  0.1132746E+00
         11   -1    0    0    0    0  0.00000000000E+00  0.00000000000E+00  0.10003065440E+04  0.10003065440E+04  0.51100000000E-03 0.  1.
          2   -1    0    0  501    0 -0.00000000000E+00 -0.00000000000E+00 -0.19239297664E+03  0.19239297665E+03  0.25500000000E-02 0.  1.
         11    1    1    2    0    0  0.21856820293E+03  0.19491428374E+02  0.91902875465E+03  0.94486286147E+03  0.51100000000E-03 0.  1.
         22    1    1    2    0    0 -0.11642820400E+02 -0.69443159791E+01 -0.11784270054E+02  0.17962399950E+02  0.00000000000E+00 0. -1.
          2    1    1    2  501    0 -0.20692538253E+03 -0.12547112395E+02 -0.99330917189E+02  0.22987425928E+03  0.25500000000E-02 0.  1.
<mgrwt>
<rscale>  0 0.22153200E+03</rscale>
<asrwt>0</asrwt>
<pdfrwt beam="1">  1       11 0.10000000E+01 0.21943558E+03</pdfrwt>
<pdfrwt beam="2">  1        2 0.29607992E-01 0.22153200E+03</pdfrwt>
<totfact> 0.21957783E+02</totfact>
</mgrwt>
</event>
<event>
 5    1  0.1851087E-003  0.1030002E+03  0.7818608E-02  0.1274111E+00
         11   -1    0    0    0    0  0.00000000000E+00  0.00000000000E+00  0.10001279779E+04  0.10001279779E+04  0.51100000000E-03 0. -1.
          2   -1    0    0  501    0 -0.00000000000E+00 -0.00000000000E+00 -0.28862957042E+02  0.28862957155E+02  0.25500000000E-02 0. -1.
         11    1    1    2    0    0  0.11675948689E+02 -0.13469041397E+03  0.50413850509E+03  0.52195159518E+03  0.51100000000E-03 0. -1.
         22    1    1    2    0    0  0.62918765860E+02  0.67948902973E+02  0.27861855229E+03  0.29360538516E+03  0.00000000000E+00 0. -1.
          2    1    1    2  501    0 -0.74594714549E+02  0.66741510998E+02  0.18850796351E+03  0.21343395476E+03  0.25500000000E-02 0. -1.
<mgrwt>
<rscale>  0 0.10300018E+03</rscale>
<asrwt>0</asrwt>
<pdfrwt beam="1">  1       11 0.10000000E+01 0.92605748E+02</pdfrwt>
<pdfrwt beam="2">  1        2 0.44410231E-02 0.10300018E+03</pdfrwt>
<totfact> 0.20882616E+03</totfact>
</mgrwt>
</event>
<event>
 5    1  0.1851087E-003  0.8195395E+02  0.7818608E-02  0.1323596E+00
         11   -1    0    0    0    0  0.00000000000E+00  0.00000000000E+00  0.10001854844E+04  0.10001854844E+04  0.51100000000E-03 0.  1.
          2   -1    0    0  501    0 -0.00000000000E+00 -0.00000000000E+00 -0.68986608950E+01  0.68986613663E+01  0.25500000000E-02 0.  1.
         11    1    1    2    0    0  0.27457007113E+02  0.74707013417E+02  0.37230898144E+03  0.38072168674E+03  0.51100000000E-03 0.  1.
         22    1    1    2    0    0 -0.79465847752E+01 -0.15075624580E+02  0.82505538419E+02  0.84247175240E+02  0.00000000000E+00 0.  1.
          2    1    1    2  501    0 -0.19510422337E+02 -0.59631388837E+02  0.53847230364E+03  0.54211528378E+03  0.25500000000E-02 0.  1.
<mgrwt>
<rscale>  0 0.81953949E+02</rscale>
<asrwt>0</asrwt>
<pdfrwt beam="1">  1       11 0.10000000E+01 0.79592911E+02</pdfrwt>
<pdfrwt beam="2">  1        2 0.10615293E-02 0.81953949E+02</pdfrwt>
<totfact> 0.13841347E+04</totfact>
</mgrwt>
</event>
<event>
 5    1  0.1851087E-003  0.1746051E+03  0.7818608E-02  0.1493551E+00
         11   -1    0    0    0    0  0.00000000000E+00  0.00000000000E+00  0.10004688759E+04  0.10004688759E+04  0.51100000000E-03 0.  1.
          2   -1    0    0  501    0 -0.00000000000E+00 -0.00000000000E+00 -0.73707283829E+02  0.73707283873E+02  0.25500000000E-02 0.  1.
         11    1    1    2    0    0 -0.17463979094E+03  0.58992676270E+01  0.86101420340E+03  0.87856662604E+03  0.51100000000E-03 0.  1.
         22    1    1    2    0    0  0.14580700622E+01  0.10028080756E+02  0.56738778171E+01  0.11613839220E+02  0.00000000000E+00 0. -1.
          2    1    1    2  501    0  0.17318172088E+03 -0.15927348383E+02  0.60073510807E+02  0.18399569446E+03  0.25500000000E-02 0.  1.
<mgrwt>
<rscale>  0 0.42063824E+02</rscale>
<asrwt>0</asrwt>
<pdfrwt beam="1">  1       11 0.10000000E+01 0.17460508E+03</pdfrwt>
<pdfrwt beam="2">  1        2 0.11344899E-01 0.42063824E+02</pdfrwt>
<totfact> 0.60659175E+02</totfact>
</mgrwt>
</event>
<event>
 5    1  0.1851087E-003  0.1118608E+03  0.7818608E-02  0.1257162E+00
         11   -1    0    0    0    0  0.00000000000E+00  0.00000000000E+00  0.10001916929E+04  0.10001916929E+04  0.51100000000E-03 0. -1.
          2   -1    0    0  501    0 -0.00000000000E+00 -0.00000000000E+00 -0.13276454449E+02  0.13276454694E+02  0.25500000000E-02 0. -1.
         11    1    1    2    0    0  0.98512978287E+01 -0.10931037445E+03  0.62822592929E+03  0.63774103229E+03  0.51100000000E-03 0. -1.
         22    1    1    2    0    0  0.32982120077E+01  0.16556608090E+02  0.36896859997E+02  0.40575580729E+02  0.00000000000E+00 0.  1.
          2    1    1    2  501    0 -0.13149509836E+02  0.92753766363E+02  0.32179244916E+03  0.33515153457E+03  0.25500000000E-02 0. -1.
<mgrwt>
<rscale>  0 0.11186083E+03</rscale>
<asrwt>0</asrwt>
<pdfrwt beam="1">  1       11 0.10000000E+01 0.10975339E+03</pdfrwt>
<pdfrwt beam="2">  1        2 0.20429230E-02 0.11186083E+03</pdfrwt>
<totfact> 0.59326302E+03</totfact>
</mgrwt>
</event>
<event>
 5    1  0.1851087E-003  0.1653963E+03  0.7818608E-02  0.1322597E+00
         11   -1    0    0    0    0  0.00000000000E+00  0.00000000000E+00  0.10002114562E+04  0.10002114562E+04  0.51100000000E-03 0.  1.
          2   -1    0    0  501    0 -0.00000000000E+00 -0.00000000000E+00 -0.20362381687E+03  0.20362381689E+03  0.25500000000E-02 0.  1.
         11    1    1    2    0    0  0.15098997700E+03 -0.66254969105E+02  0.91763848413E+03  0.93233474763E+03  0.51100000000E-03 0.  1.
         22    1    1    2    0    0 -0.88388852840E+01 -0.40005904429E+02 -0.79178035477E+02  0.89150207988E+02  0.00000000000E+00 0.  1.
          2    1    1    2  501    0 -0.14215109172E+03  0.10626087353E+03 -0.41872809303E+02  0.18235031748E+03  0.25500000000E-02 0.  1.
<mgrwt>
<rscale>  0 0.82318912E+02</rscale>
<asrwt>0</asrwt>
<pdfrwt beam="1">  1       11 0.10000000E+01 0.16539632E+03</pdfrwt>
<pdfrwt beam="2">  1        2 0.31333364E-01 0.82318912E+02</pdfrwt>
<totfact> 0.20268838E+02</totfact>
</mgrwt>
</event>
<event>
 5    1  0.1851087E-003  0.1418343E+03  0.7818608E-02  0.1475677E+00
         11   -1    0    0    0    0  0.00000000000E+00  0.00000000000E+00  0.10001812426E+04  0.10001812426E+04  0.51100000000E-03 0.  1.
         -2   -1    0    0    0  501 -0.00000000000E+00 -0.00000000000E+00 -0.52084026622E+02  0.52084026684E+02  0.25500000000E-02 0.  1.
         11    1    1    2    0    0 -0.84252726800E+02  0.11237792442E+03  0.81329403862E+03  0.82533297106E+03  0.51100000000E-03 0.  1.
         22    1    1    2    0    0  0.39219778407E+01  0.13587544118E+02 -0.11197672470E+02  0.18038601223E+02  0.00000000000E+00 0.  1.
         -2    1    1    2    0  501  0.80330748959E+02 -0.12596546853E+03  0.14600084985E+03  0.20889369702E+03  0.25500000000E-02 0.  1.
<mgrwt>
<rscale>  0 0.44786780E+02</rscale>
<asrwt>0</asrwt>
<pdfrwt beam="1">  1       11 0.10000000E+01 0.14183425E+03</pdfrwt>
<pdfrwt beam="2">  1       -2 0.80143792E-02 0.44786780E+02</pdfrwt>
<totfact> 0.65833901E+02</totfact>
</mgrwt>
</event>
<event>
 5    1  0.1851087E-003  0.1396668E+03  0.7818608E-02  0.1213778E+00
         11   -1    0    0    0    0  0.00000000000E+00  0.00000000000E+00  0.10000374759E+04  0.10000374759E+04  0.51100000000E-03 0. -1.
         -2   -1    0    0    0  501 -0.00000000000E+00 -0.00000000000E+00 -0.18220798578E+02  0.18220798757E+02  0.25500000000E-02 0. -1.
         11    1    1    2    0    0  0.11224742775E+03 -0.66106432773E+02  0.48256842850E+03  0.49984180865E+03  0.51100000000E-03 0. -1.
         22    1    1    2    0    0 -0.29544450087E+02  0.43498455940E+02  0.22581581044E+03  0.23185721995E+03  0.00000000000E+00 0.  1.
         -2    1    1    2    0  501 -0.82702977668E+02  0.22607976834E+02  0.27343243840E+03  0.28655924607E+03  0.25500000000E-02 0. -1.
<mgrwt>
<rscale>  0 0.13966681E+03</rscale>
<asrwt>0</asrwt>
<pdfrwt beam="1">  1       11 0.10000000E+01 0.13026721E+03</pdfrwt>
<pdfrwt beam="2">  1       -2 0.28033048E-02 0.13966681E+03</pdfrwt>
<totfact> 0.34944608E+03</totfact>
</mgrwt>
</event>
<event>
 5    1  0.1851087E-003  0.1276654E+03  0.7818608E-02  0.1230961E+00
         11   -1    0    0    0    0  0.00000000000E+00  0.00000000000E+00  0.10004596698E+04  0.10004596698E+04  0.51100000000E-03 0. -1.
          2   -1    0    0  501    0 -0.00000000000E+00 -0.00000000000E+00 -0.22672069932E+02  0.22672070076E+02  0.25500000000E-02 0. -1.
         11    1    1    2    0    0 -0.13487694615E+03  0.11810977214E+02  0.66419884478E+03  0.67785794618E+03  0.51100000000E-03 0. -1.
         22    1    1    2    0    0  0.10068366083E+02 -0.13184647927E+02  0.65341579468E+02  0.67414604827E+02  0.00000000000E+00 0.  1.
          2    1    1    2  501    0  0.12480858007E+03  0.13736707133E+01  0.24824717558E+03  0.27785918884E+03  0.25500000000E-02 0. -1.
<mgrwt>
<rscale>  0 0.12766544E+03</rscale>
<asrwt>0</asrwt>
<pdfrwt beam="1">  1       11 0.10000000E+01 0.16589362E+02</pdfrwt>
<pdfrwt beam="2">  1        2 0.34896140E-02 0.12766544E+03</pdfrwt>
<totfact> 0.29291663E+03</totfact>
</mgrwt>
</event>
<event>
 5    1  0.1851087E-003  0.1229163E+03  0.7818608E-02  0.1238362E+00
         11   -1    0    0    0    0  0.00000000000E+00  0.00000000000E+00  0.10003330584E+04  0.10003330584E+04  0.51100000000E-03 0. -1.
          2   -1    0    0  501    0 -0.00000000000E+00 -0.00000000000E+00 -0.14950898469E+02  0.14950898686E+02  0.25500000000E-02 0. -1.
         11    1    1    2    0    0 -0.92605959950E+02  0.76938582720E+02  0.43587316288E+03  0.45219555885E+03  0.51100000000E-03 0. -1.
         22    1    1    2    0    0  0.33597252693E+02 -0.27838164061E+02  0.14759882103E+03  0.15391280238E+03  0.00000000000E+00 0.  1.
          2    1    1    2  501    0  0.59008707257E+02 -0.49100418659E+02  0.40191017604E+03  0.40917559587E+03  0.25500000000E-02 0. -1.
<mgrwt>
<rscale>  0 0.12291626E+03</rscale>
<asrwt>0</asrwt>
<pdfrwt beam="1">  1       11 0.10000000E+01 0.12039694E+03</pdfrwt>
<pdfrwt beam="2">  1        2 0.23009043E-02 0.12291626E+03</pdfrwt>
<totfact> 0.51059749E+03</totfact>
</mgrwt>
</event>
<event>
 5    1  0.1851087E-003  0.3922317E+03  0.7818608E-02  0.1136246E+00
         11   -1    0    0    0    0  0.00000000000E+00  0.00000000000E+00  0.99997368642E+03  0.99997368642E+03  0.51100000000E-03 0.  1.
          2   -1    0    0  501    0 -0.00000000000E+00 -0.00000000000E+00 -0.37288077038E+03  0.37288077039E+03  0.25500000000E-02 0.  1.
         11    1    1    2    0    0  0.79851582286E+02 -0.41113731062E+03  0.77393626756E+03  0.87999290317E+03  0.51100000000E-03 0.  1.
         22    1    1    2    0    0  0.27368814968E+02  0.11673369498E+03 -0.13324160010E+03  0.17924600853E+03  0.00000000000E+00 0. -1.
          2    1    1    2  501    0 -0.10722039725E+03  0.29440361564E+03 -0.13601751414E+02  0.31361554512E+03  0.25500000000E-02 0.  1.
<mgrwt>
<rscale>  0 0.21685998E+03</rscale>
<asrwt>0</asrwt>
<pdfrwt beam="1">  1       11 0.10000000E+01 0.39223172E+03</pdfrwt>
<pdfrwt beam="2">  1        2 0.57364761E-01 0.21685998E+03</pdfrwt>
<totfact> 0.10731409E+02</totfact>
</mgrwt>
</event>
<event>
 5    1  0.1851087E-003  0.1504907E+03  0.7818608E-02  0.1250774E+00
         11   -1    0    0    0    0  0.00000000000E+00  0.00000000000E+00  0.10000347418E+04  0.10000347418E+04  0.51100000000E-03 0. -1.
          2   -1    0    0  501    0 -0.00000000000E+00 -0.00000000000E+00 -0.23643097797E+03  0.23643097798E+03  0.25500000000E-02 0. -1.
         11    1    1    2    0    0  0.99994123185E+01 -0.14563961973E+03  0.85226967744E+03  0.86468172767E+03  0.51100000000E-03 0. -1.
         22    1    1    2    0    0  0.43702102148E+02 -0.77059217601E+02 -0.11054176302E+03  0.14165972653E+03  0.00000000000E+00 0. -1.
          2    1    1    2  501    0 -0.53701514467E+02  0.22269883733E+03  0.21875849386E+02  0.23012426556E+03  0.25500000000E-02 0. -1.
<mgrwt>
<rscale>  0 0.11546344E+03</rscale>
<asrwt>0</asrwt>
<pdfrwt beam="1">  1       11 0.10000000E+01 0.15049067E+03</pdfrwt>
<pdfrwt beam="2">  1        2 0.36375259E-01 0.11546344E+03</pdfrwt>
<totfact> 0.17404126E+02</totfact>
</mgrwt>
</event>
<event>
 5    1  0.1851087E-003  0.1467506E+03  0.7818608E-02  0.1204524E+00
         11   -1    0    0    0    0  0.00000000000E+00  0.00000000000E+00  0.10000922823E+04  0.10000922823E+04  0.51100000000E-03 0. -1.
         -2   -1    0    0    0  501 -0.00000000000E+00 -0.00000000000E+00 -0.43312818424E+02  0.43312818500E+02  0.25500000000E-02 0.  1.
         11    1    1    2    0    0  0.60485728001E+02  0.12983727513E+03  0.84983392951E+03  0.86182013730E+03  0.51100000000E-03 0. -1.
         22    1    1    2    0    0 -0.16832987427E+02 -0.17694886761E+02  0.30272035264E+02  0.38895431637E+02  0.00000000000E+00 0. -1.
         -2    1    1    2    0  501 -0.43652740574E+02 -0.11214238837E+03  0.76673499080E+02  0.14268953184E+03  0.25500000000E-02 0.  1.
<mgrwt>
<rscale>  0 0.14675064E+03</rscale>
<asrwt>0</asrwt>
<pdfrwt beam="1">  1       11 0.10000000E+01 0.14323492E+03</pdfrwt>
<pdfrwt beam="2">  1       -2 0.66641253E-02 0.14675064E+03</pdfrwt>
<totfact> 0.96206963E+02</totfact>
</mgrwt>
</event>
<event>
 5    1  0.1851087E-003  0.1895691E+03  0.7818608E-02  0.1158851E+00
         11   -1    0    0    0    0  0.00000000000E+00  0.00000000000E+00  0.10002010373E+04  0.10002010373E+04  0.51100000000E-03 0. -1.
         -2   -1    0    0    0  501 -0.00000000000E+00 -0.00000000000E+00 -0.10560986674E+04  0.10560986674E+04  0.25500000000E-02 0.  1.
         11    1    1    2    0    0  0.24061456498E+02  0.18407352691E+03  0.98293530422E+03  0.10003118660E+04  0.51100000000E-03 0. -1.
         22    1    1    2    0    0 -0.30895560202E+02 -0.88953288137E+02 -0.52666747367E+03  0.53501948650E+03  0.00000000000E+00 0.  1.
         -2    1    1    2    0  501  0.68341037040E+01 -0.95120238770E+02 -0.51216546067E+03  0.52096835211E+03  0.25500000000E-02 0.  1.
<mgrwt>
<rscale>  0 0.18956912E+03</rscale>
<asrwt>0</asrwt>
<pdfrwt beam="1">  1       11 0.10000000E+01 0.18563948E+03</pdfrwt>
<pdfrwt beam="2">  1       -2 0.16250938E+00 0.18956912E+03</pdfrwt>
<totfact> 0.21294452E+00</totfact>
</mgrwt>
</event>
<event>
 5    1  0.1851087E-003  0.3927553E+02  0.7818608E-02  0.1616649E+00
         11   -1    0    0    0    0  0.00000000000E+00  0.00000000000E+00  0.10002544764E+04  0.10002544764E+04  0.51100000000E-03 0. -1.
          2   -1    0    0  501    0 -0.00000000000E+00 -0.00000000000E+00 -0.51961581532E+01  0.51961587789E+01  0.25500000000E-02 0. -1.
         11    1    1    2    0    0  0.13606260751E+02  0.53539703064E+02  0.20455099550E+03  0.21187906904E+03  0.51100000000E-03 0. -1.
         22    1    1    2    0    0  0.31246188527E+01 -0.20276062283E+02  0.10115595008E+03  0.10321534857E+03  0.00000000000E+00 0. -1.
          2    1    1    2  501    0 -0.16730879603E+02 -0.33263640782E+02  0.68935137267E+03  0.69035621757E+03  0.25500000000E-02 0. -1.
<mgrwt>
<rscale>  0 0.28385792E+02</rscale>
<asrwt>0</asrwt>
<pdfrwt beam="1">  1       11 0.10000000E+01 0.39275533E+02</pdfrwt>
<pdfrwt beam="2">  1        2 0.79961240E-03 0.28385792E+02</pdfrwt>
<totfact> 0.16549311E+04</totfact>
</mgrwt>
</event>
<event>
 5    1  0.1851087E-003  0.7558622E+02  0.7818608E-02  0.1342065E+00
         11   -1    0    0    0    0  0.00000000000E+00  0.00000000000E+00  0.10004011477E+04  0.10004011477E+04  0.51100000000E-03 0.  1.
          2   -1    0    0  501    0 -0.00000000000E+00 -0.00000000000E+00 -0.56752421096E+01  0.56752426825E+01  0.25500000000E-02 0.  1.
         11    1    1    2    0    0  0.34273702105E+02  0.64291052429E+02  0.40178203739E+03  0.40833421562E+03  0.51100000000E-03 0.  1.
         22    1    1    2    0    0 -0.18343706311E+02 -0.26751926968E+02  0.19097700266E+03  0.19371208714E+03  0.00000000000E+00 0.  1.
          2    1    1    2  501    0 -0.15929995795E+02 -0.37539125462E+02  0.40196686551E+03  0.40403008760E+03  0.25500000000E-02 0.  1.
<mgrwt>
<rscale>  0 0.75586220E+02</rscale>
<asrwt>0</asrwt>
<pdfrwt beam="1">  1       11 0.10000000E+01 0.72856238E+02</pdfrwt>
<pdfrwt beam="2">  1        2 0.87346444E-03 0.75586220E+02</pdfrwt>
<totfact> 0.17818500E+04</totfact>
</mgrwt>
</event>
<event>
 5    1  0.1851087E-003  0.2392429E+03  0.7818608E-02  0.1120298E+00
         11   -1    0    0    0    0  0.00000000000E+00  0.00000000000E+00  0.10003360640E+04  0.10003360640E+04  0.51100000000E-03 0. -1.
         -2   -1    0    0    0  501 -0.00000000000E+00 -0.00000000000E+00 -0.22647116068E+03  0.22647116069E+03  0.25500000000E-02 0. -1.
         11    1    1    2    0    0  0.21874965361E+03  0.92890641949E+02  0.91748572071E+03  0.94776586245E+03  0.51100000000E-03 0. -1.
         22    1    1    2    0    0 -0.19611029271E+02 -0.79368691873E+01 -0.22817954626E+02  0.31116642089E+02  0.00000000000E+00 0. -1.
         -2    1    1    2    0  501 -0.19913862434E+03 -0.84953772762E+02 -0.12080286275E+03  0.24792472016E+03  0.25500000000E-02 0. -1.
<mgrwt>
<rscale>  0 0.23924285E+03</rscale>
<asrwt>0</asrwt>
<pdfrwt beam="1">  1       11 0.10000000E+01 0.23765539E+03</pdfrwt>
<pdfrwt beam="2">  1       -2 0.34853425E-01 0.23924285E+03</pdfrwt>
<totfact> 0.62444419E+01</totfact>
</mgrwt>
</event>
<event>
 5    1  0.1851087E-003  0.1706817E+03  0.7818608E-02  0.1177139E+00
         11   -1    0    0    0    0  0.00000000000E+00  0.00000000000E+00  0.10004745785E+04  0.10004745785E+04  0.51100000000E-03 0. -1.
          2   -1    0    0  501    0 -0.00000000000E+00 -0.00000000000E+00 -0.32329010505E+02  0.32329010605E+02  0.25500000000E-02 0. -1.
         11    1    1    2    0    0  0.16167741750E+03  0.25417032587E+02  0.28491301909E+03  0.32857425541E+03  0.51100000000E-03 0. -1.
         22    1    1    2    0    0 -0.21838213385E+02  0.13234096495E+02  0.10931648999E+03  0.11225927070E+03  0.00000000000E+00 0.  1.
          2    1    1    2  501    0 -0.13983920412E+03 -0.38651129082E+02  0.57391605887E+03  0.59197006294E+03  0.25500000000E-02 0. -1.
<mgrwt>
<rscale>  0 0.17068169E+03</rscale>
<asrwt>0</asrwt>
<pdfrwt beam="1">  1       11 0.10000000E+01 0.16366319E+03</pdfrwt>
<pdfrwt beam="2">  1        2 0.49760542E-02 0.17068169E+03</pdfrwt>
<totfact> 0.18782462E+03</totfact>
</mgrwt>
</event>
<event>
 5    1  0.1851087E-003  0.2198413E+03  0.7818608E-02  0.1134001E+00
         11   -1    0    0    0    0  0.00000000000E+00  0.00000000000E+00  0.10002112875E+04  0.10002112875E+04  0.51100000000E-03 0. -1.
          2   -1    0    0  501    0 -0.00000000000E+00 -0.00000000000E+00 -0.51075155022E+02  0.51075155086E+02  0.25500000000E-02 0. -1.
         11    1    1    2    0    0  0.13135733275E+02  0.21447540517E+03  0.61367848164E+03  0.65021037037E+03  0.51100000000E-03 0. -1.
         22    1    1    2    0    0 -0.83099993486E+01 -0.61898905557E+01  0.86027262590E+01  0.13467655080E+02  0.00000000000E+00 0. -1.
          2    1    1    2  501    0 -0.48257339263E+01 -0.20828551462E+03  0.32685492460E+03  0.38760841715E+03  0.25500000000E-02 0. -1.
<mgrwt>
<rscale>  0 0.21984126E+03</rscale>
<asrwt>0</asrwt>
<pdfrwt beam="1">  1       11 0.10000000E+01 0.21487728E+03</pdfrwt>
<pdfrwt beam="2">  1        2 0.78593762E-02 0.21984126E+03</pdfrwt>
<totfact> 0.10568836E+03</totfact>
</mgrwt>
</event>
<event>
 5    1  0.1851087E-003  0.3283286E+03  0.7818608E-02  0.1071879E+00
         11   -1    0    0    0    0  0.00000000000E+00  0.00000000000E+00  0.10001550570E+04  0.10001550570E+04  0.51100000000E-03 0.  1.
          2   -1    0    0  501    0 -0.00000000000E+00 -0.00000000000E+00 -0.41817325049E+03  0.41817325049E+03  0.25500000000E-02 0.  1.
         11    1    1    2    0    0  0.97758135342E+02 -0.29321086177E+03  0.90586034451E+03  0.95713751689E+03  0.51100000000E-03 0.  1.
         22    1    1    2    0    0 -0.10852640721E+03  0.19854181656E+03 -0.26796601122E+03  0.35071728950E+03  0.00000000000E+00 0. -1.
          2    1    1    2  501    0  0.10768271867E+02  0.94669045207E+02 -0.55912526746E+02  0.11047350114E+03  0.25500000000E-02 0.  1.
<mgrwt>
<rscale>  0 0.32832855E+03</rscale>
<asrwt>0</asrwt>
<pdfrwt beam="1">  1       11 0.10000000E+01 0.30907808E+03</pdfrwt>
<pdfrwt beam="2">  1        2 0.64344320E-01 0.32832855E+03</pdfrwt>
<totfact> 0.94368969E+01</totfact>
</mgrwt>
</event>
<event>
 5    1  0.1851087E-003  0.2274968E+03  0.7818608E-02  0.1128414E+00
         11   -1    0    0    0    0  0.00000000000E+00  0.00000000000E+00  0.10004901467E+04  0.10004901467E+04  0.51100000000E-03 0. -1.
          2   -1    0    0  501    0 -0.00000000000E+00 -0.00000000000E+00 -0.87142150519E+03  0.87142150520E+03  0.25500000000E-02 0. -1.
         11    1    1    2    0    0 -0.13300792908E+03 -0.17819655626E+03  0.97288137702E+03  0.99796958652E+03  0.51100000000E-03 0. -1.
         22    1    1    2    0    0  0.31415989793E+02  0.17713509583E+02 -0.17525824768E+03  0.17893067433E+03  0.00000000000E+00 0.  1.
          2    1    1    2  501    0  0.10159193929E+03  0.16048304668E+03 -0.66855448787E+03  0.69501139102E+03  0.25500000000E-02 0. -1.
<mgrwt>
<rscale>  0 0.22749682E+03</rscale>
<asrwt>0</asrwt>
<pdfrwt beam="1">  1       11 0.10000000E+01 0.22236259E+03</pdfrwt>
<pdfrwt beam="2">  1        2 0.13413055E+00 0.22749682E+03</pdfrwt>
<totfact> 0.39910241E+01</totfact>
</mgrwt>
</event>
<event>
 5    1  0.1851087E-003  0.2443334E+03  0.7818608E-02  0.1116939E+00
         11   -1    0    0    0    0  0.00000000000E+00  0.00000000000E+00  0.10001754087E+04  0.10001754087E+04  0.51100000000E-03 0.  1.
          2   -1    0    0  501    0 -0.00000000000E+00 -0.00000000000E+00 -0.46613958924E+03  0.46613958924E+03  0.25500000000E-02 0.  1.
         11    1    1    2    0    0 -0.18735501148E+03  0.14407394653E+03  0.95269488889E+03  0.98157361095E+03  0.51100000000E-03 0.  1.
         22    1    1    2    0    0  0.94427027863E+01 -0.32661571389E+02 -0.49055104815E+02  0.59685393439E+02  0.00000000000E+00 0.  1.
          2    1    1    2  501    0  0.17791230870E+03 -0.11141237514E+03 -0.36960396466E+03  0.42505599351E+03  0.25500000000E-02 0.  1.
<mgrwt>
<rscale>  0 0.24433337E+03</rscale>
<asrwt>0</asrwt>
<pdfrwt beam="1">  1       11 0.10000000E+01 0.23634551E+03</pdfrwt>
<pdfrwt beam="2">  1        2 0.71726360E-01 0.24433337E+03</pdfrwt>
<totfact> 0.83966037E+01</totfact>
</mgrwt>
</event>
<event>
 5    1  0.1851087E-003  0.2182314E+03  0.7818608E-02  0.1135208E+00
         11   -1    0    0    0    0  0.00000000000E+00  0.00000000000E+00  0.10002083884E+04  0.10002083884E+04  0.51100000000E-03 0. -1.
          2   -1    0    0  501    0 -0.00000000000E+00 -0.00000000000E+00 -0.27130594464E+03  0.27130594465E+03  0.25500000000E-02 0. -1.
         11    1    1    2    0    0 -0.10891338012E+03  0.17522026924E+03  0.94329379756E+03  0.96559176448E+03  0.51100000000E-03 0. -1.
         22    1    1    2    0    0  0.52752869305E+02 -0.35004138816E+02 -0.91146653465E+02  0.11097687774E+03  0.00000000000E+00 0. -1.
          2    1    1    2  501    0  0.56160510812E+02 -0.14021613042E+03 -0.12324470034E+03  0.19494569083E+03  0.25500000000E-02 0. -1.
<mgrwt>
<rscale>  0 0.21823145E+03</rscale>
<asrwt>0</asrwt>
<pdfrwt beam="1">  1       11 0.10000000E+01 0.20631109E+03</pdfrwt>
<pdfrwt beam="2">  1        2 0.41748073E-01 0.21823145E+03</pdfrwt>
<totfact> 0.15111607E+02</totfact>
</mgrwt>
</event>
<event>
 5    1  0.1851087E-003  0.1447514E+03  0.7818608E-02  0.1207075E+00
         11   -1    0    0    0    0  0.00000000000E+00  0.00000000000E+00  0.10000284392E+04  0.10000284392E+04  0.51100000000E-03 0. -1.
          2   -1    0    0  501    0 -0.00000000000E+00 -0.00000000000E+00 -0.21483677656E+02  0.21483677808E+02  0.25500000000E-02 0. -1.
         11    1    1    2    0    0  0.96214212662E+02  0.10695414001E+03  0.39830277728E+03  0.42348726684E+03  0.51100000000E-03 0. -1.
         22    1    1    2    0    0 -0.91791187409E+01 -0.45322692388E+01  0.35528469675E+02  0.36973907594E+02  0.00000000000E+00 0. -1.
          2    1    1    2  501    0 -0.87035093921E+02 -0.10242187077E+03  0.54471351459E+03  0.56105094258E+03  0.25500000000E-02 0. -1.
<mgrwt>
<rscale>  0 0.14475138E+03</rscale>
<asrwt>0</asrwt>
<pdfrwt beam="1">  1       11 0.10000000E+01 0.14386238E+03</pdfrwt>
<pdfrwt beam="2">  1        2 0.33052751E-02 0.14475138E+03</pdfrwt>
<totfact> 0.31880202E+03</totfact>
</mgrwt>
</event>
<event>
 5    1  0.1851087E-003  0.1564036E+03  0.7818608E-02  0.1192818E+00
         11   -1    0    0    0    0  0.00000000000E+00  0.00000000000E+00  0.10001631695E+04  0.10001631695E+04  0.51100000000E-03 0. -1.
          2   -1    0    0  501    0 -0.00000000000E+00 -0.00000000000E+00 -0.48141689485E+02  0.48141689552E+02  0.25500000000E-02 0. -1.
         11    1    1    2    0    0 -0.13354259534E+03 -0.78560254607E+02  0.84429023168E+03  0.85838880100E+03  0.51100000000E-03 0. -1.
         22    1    1    2    0    0  0.88475550001E+01  0.92247396912E+01  0.35909069345E+01  0.13276658633E+02  0.00000000000E+00 0. -1.
          2    1    1    2  501    0  0.12469504034E+03  0.69335514916E+02  0.10414034141E+03  0.17663939942E+03  0.25500000000E-02 0. -1.
<mgrwt>
<rscale>  0 0.15640360E+03</rscale>
<asrwt>0</asrwt>
<pdfrwt beam="1">  1       11 0.10000000E+01 0.15493656E+03</pdfrwt>
<pdfrwt beam="2">  1        2 0.74076221E-02 0.15640360E+03</pdfrwt>
<totfact> 0.11160013E+03</totfact>
</mgrwt>
</event>
<event>
 5    1  0.1851087E-003  0.1854445E+03  0.7818608E-02  0.1335453E+00
         11   -1    0    0    0    0  0.00000000000E+00  0.00000000000E+00  0.99996925460E+03  0.99996925460E+03  0.51100000000E-03 0. -1.
          2   -1    0    0  501    0 -0.00000000000E+00 -0.00000000000E+00 -0.93534075340E+02  0.93534075374E+02  0.25500000000E-02 0. -1.
         11    1    1    2    0    0  0.17648207590E+03 -0.66802114717E+02  0.86566304209E+03  0.88599150565E+03  0.51100000000E-03 0. -1.
         22    1    1    2    0    0 -0.32068062859E+02 -0.60210295953E+01  0.31746054943E+02  0.45523899848E+02  0.00000000000E+00 0. -1.
          2    1    1    2  501    0 -0.14441401304E+03  0.72823144312E+02  0.90260822254E+01  0.16198792447E+03  0.25500000000E-02 0. -1.
<mgrwt>
<rscale>  0 0.77786631E+02</rscale>
<asrwt>0</asrwt>
<pdfrwt beam="1">  1       11 0.10000000E+01 0.18544449E+03</pdfrwt>
<pdfrwt beam="2">  1        2 0.14389415E-01 0.77786631E+02</pdfrwt>
<totfact> 0.47831278E+02</totfact>
</mgrwt>
</event>
<event>
 5    1  0.1851087E-003  0.1816942E+03  0.7818608E-02  0.1166173E+00
         11   -1    0    0    0    0  0.00000000000E+00  0.00000000000E+00  0.10001523551E+04  0.10001523551E+04  0.51100000000E-03 0.  1.
          2   -1    0    0  501    0 -0.00000000000E+00 -0.00000000000E+00 -0.67189292521E+02  0.67189292569E+02  0.25500000000E-02 0.  1.
         11    1    1    2    0    0 -0.67844416873E+02 -0.16597654272E+03  0.84802522239E+03  0.86677439709E+03  0.51100000000E-03 0.  1.
         22    1    1    2    0    0  0.91669324722E+01  0.52661873092E+01  0.58796337474E+01  0.12096919969E+02  0.00000000000E+00 0.  1.
          2    1    1    2  501    0  0.58677484401E+02  0.16071035541E+03  0.79058206458E+02  0.18847033063E+03  0.25500000000E-02 0.  1.
<mgrwt>
<rscale>  0 0.18169421E+03</rscale>
<asrwt>0</asrwt>
<pdfrwt beam="1">  1       11 0.10000000E+01 0.17930722E+03</pdfrwt>
<pdfrwt beam="2">  1        2 0.10338389E-01 0.18169421E+03</pdfrwt>
<totfact> 0.74173782E+02</totfact>
</mgrwt>
</event>
<event>
 5    1  0.1851087E-003  0.6927336E+03  0.7818608E-02  0.9729740E-01
         11   -1    0    0    0    0  0.00000000000E+00  0.00000000000E+00  0.10002798896E+04  0.10002798896E+04  0.51100000000E-03 0.  1.
          2   -1    0    0  501    0 -0.00000000000E+00 -0.00000000000E+00 -0.10713329814E+04  0.10713329814E+04  0.25500000000E-02 0.  1.
         11    1    1    2    0    0 -0.57364531298E+03  0.37229735266E+03  0.73824679956E+03  0.10063213209E+04  0.51100000000E-03 0.  1.
         22    1    1    2    0    0  0.10230670669E+03 -0.73066212381E+02 -0.89363171013E+02  0.15424367073E+03  0.00000000000E+00 0. -1.
          2    1    1    2  501    0  0.47133860629E+03 -0.29923114028E+03 -0.71993672034E+03  0.91104787930E+03  0.25500000000E-02 0.  1.
<mgrwt>
<rscale>  0 0.69273355E+03</rscale>
<asrwt>0</asrwt>
<pdfrwt beam="1">  1       11 0.10000000E+01 0.68386714E+03</pdfrwt>
<pdfrwt beam="2">  1        2 0.16486659E+00 0.69273355E+03</pdfrwt>
<totfact> 0.28353352E+01</totfact>
</mgrwt>
</event>
<event>
 5    1  0.1851087E-003  0.1394305E+03  0.7818608E-02  0.1214097E+00
         11   -1    0    0    0    0  0.00000000000E+00  0.00000000000E+00  0.10003970513E+04  0.10003970513E+04  0.51100000000E-03 0.  1.
          2   -1    0    0  501    0 -0.00000000000E+00 -0.00000000000E+00 -0.21539962614E+02  0.21539962765E+02  0.25500000000E-02 0.  1.
         11    1    1    2    0    0 -0.59601678460E+02 -0.12318521498E+03  0.65823305666E+03  0.67230775256E+03  0.51100000000E-03 0.  1.
         22    1    1    2    0    0  0.38263214020E+01  0.17826262543E+02  0.25587660392E+02  0.31418859560E+02  0.00000000000E+00 0.  1.
          2    1    1    2  501    0  0.55775357058E+02  0.10535895244E+03  0.29503637161E+03  0.31821040192E+03  0.25500000000E-02 0.  1.
<mgrwt>
<rscale>  0 0.13943045E+03</rscale>
<asrwt>0</asrwt>
<pdfrwt beam="1">  1       11 0.10000000E+01 0.13684647E+03</pdfrwt>
<pdfrwt beam="2">  1        2 0.33151561E-02 0.13943045E+03</pdfrwt>
<totfact> 0.31638252E+03</totfact>
</mgrwt>
</event>
<event>
 5    1  0.1851087E-003  0.2076664E+03  0.7818608E-02  0.1186931E+00
         11   -1    0    0    0    0  0.00000000000E+00  0.00000000000E+00  0.10004057368E+04  0.10004057368E+04  0.51100000000E-03 0.  1.
          2   -1    0    0  501    0 -0.00000000000E+00 -0.00000000000E+00 -0.11875734638E+03  0.11875734641E+03  0.25500000000E-02 0.  1.
         11    1    1    2    0    0  0.25983687561E+03 -0.57498815223E+01  0.75296108185E+03  0.79655423785E+03  0.51100000000E-03 0.  1.
         22    1    1    2    0    0 -0.12337773807E+03 -0.24110360317E+02 -0.95623383437E+01  0.12607463679E+03  0.00000000000E+00 0.  1.
          2    1    1    2  501    0 -0.13645913753E+03  0.29860241840E+02  0.13824964691E+03  0.19653420856E+03  0.25500000000E-02 0.  1.
<mgrwt>
<rscale>  0 0.16157366E+03</rscale>
<asrwt>0</asrwt>
<pdfrwt beam="1">  1       11 0.10000000E+01 0.20766638E+03</pdfrwt>
<pdfrwt beam="2">  1        2 0.18277773E-01 0.16157366E+03</pdfrwt>
<totfact> 0.37446102E+02</totfact>
</mgrwt>
</event>
<event>
 5    1  0.1851087E-003  0.1972997E+03  0.7818608E-02  0.1152037E+00
         11   -1    0    0    0    0  0.00000000000E+00  0.00000000000E+00  0.10002053678E+04  0.10002053678E+04  0.51100000000E-03 0.  1.
          2   -1    0    0  501    0 -0.00000000000E+00 -0.00000000000E+00 -0.59617052812E+02  0.59617052867E+02  0.25500000000E-02 0.  1.
         11    1    1    2    0    0  0.16906268847E+03  0.68865245896E+02  0.79216923825E+03  0.81293094218E+03  0.51100000000E-03 0.  1.
         22    1    1    2    0    0 -0.50362647955E+02 -0.58990107677E+02  0.49032772673E+02  0.91762965889E+02  0.00000000000E+00 0.  1.
          2    1    1    2  501    0 -0.11870004052E+03 -0.98751382191E+01  0.99386304019E+02  0.15512851255E+03  0.25500000000E-02 0.  1.
<mgrwt>
<rscale>  0 0.19729972E+03</rscale>
<asrwt>0</asrwt>
<pdfrwt beam="1">  1       11 0.10000000E+01 0.18255031E+03</pdfrwt>
<pdfrwt beam="2">  1        2 0.91737376E-02 0.19729972E+03</pdfrwt>
<totfact> 0.86417689E+02</totfact>
</mgrwt>
</event>
<event>
 5    1  0.1851087E-003  0.5155141E+02  0.7818608E-02  0.1741141E+00
         11   -1    0    0    0    0  0.00000000000E+00  0.00000000000E+00  0.10003731455E+04  0.10003731455E+04  0.51100000000E-03 0. -1.
          2   -1    0    0  501    0 -0.00000000000E+00 -0.00000000000E+00 -0.97738016377E+01  0.97738019704E+01  0.25500000000E-02 0. -1.
         11    1    1    2    0    0  0.19133508325E+02  0.42986993832E+02  0.24730224929E+03  0.25173870438E+03  0.51100000000E-03 0. -1.
         22    1    1    2    0    0 -0.32192582275E+02 -0.58414022863E+02  0.14320030678E+03  0.15797116282E+03  0.00000000000E+00 0. -1.
          2    1    1    2  501    0  0.13059073950E+02  0.15427029031E+02  0.60009678776E+03  0.60043708024E+03  0.25500000000E-02 0. -1.
<mgrwt>
<rscale>  0 0.20212190E+02</rscale>
<asrwt>0</asrwt>
<pdfrwt beam="1">  1       11 0.10000000E+01 0.51551415E+02</pdfrwt>
<pdfrwt beam="2">  1        2 0.15042229E-02 0.20212190E+02</pdfrwt>
<totfact> 0.67511340E+03</totfact>
</mgrwt>
</event>
<event>
 5    1  0.1851087E-003  0.5621235E+02  0.7818608E-02  0.1551318E+00
         11   -1    0    0    0    0  0.00000000000E+00  0.00000000000E+00  0.10000738601E+04  0.10000738601E+04  0.51100000000E-03 0.  1.
          2   -1    0    0  501    0 -0.00000000000E+00 -0.00000000000E+00 -0.84981049068E+01  0.84981052894E+01  0.25500000000E-02 0.  1.
         11    1    1    2    0    0 -0.38638694515E+02 -0.54253863671E+02  0.36081954402E+03  0.36691575843E+03  0.51100000000E-03 0.  1.
         22    1    1    2    0    0  0.59518831775E+01  0.42618868143E+02  0.89693993540E+02  0.99482688506E+02  0.00000000000E+00 0.  1.
          2    1    1    2  501    0  0.32686811338E+02  0.11634995527E+02  0.54106221764E+03  0.54217351846E+03  0.25500000000E-02 0.  1.
<mgrwt>
<rscale>  0 0.34695832E+02</rscale>
<asrwt>0</asrwt>
<pdfrwt beam="1">  1       11 0.10000000E+01 0.56212351E+02</pdfrwt>
<pdfrwt beam="2">  1        2 0.13074973E-02 0.34695832E+02</pdfrwt>
<totfact> 0.90182179E+03</totfact>
</mgrwt>
</event>
<event>
 5    1  0.1851087E-003  0.1144924E+03  0.7818608E-02  0.1252470E+00
         11   -1    0    0    0    0  0.00000000000E+00  0.00000000000E+00  0.99988374048E+03  0.99988374048E+03  0.51100000000E-03 0. -1.
          2   -1    0    0  501    0 -0.00000000000E+00 -0.00000000000E+00 -0.14244343202E+02  0.14244343430E+02  0.25500000000E-02 0. -1.
         11    1    1    2    0    0  0.21080197786E+02  0.11134901797E+03  0.64177343839E+03  0.65170248178E+03  0.51100000000E-03 0. -1.
         22    1    1    2    0    0 -0.64023816112E+01 -0.11490393100E+02  0.50389470630E+02  0.52078002787E+02  0.00000000000E+00 0.  1.
          2    1    1    2  501    0 -0.14677816174E+02 -0.99858624870E+02  0.29347648826E+03  0.31034759934E+03  0.25500000000E-02 0. -1.
<mgrwt>
<rscale>  0 0.11449244E+03</rscale>
<asrwt>0</asrwt>
<pdfrwt beam="1">  1       11 0.10000000E+01 0.11332687E+03</pdfrwt>
<pdfrwt beam="2">  1        2 0.21911826E-02 0.11449244E+03</pdfrwt>
<totfact> 0.54103281E+03</totfact>
</mgrwt>
</event>
<event>
 5    1  0.1851087E-003  0.2194606E+03  0.7818608E-02  0.1571449E+00
         11   -1    0    0    0    0  0.00000000000E+00  0.00000000000E+00  0.99987399592E+03  0.99987399592E+03  0.51100000000E-03 0.  1.
         -2   -1    0    0    0  501 -0.00000000000E+00 -0.00000000000E+00 -0.15645349802E+04  0.15645349802E+04  0.25500000000E-02 0.  1.
         11    1    1    2    0    0  0.20978488322E+03  0.64132361988E+02  0.97501966584E+03  0.99939281859E+03  0.51100000000E-03 0.  1.
         22    1    1    2    0    0 -0.22691564267E+03 -0.36448855044E+02 -0.10799204659E+04  0.11041048141E+04  0.00000000000E+00 0.  1.
         -2    1    1    2    0  501  0.17130759449E+02 -0.27683506944E+02 -0.45976018428E+03  0.46091134346E+03  0.25500000000E-02 0.  1.
<mgrwt>
<rscale>  0 0.32555176E+02</rscale>
<asrwt>0</asrwt>
<pdfrwt beam="1">  1       11 0.10000000E+01 0.21946064E+03</pdfrwt>
<pdfrwt beam="2">  1       -2 0.24066735E+00 0.32555176E+02</pdfrwt>
<totfact> 0.79390535E-01</totfact>
</mgrwt>
</event>
<event>
 5    1  0.1851087E-003  0.1807207E+03  0.7818608E-02  0.1167107E+00
         11   -1    0    0    0    0  0.00000000000E+00  0.00000000000E+00  0.10003825840E+04  0.10003825840E+04  0.51100000000E-03 0. -1.
         -2   -1    0    0    0  501 -0.00000000000E+00 -0.00000000000E+00 -0.42796745732E+02  0.42796745808E+02  0.25500000000E-02 0.  1.
         11    1    1    2    0    0  0.81985965782E+02  0.15607991393E+03  0.73811160049E+03  0.75887507068E+03  0.51100000000E-03 0. -1.
         22    1    1    2    0    0 -0.12676362635E+02 -0.12166673807E+02  0.80595720748E+01  0.19330670532E+02  0.00000000000E+00 0.  1.
         -2    1    1    2    0  501 -0.69309603147E+02 -0.14391324012E+03  0.21141466568E+03  0.26497358858E+03  0.25500000000E-02 0.  1.
<mgrwt>
<rscale>  0 0.18072070E+03</rscale>
<asrwt>0</asrwt>
<pdfrwt beam="1">  1       11 0.10000000E+01 0.17630269E+03</pdfrwt>
<pdfrwt beam="2">  1       -2 0.65866335E-02 0.18072070E+03</pdfrwt>
<totfact> 0.99447533E+02</totfact>
</mgrwt>
</event>
<event>
 5    1  0.1851087E-003  0.2186526E+03  0.7818608E-02  0.1134892E+00
         11   -1    0    0    0    0  0.00000000000E+00  0.00000000000E+00  0.10001653100E+04  0.10001653100E+04  0.51100000000E-03 0.  1.
          2   -1    0    0  501    0 -0.00000000000E+00 -0.00000000000E+00 -0.55074894091E+02  0.55074894150E+02  0.25500000000E-02 0.  1.
         11    1    1    2    0    0 -0.69302566441E+02  0.18838710517E+03  0.69324502000E+03  0.72172100209E+03  0.51100000000E-03 0.  1.
         22    1    1    2    0    0 -0.20694488921E+02 -0.40829521306E+02  0.55381440103E+02  0.71849951912E+02  0.00000000000E+00 0. -1.
          2    1    1    2  501    0  0.89997055362E+02 -0.14755758386E+03  0.19646395577E+03  0.26166925011E+03  0.25500000000E-02 0.  1.
<mgrwt>
<rscale>  0 0.21865259E+03</rscale>
<asrwt>0</asrwt>
<pdfrwt beam="1">  1       11 0.10000000E+01 0.20073004E+03</pdfrwt>
<pdfrwt beam="2">  1        2 0.84744611E-02 0.21865259E+03</pdfrwt>
<totfact> 0.96017489E+02</totfact>
</mgrwt>
</event>
<event>
 5    1  0.1851087E-003  0.4775833E+03  0.7818608E-02  0.1019801E+00
         11   -1    0    0    0    0  0.00000000000E+00  0.00000000000E+00  0.10003178344E+04  0.10003178344E+04  0.51100000000E-03 0. -1.
          2   -1    0    0  501    0 -0.00000000000E+00 -0.00000000000E+00 -0.36674719738E+03  0.36674719739E+03  0.25500000000E-02 0. -1.
         11    1    1    2    0    0  0.45094176975E+02  0.47025060650E+03  0.73984146674E+03  0.87780095330E+03  0.51100000000E-03 0. -1.
         22    1    1    2    0    0 -0.27917295731E+02 -0.52357877432E+02 -0.13678672092E+02  0.60891943641E+02  0.00000000000E+00 0. -1.
          2    1    1    2  501    0 -0.17176881244E+02 -0.41789272907E+03 -0.92592157629E+02  0.42837213485E+03  0.25500000000E-02 0. -1.
<mgrwt>
<rscale>  0 0.47758334E+03</rscale>
<asrwt>0</asrwt>
<pdfrwt beam="1">  1       11 0.10000000E+01 0.47240779E+03</pdfrwt>
<pdfrwt beam="2">  1        2 0.56440577E-01 0.47758334E+03</pdfrwt>
<totfact> 0.10873544E+02</totfact>
</mgrwt>
</event>
<event>
 5    1  0.1851087E-003  0.1971803E+03  0.7818608E-02  0.1371315E+00
         11   -1    0    0    0    0  0.00000000000E+00  0.00000000000E+00  0.10004218404E+04  0.10004218404E+04  0.51100000000E-03 0. -1.
          2   -1    0    0  501    0 -0.00000000000E+00 -0.00000000000E+00 -0.14381169699E+03  0.14381169701E+03  0.25500000000E-02 0.  1.
         11    1    1    2    0    0  0.19163560424E+03 -0.47514272139E+02  0.90029202021E+03  0.92168732905E+03  0.51100000000E-03 0. -1.
         22    1    1    2    0    0  0.22168419342E+01  0.22523457541E+02 -0.22254980683E+01  0.22741446071E+02  0.00000000000E+00 0. -1.
          2    1    1    2  501    0 -0.19385244617E+03  0.24990814598E+02 -0.41456378715E+02  0.19980476231E+03  0.25500000000E-02 0.  1.
<mgrwt>
<rscale>  0 0.66803006E+02</rscale>
<asrwt>0</asrwt>
<pdfrwt beam="1">  1       11 0.10000000E+01 0.19718030E+03</pdfrwt>
<pdfrwt beam="2">  1        2 0.22134209E-01 0.66803006E+02</pdfrwt>
<totfact> 0.29279197E+02</totfact>
</mgrwt>
</event>
<event>
 5    1  0.1851087E-003  0.1337554E+03  0.7818608E-02  0.1221987E+00
         11   -1    0    0    0    0  0.00000000000E+00  0.00000000000E+00  0.99998529463E+03  0.99998529463E+03  0.51100000000E-03 0. -1.
          2   -1    0    0  501    0 -0.00000000000E+00 -0.00000000000E+00 -0.18367754940E+02  0.18367755117E+02  0.25500000000E-02 0. -1.
         11    1    1    2    0    0  0.78285009262E+02 -0.10367743999E+03  0.36601226564E+03  0.38838451674E+03  0.51100000000E-03 0. -1.
         22    1    1    2    0    0 -0.18739702744E+02  0.23971170404E+02  0.89285919955E+02  0.94327986153E+02  0.00000000000E+00 0. -1.
          2    1    1    2  501    0 -0.59545306518E+02  0.79706269588E+02  0.52631935409E+03  0.53564054686E+03  0.25500000000E-02 0. -1.
<mgrwt>
<rscale>  0 0.13375537E+03</rscale>
<asrwt>0</asrwt>
<pdfrwt beam="1">  1       11 0.10000000E+01 0.12991371E+03</pdfrwt>
<pdfrwt beam="2">  1        2 0.28257668E-02 0.13375537E+03</pdfrwt>
<totfact> 0.39045581E+03</totfact>
</mgrwt>
</event>
<event>
 5    1  0.1851087E-003  0.3677857E+03  0.7818608E-02  0.1055543E+00
         11   -1    0    0    0    0  0.00000000000E+00  0.00000000000E+00  0.10000913435E+04  0.10000913435E+04  0.51100000000E-03 0. -1.
          2   -1    0    0  501    0 -0.00000000000E+00 -0.00000000000E+00 -0.16866583543E+03  0.16866583545E+03  0.25500000000E-02 0. -1.
         11    1    1    2    0    0  0.30216118716E+03  0.20666258181E+03  0.67746772787E+03  0.77004761414E+03  0.51100000000E-03 0. -1.
         22    1    1    2    0    0 -0.51828972027E+01 -0.10959242504E+02  0.51160174000E+01  0.13158307403E+02  0.00000000000E+00 0.  1.
          2    1    1    2  501    0 -0.29697828995E+03 -0.19570333930E+03  0.14884176278E+03  0.38555125739E+03  0.25500000000E-02 0. -1.
<mgrwt>
<rscale>  0 0.36778570E+03</rscale>
<asrwt>0</asrwt>
<pdfrwt beam="1">  1       11 0.10000000E+01 0.36607486E+03</pdfrwt>
<pdfrwt beam="2">  1        2 0.25950960E-01 0.36778570E+03</pdfrwt>
<totfact> 0.25644423E+02</totfact>
</mgrwt>
</event>
<event>
 5    1  0.1851087E-003  0.1832002E+03  0.7818608E-02  0.1164741E+00
         11   -1    0    0    0    0  0.00000000000E+00  0.00000000000E+00  0.10003052080E+04  0.10003052080E+04  0.51100000000E-03 0. -1.
         -2   -1    0    0    0  501 -0.00000000000E+00 -0.00000000000E+00 -0.91034704124E+02  0.91034704160E+02  0.25500000000E-02 0.  1.
         11    1    1    2    0    0  0.10873523220E+03 -0.14453156681E+03  0.88878103268E+03  0.90699749094E+03  0.51100000000E-03 0. -1.
         22    1    1    2    0    0 -0.17894641553E+02  0.18138097996E+02  0.12768187168E+02  0.28499743837E+02  0.00000000000E+00 0. -1.
         -2    1    1    2    0  501 -0.90840590645E+02  0.12639346881E+03  0.77212840552E+01  0.15584267741E+03  0.25500000000E-02 0.  1.
<mgrwt>
<rscale>  0 0.18320019E+03</rscale>
<asrwt>0</asrwt>
<pdfrwt beam="1">  1       11 0.10000000E+01 0.18086659E+03</pdfrwt>
<pdfrwt beam="2">  1       -2 0.14009613E-01 0.18320019E+03</pdfrwt>
<totfact> 0.30218973E+02</totfact>
</mgrwt>
</event>
<event>
 5    1  0.1851087E-003  0.1018582E+03  0.7818608E-02  0.1276436E+00
         11   -1    0    0    0    0  0.00000000000E+00  0.00000000000E+00  0.10000373084E+04  0.10000373084E+04  0.51100000000E-03 0. -1.
         -2   -1    0    0    0  501 -0.00000000000E+00 -0.00000000000E+00 -0.10401661062E+02  0.10401661374E+02  0.25500000000E-02 0. -1.
         11    1    1    2    0    0 -0.33300054029E+02  0.94333841714E+02  0.56247815968E+03  0.57130503885E+03  0.51100000000E-03 0. -1.
         22    1    1    2    0    0  0.12608122886E+00 -0.21023267331E+02  0.74254741965E+02  0.77173573003E+02  0.00000000000E+00 0.  1.
         -2    1    1    2    0  501  0.33173972800E+02 -0.73310574384E+02  0.35290274573E+03  0.36196035796E+03  0.25500000000E-02 0. -1.
<mgrwt>
<rscale>  0 0.10185819E+03</rscale>
<asrwt>0</asrwt>
<pdfrwt beam="1">  1       11 0.10000000E+01 0.10003883E+03</pdfrwt>
<pdfrwt beam="2">  1       -2 0.16003152E-02 0.10185819E+03</pdfrwt>
<totfact> 0.75743309E+03</totfact>
</mgrwt>
</event>
<event>
 5    1  0.1851087E-003  0.2836239E+03  0.7818608E-02  0.1093726E+00
         11   -1    0    0    0    0  0.00000000000E+00  0.00000000000E+00  0.99994837347E+03  0.99994837347E+03  0.51100000000E-03 0. -1.
          2   -1    0    0  501    0 -0.00000000000E+00 -0.00000000000E+00 -0.18127386041E+03  0.18127386042E+03  0.25500000000E-02 0. -1.
         11    1    1    2    0    0  0.24219266639E+03 -0.14321951136E+03  0.85048479194E+03  0.89582001396E+03  0.51100000000E-03 0. -1.
         22    1    1    2    0    0 -0.15458069150E+02  0.13291693535E+01  0.25797518784E+01  0.15728118539E+02  0.00000000000E+00 0.  1.
          2    1    1    2  501    0 -0.22673459724E+03  0.14189034200E+03 -0.34390030760E+02  0.26967410139E+03  0.25500000000E-02 0. -1.
<mgrwt>
<rscale>  0 0.28362393E+03</rscale>
<asrwt>0</asrwt>
<pdfrwt beam="1">  1       11 0.10000000E+01 0.28137007E+03</pdfrwt>
<pdfrwt beam="2">  1        2 0.27886846E-01 0.28362393E+03</pdfrwt>
<totfact> 0.23556520E+02</totfact>
</mgrwt>
</event>
<event>
 5    1  0.1851087E-003  0.1016763E+03  0.7818608E-02  0.1276810E+00
         11   -1    0    0    0    0  0.00000000000E+00  0.00000000000E+00  0.10001491250E+04  0.10001491250E+04  0.51100000000E-03 0.  1.
          2   -1    0    0  501    0 -0.00000000000E+00 -0.00000000000E+00 -0.10022138034E+02  0.10022138358E+02  0.25500000000E-02 0.  1.
         11    1    1    2    0    0  0.37572765954E+02  0.90773924363E+02  0.45817284890E+03  0.46858721446E+03  0.51100000000E-03 0.  1.
         22    1    1    2    0    0 -0.99153117241E+01 -0.42722021610E+01  0.50851931348E+02  0.51985421415E+02  0.00000000000E+00 0. -1.
          2    1    1    2  501    0 -0.27657454230E+02 -0.86501722202E+02  0.48110220675E+03  0.48959862752E+03  0.25500000000E-02 0.  1.
<mgrwt>
<rscale>  0 0.10167633E+03</rscale>
<asrwt>0</asrwt>
<pdfrwt beam="1">  1       11 0.10000000E+01 0.98242698E+02</pdfrwt>
<pdfrwt beam="2">  1        2 0.15420973E-02 0.10167633E+03</pdfrwt>
<totfact> 0.85886772E+03</totfact>
</mgrwt>
</event>
<event>
 5    1  0.1851087E-003  0.1582912E+03  0.7818608E-02  0.1351000E+00
         11   -1    0    0    0    0  0.00000000000E+00  0.00000000000E+00  0.10003208795E+04  0.10003208795E+04  0.51100000000E-03 0. -1.
          2   -1    0    0  501    0 -0.00000000000E+00 -0.00000000000E+00 -0.38550572099E+03  0.38550572100E+03  0.25500000000E-02 0.  1.
         11    1    1    2    0    0 -0.52397204492E+02  0.14820345644E+03  0.93747188372E+03  0.95055944806E+03  0.51100000000E-03 0. -1.
         22    1    1    2    0    0  0.22419872496E+02 -0.21448454361E+03 -0.26954511763E+03  0.34519681425E+03  0.00000000000E+00 0.  1.
          2    1    1    2  501    0  0.29977331996E+02  0.66281087169E+02 -0.53111607601E+02  0.90070338172E+02  0.25500000000E-02 0.  1.
<mgrwt>
<rscale>  0 0.72744917E+02</rscale>
<asrwt>0</asrwt>
<pdfrwt beam="1">  1       11 0.10000000E+01 0.15829122E+03</pdfrwt>
<pdfrwt beam="2">  1        2 0.59327602E-01 0.72744917E+02</pdfrwt>
<totfact> 0.10393931E+02</totfact>
</mgrwt>
</event>
<event>
 5    1  0.1851087E-003  0.1529856E+03  0.7818608E-02  0.1196852E+00
         11   -1    0    0    0    0  0.00000000000E+00  0.00000000000E+00  0.99995294223E+03  0.99995294223E+03  0.51100000000E-03 0.  1.
         -2   -1    0    0    0  501 -0.00000000000E+00 -0.00000000000E+00 -0.29841870263E+02  0.29841870372E+02  0.25500000000E-02 0.  1.
         11    1    1    2    0    0  0.96577223036E+02 -0.11425870050E+03  0.72937831569E+03  0.74456358898E+03  0.51100000000E-03 0.  1.
         22    1    1    2    0    0 -0.32918391224E+02  0.54926386779E+02  0.80191852998E+02  0.10262193592E+03  0.00000000000E+00 0.  1.
         -2    1    1    2    0  501 -0.63658831813E+02  0.59332313716E+02  0.16054090328E+03  0.18260928769E+03  0.25500000000E-02 0.  1.
<mgrwt>
<rscale>  0 0.15298559E+03</rscale>
<asrwt>0</asrwt>
<pdfrwt beam="1">  1       11 0.10000000E+01 0.14960685E+03</pdfrwt>
<pdfrwt beam="2">  1       -2 0.45908408E-02 0.15298559E+03</pdfrwt>
<totfact> 0.16968436E+03</totfact>
</mgrwt>
</event>
<event>
 5    1  0.1851087E-003  0.2277784E+03  0.7818608E-02  0.1128213E+00
         11   -1    0    0    0    0  0.00000000000E+00  0.00000000000E+00  0.10001621094E+04  0.10001621094E+04  0.51100000000E-03 0.  1.
         -2   -1    0    0    0  501 -0.00000000000E+00 -0.00000000000E+00 -0.95381430922E+02  0.95381430956E+02  0.25500000000E-02 0. -1.
         11    1    1    2    0    0  0.78919137522E+02 -0.19378366772E+03  0.82975091341E+03  0.85572595990E+03  0.51100000000E-03 0.  1.
         22    1    1    2    0    0  0.49209486533E+01  0.95173410494E+02  0.12651261230E+02  0.96136612231E+02  0.00000000000E+00 0. -1.
         -2    1    1    2    0  501 -0.83840086176E+02  0.98610257228E+02  0.62378503828E+02  0.14368096821E+03  0.25500000000E-02 0. -1.
<mgrwt>
<rscale>  0 0.22777841E+03</rscale>
<asrwt>0</asrwt>
<pdfrwt beam="1">  1       11 0.10000000E+01 0.20923752E+03</pdfrwt>
<pdfrwt beam="2">  1       -2 0.14676445E-01 0.22777841E+03</pdfrwt>
<totfact> 0.28251013E+02</totfact>
</mgrwt>
</event>
<event>
 5    1  0.1851087E-003  0.1747227E+03  0.7818608E-02  0.1173010E+00
         11   -1    0    0    0    0  0.00000000000E+00  0.00000000000E+00  0.99998956272E+03  0.99998956272E+03  0.51100000000E-03 0.  1.
          2   -1    0    0  501    0 -0.00000000000E+00 -0.00000000000E+00 -0.40647671253E+03  0.40647671254E+03  0.25500000000E-02 0.  1.
         11    1    1    2    0    0 -0.10751503371E+03 -0.13053676020E+03  0.97358143751E+03  0.98815997880E+03  0.51100000000E-03 0.  1.
         22    1    1    2    0    0  0.62942167887E+02  0.52326596362E+02 -0.21888155468E+03  0.23368552408E+03  0.00000000000E+00 0.  1.
          2    1    1    2  501    0  0.44572865825E+02  0.78210163835E+02 -0.16118703264E+03  0.18462077238E+03  0.25500000000E-02 0.  1.
<mgrwt>
<rscale>  0 0.17472271E+03</rscale>
<asrwt>0</asrwt>
<pdfrwt beam="1">  1       11 0.10000000E+01 0.16911336E+03</pdfrwt>
<pdfrwt beam="2">  1        2 0.62534224E-01 0.17472271E+03</pdfrwt>
<totfact> 0.97894746E+01</totfact>
</mgrwt>
</event>
<event>
 5    1  0.1851087E-003  0.1350550E+03  0.7818608E-02  0.1441453E+00
         11   -1    0    0    0    0  0.00000000000E+00  0.00000000000E+00  0.10001645890E+04  0.10001645890E+04  0.51100000000E-03 0. -1.
          2   -1    0    0  501    0 -0.00000000000E+00 -0.00000000000E+00 -0.22218493831E+02  0.22218493978E+02  0.25500000000E-02 0. -1.
         11    1    1    2    0    0 -0.86384150446E+02  0.10654026306E+03  0.58832676558E+03  0.60410382568E+03  0.51100000000E-03 0. -1.
         22    1    1    2    0    0  0.17757236514E+02  0.69093587156E+01  0.38449250348E+02  0.42911578144E+02  0.00000000000E+00 0.  1.
          2    1    1    2  501    0  0.68626913932E+02 -0.11344962177E+03  0.35117007928E+03  0.37536767919E+03  0.25500000000E-02 0. -1.
<mgrwt>
<rscale>  0 0.50728203E+02</rscale>
<asrwt>0</asrwt>
<pdfrwt beam="1">  1       11 0.10000000E+01 0.13505496E+03</pdfrwt>
<pdfrwt beam="2">  1        2 0.34187923E-02 0.50728203E+02</pdfrwt>
<totfact> 0.27184683E+03</totfact>
</mgrwt>
</event>
<event>
 5    1  0.1851087E-003  0.3442244E+03  0.7818608E-02  0.1065011E+00
         11   -1    0    0    0    0  0.00000000000E+00  0.00000000000E+00  0.10000781343E+04  0.10000781343E+04  0.51100000000E-03 0.  1.
          2   -1    0    0  501    0 -0.00000000000E+00 -0.00000000000E+00 -0.20396197906E+03  0.20396197907E+03  0.25500000000E-02 0.  1.
         11    1    1    2    0    0  0.33884582004E+03  0.30888014584E+02  0.78956010489E+03  0.85975328929E+03  0.51100000000E-03 0.  1.
         22    1    1    2    0    0 -0.32529015885E+02  0.41384134407E+01 -0.13184695336E+02  0.35342602215E+02  0.00000000000E+00 0.  1.
          2    1    1    2  501    0 -0.30631680415E+03 -0.35026428024E+02  0.19740745655E+02  0.30894422184E+03  0.25500000000E-02 0.  1.
<mgrwt>
<rscale>  0 0.34422440E+03</rscale>
<asrwt>0</asrwt>
<pdfrwt beam="1">  1       11 0.10000000E+01 0.34025073E+03</pdfrwt>
<pdfrwt beam="2">  1        2 0.31381217E-01 0.34422440E+03</pdfrwt>
<totfact> 0.20718960E+02</totfact>
</mgrwt>
</event>
<event>
 5    1  0.1851087E-003  0.1703362E+03  0.7818608E-02  0.1177498E+00
         11   -1    0    0    0    0  0.00000000000E+00  0.00000000000E+00  0.10000953585E+04  0.10000953585E+04  0.51100000000E-03 0. -1.
          2   -1    0    0  501    0 -0.00000000000E+00 -0.00000000000E+00 -0.13911694809E+03  0.13911694811E+03  0.25500000000E-02 0. -1.
         11    1    1    2    0    0 -0.12424427187E+03 -0.10669777261E+03  0.93805881376E+03  0.95224754757E+03  0.51100000000E-03 0. -1.
         22    1    1    2    0    0  0.16365918746E+02 -0.19774320514E+01 -0.26150596037E+01  0.16691077576E+02  0.00000000000E+00 0. -1.
          2    1    1    2  501    0  0.10787835313E+03  0.10867520466E+03 -0.74465343734E+02  0.17027368148E+03  0.25500000000E-02 0. -1.
<mgrwt>
<rscale>  0 0.17033623E+03</rscale>
<asrwt>0</asrwt>
<pdfrwt beam="1">  1       11 0.10000000E+01 0.16377135E+03</pdfrwt>
<pdfrwt beam="2">  1        2 0.21404648E-01 0.17033623E+03</pdfrwt>
<totfact> 0.31333507E+02</totfact>
</mgrwt>
</event>
<event>
 5    1  0.1851087E-003  0.2635948E+03  0.7818608E-02  0.1305737E+00
         11   -1    0    0    0    0  0.00000000000E+00  0.00000000000E+00  0.10001534230E+04  0.10001534230E+04  0.51100000000E-03 0. -1.
          2   -1    0    0  501    0 -0.00000000000E+00 -0.00000000000E+00 -0.51805122747E+03  0.51805122747E+03  0.25500000000E-02 0. -1.
         11    1    1    2    0    0 -0.24234339254E+03 -0.93492502417E+02  0.88636278102E+03  0.92363961993E+03  0.51100000000E-03 0. -1.
         22    1    1    2    0    0  0.31646331696E+03  0.14243164702E+03 -0.32755152089E+03  0.47720624880E+03  0.00000000000E+00 0. -1.
          2    1    1    2  501    0 -0.74119924424E+02 -0.48939144599E+02 -0.76709064558E+02  0.11735878179E+03  0.25500000000E-02 0. -1.
<mgrwt>
<rscale>  0 0.88818934E+02</rscale>
<asrwt>0</asrwt>
<pdfrwt beam="1">  1       11 0.10000000E+01 0.26359477E+03</pdfrwt>
<pdfrwt beam="2">  1        2 0.79712414E-01 0.88818934E+02</pdfrwt>
<totfact> 0.75861370E+01</totfact>
</mgrwt>
</event>
<event>
 5    1  0.1851087E-003  0.2840589E+03  0.7818608E-02  0.1183884E+00
         11   -1    0    0    0    0  0.00000000000E+00  0.00000000000E+00  0.99996127306E+03  0.99996127306E+03  0.51100000000E-03 0. -1.
          2   -1    0    0  501    0 -0.00000000000E+00 -0.00000000000E+00 -0.40646521332E+03  0.40646521333E+03  0.25500000000E-02 0. -1.
         11    1    1    2    0    0  0.23709445943E+02  0.29985198790E+03  0.89125103030E+03  0.94063901231E+03  0.51100000000E-03 0. -1.
         22    1    1    2    0    0  0.79204298547E+02 -0.17172714925E+03 -0.12137132968E+03  0.22470988933E+03  0.00000000000E+00 0. -1.
          2    1    1    2  501    0 -0.10291374449E+03 -0.12812483865E+03 -0.17638364089E+03  0.24107758474E+03  0.25500000000E-02 0. -1.
<mgrwt>
<rscale>  0 0.16433871E+03</rscale>
<asrwt>0</asrwt>
<pdfrwt beam="1">  1       11 0.10000000E+01 0.28405888E+03</pdfrwt>
<pdfrwt beam="2">  1        2 0.62530686E-01 0.16433871E+03</pdfrwt>
<totfact> 0.97944662E+01</totfact>
</mgrwt>
</event>
<event>
 5    1  0.1851087E-003  0.9822066E+03  0.7818608E-02  0.9328278E-01
         11   -1    0    0    0    0  0.00000000000E+00  0.00000000000E+00  0.10006691728E+04  0.10006691728E+04  0.51100000000E-03 0.  1.
          2   -1    0    0  501    0 -0.00000000000E+00 -0.00000000000E+00 -0.12344889004E+04  0.12344889004E+04  0.25500000000E-02 0.  1.
         11    1    1    2    0    0  0.19702691610E+03  0.97293190565E+03  0.59335259110E+02  0.99445300124E+03  0.51100000000E-03 0.  1.
         22    1    1    2    0    0  0.19401145770E+03 -0.70172207203E+02  0.22401672729E+02  0.20752450295E+03  0.00000000000E+00 0.  1.
          2    1    1    2  501    0 -0.39103837380E+03 -0.90275969845E+03 -0.31555665936E+03  0.10331805690E+04  0.25500000000E-02 0.  1.
<mgrwt>
<rscale>  0 0.98220661E+03</rscale>
<asrwt>0</asrwt>
<pdfrwt beam="1">  1       11 0.10000000E+01 0.20631186E+03</pdfrwt>
<pdfrwt beam="2">  1        2 0.19004845E+00 0.98220661E+03</pdfrwt>
<totfact> 0.22180148E+01</totfact>
</mgrwt>
</event>
<event>
 5    1  0.1851087E-003  0.3917780E+03  0.7818608E-02  0.1046664E+00
         11   -1    0    0    0    0  0.00000000000E+00  0.00000000000E+00  0.10001765489E+04  0.10001765489E+04  0.51100000000E-03 0. -1.
          2   -1    0    0  501    0 -0.00000000000E+00 -0.00000000000E+00 -0.27054050882E+03  0.27054050883E+03  0.25500000000E-02 0. -1.
         11    1    1    2    0    0 -0.40342451258E+03  0.12792741964E+01  0.73783379822E+03  0.84092311640E+03  0.51100000000E-03 0. -1.
         22    1    1    2    0    0  0.14217682225E+02 -0.31821501683E+01  0.35271907712E+02  0.38162495217E+02  0.00000000000E+00 0. -1.
          2    1    1    2  501    0  0.38920683036E+03  0.19028759719E+01 -0.43469665844E+02  0.39163144612E+03  0.25500000000E-02 0. -1.
<mgrwt>
<rscale>  0 0.39177798E+03</rscale>
<asrwt>0</asrwt>
<pdfrwt beam="1">  1       11 0.10000000E+01 0.14569440E+02</pdfrwt>
<pdfrwt beam="2">  1        2 0.41628964E-01 0.39177798E+03</pdfrwt>
<totfact> 0.15196397E+02</totfact>
</mgrwt>
</event>
<event>
 5    1  0.1851087E-003  0.2680151E+03  0.7818608E-02  0.1102421E+00
         11   -1    0    0    0    0  0.00000000000E+00  0.00000000000E+00  0.10002261038E+04  0.10002261038E+04  0.51100000000E-03 0. -1.
          2   -1    0    0  501    0 -0.00000000000E+00 -0.00000000000E+00 -0.67252295675E+02  0.67252295723E+02  0.25500000000E-02 0. -1.
         11    1    1    2    0    0 -0.98799051195E+02  0.22942494297E+03  0.48171842311E+03  0.54263219232E+03  0.51100000000E-03 0. -1.
         22    1    1    2    0    0  0.55379210359E+02 -0.17488003130E+03  0.23803255518E+03  0.30051519032E+03  0.00000000000E+00 0. -1.
          2    1    1    2  501    0  0.43419840836E+02 -0.54544911670E+02  0.21322282979E+03  0.22433101684E+03  0.25500000000E-02 0. -1.
<mgrwt>
<rscale>  0 0.26801515E+03</rscale>
<asrwt>0</asrwt>
<pdfrwt beam="1">  1       11 0.10000000E+01 0.24979403E+03</pdfrwt>
<pdfrwt beam="2">  1        2 0.10348846E-01 0.26801515E+03</pdfrwt>
<totfact> 0.75497667E+02</totfact>
</mgrwt>
</event>
<event>
 5    1  0.1851087E-003  0.3533681E+03  0.7818608E-02  0.1061241E+00
         11   -1    0    0    0    0  0.00000000000E+00  0.00000000000E+00  0.10000253471E+04  0.10000253471E+04  0.51100000000E-03 0. -1.
         -2   -1    0    0    0  501 -0.00000000000E+00 -0.00000000000E+00 -0.25781549805E+03  0.25781549806E+03  0.25500000000E-02 0.  1.
         11    1    1    2    0    0 -0.29828400825E+03  0.17284187170E+03  0.82566993699E+03  0.89475052782E+03  0.51100000000E-03 0. -1.
         22    1    1    2    0    0  0.20366126353E+02  0.38338647169E+00 -0.21831240112E+02  0.29858485103E+02  0.00000000000E+00 0.  1.
         -2    1    1    2    0  501  0.27791788190E+03 -0.17322525817E+03 -0.61628847787E+02  0.33323183227E+03  0.25500000000E-02 0.  1.
<mgrwt>
<rscale>  0 0.35336807E+03</rscale>
<asrwt>0</asrwt>
<pdfrwt beam="1">  1       11 0.10000000E+01 0.34474289E+03</pdfrwt>
<pdfrwt beam="2">  1       -2 0.39664927E-01 0.35336807E+03</pdfrwt>
<totfact> 0.48955273E+01</totfact>
</mgrwt>
</event>
<event>
 5    1  0.1851087E-003  0.3736292E+03  0.7818608E-02  0.1260807E+00
         11   -1    0    0    0    0  0.00000000000E+00  0.00000000000E+00  0.10003811018E+04  0.10003811018E+04  0.51100000000E-03 0.  1.
         -2   -1    0    0    0  501 -0.00000000000E+00 -0.00000000000E+00 -0.56208704050E+03  0.56208704051E+03  0.25500000000E-02 0. -1.
         11    1    1    2    0    0  0.18760118476E+03 -0.32081277352E+03  0.86232278963E+03  0.93899714253E+03  0.51100000000E-03 0.  1.
         22    1    1    2    0    0 -0.84186108240E+01 -0.31193636226E+02 -0.12210177802E+03  0.12630423645E+03  0.00000000000E+00 0.  1.
         -2    1    1    2    0  501 -0.17918257393E+03  0.35200640974E+03 -0.30192695027E+03  0.49716676337E+03  0.25500000000E-02 0. -1.
<mgrwt>
<rscale>  0 0.10987194E+03</rscale>
<asrwt>0</asrwt>
<pdfrwt beam="1">  1       11 0.10000000E+01 0.37362922E+03</pdfrwt>
<pdfrwt beam="2">  1       -2 0.86507883E-01 0.10987194E+03</pdfrwt>
<totfact> 0.99199846E+00</totfact>
</mgrwt>
</event>
<event>
 5    1  0.1851087E-003  0.1554473E+03  0.7818608E-02  0.1345173E+00
         11   -1    0    0    0    0  0.00000000000E+00  0.00000000000E+00  0.10002612468E+04  0.10002612468E+04  0.51100000000E-03 0.  1.
          2   -1    0    0  501    0 -0.00000000000E+00 -0.00000000000E+00 -0.83785434827E+02  0.83785434866E+02  0.25500000000E-02 0.  1.
         11    1    1    2    0    0  0.15311507444E+02 -0.15749646404E+03  0.89340289989E+03  0.90730828276E+03  0.51100000000E-03 0.  1.
         22    1    1    2    0    0  0.15731704978E+02  0.32139034765E+02  0.31011023202E+02  0.47350688033E+02  0.00000000000E+00 0.  1.
          2    1    1    2  501    0 -0.31043212422E+02  0.12535742928E+03 -0.79381111023E+01  0.12938771088E+03  0.25500000000E-02 0.  1.
<mgrwt>
<rscale>  0 0.74581023E+02</rscale>
<asrwt>0</asrwt>
<pdfrwt beam="1">  1       11 0.10000000E+01 0.15544729E+03</pdfrwt>
<pdfrwt beam="2">  1        2 0.12893434E-01 0.74581023E+02</pdfrwt>
<totfact> 0.54221591E+02</totfact>
</mgrwt>
</event>
<event>
 5    1  0.1851087E-003  0.1786669E+03  0.7818608E-02  0.1169099E+00
         11   -1    0    0    0    0  0.00000000000E+00  0.00000000000E+00  0.10003381406E+04  0.10003381406E+04  0.51100000000E-03 0. -1.
         -2   -1    0    0    0  501 -0.00000000000E+00 -0.00000000000E+00 -0.43580009256E+02  0.43580009330E+02  0.25500000000E-02 0.  1.
         11    1    1    2    0    0  0.43915008957E+02  0.16208691339E+03  0.75920366151E+03  0.77755443227E+03  0.51100000000E-03 0. -1.
         22    1    1    2    0    0  0.47496423427E+01 -0.89251850531E+02  0.11803730461E+03  0.14805828989E+03  0.00000000000E+00 0.  1.
         -2    1    1    2    0  501 -0.48664651300E+02 -0.72835062863E+02  0.79517165254E+02  0.11830542779E+03  0.25500000000E-02 0.  1.
<mgrwt>
<rscale>  0 0.17866690E+03</rscale>
<asrwt>0</asrwt>
<pdfrwt beam="1">  1       11 0.10000000E+01 0.16793063E+03</pdfrwt>
<pdfrwt beam="2">  1       -2 0.67068837E-02 0.17866690E+03</pdfrwt>
<totfact> 0.96642991E+02</totfact>
</mgrwt>
</event>
<event>
 5    1  0.1851087E-003  0.2235474E+03  0.7818608E-02  0.1243223E+00
         11   -1    0    0    0    0  0.00000000000E+00  0.00000000000E+00  0.10002199018E+04  0.10002199018E+04  0.51100000000E-03 0. -1.
          2   -1    0    0  501    0 -0.00000000000E+00 -0.00000000000E+00 -0.33564599648E+03  0.33564599649E+03  0.25500000000E-02 0. -1.
         11    1    1    2    0    0 -0.13943549744E+03 -0.19677485151E+03  0.92353954073E+03  0.95450923695E+03  0.51100000000E-03 0. -1.
         22    1    1    2    0    0  0.92170576234E+02  0.86558461579E+02 -0.41611344227E+02  0.13311380981E+03  0.00000000000E+00 0.  1.
          2    1    1    2  501    0  0.47264921201E+02  0.11021638993E+03 -0.21735429123E+03  0.24824285147E+03  0.25500000000E-02 0. -1.
<mgrwt>
<rscale>  0 0.11992341E+03</rscale>
<asrwt>0</asrwt>
<pdfrwt beam="1">  1       11 0.10000000E+01 0.22354742E+03</pdfrwt>
<pdfrwt beam="2">  1        2 0.51649199E-01 0.11992341E+03</pdfrwt>
<totfact> 0.12019570E+02</totfact>
</mgrwt>
</event>
<event>
 5    1  0.1851087E-003  0.5666449E+02  0.7818608E-02  0.1412387E+00
         11   -1    0    0    0    0  0.00000000000E+00  0.00000000000E+00  0.10001132195E+04  0.10001132195E+04  0.51100000000E-03 0. -1.
          2   -1    0    0  501    0 -0.00000000000E+00 -0.00000000000E+00 -0.12941709059E+02  0.12941709311E+02  0.25500000000E-02 0. -1.
         11    1    1    2    0    0 -0.33697795828E+02 -0.47707278022E+02  0.63205598907E+02  0.86060871210E+02  0.51100000000E-03 0. -1.
         22    1    1    2    0    0  0.21125022457E+02  0.99623909705E+01  0.13350746849E+03  0.13553508753E+03  0.00000000000E+00 0. -1.
          2    1    1    2  501    0  0.12572773371E+02  0.37744887052E+02  0.79045844301E+03  0.79145897005E+03  0.25500000000E-02 0. -1.
<mgrwt>
<rscale>  0 0.56664493E+02</rscale>
<asrwt>0</asrwt>
<pdfrwt beam="1">  1       11 0.10000000E+01 0.23356280E+02</pdfrwt>
<pdfrwt beam="2">  1        2 0.19912575E-02 0.56664493E+02</pdfrwt>
<totfact> 0.56067529E+03</totfact>
</mgrwt>
</event>
<event>
 5    1  0.1851087E-003  0.1376731E+03  0.7818608E-02  0.1278910E+00
         11   -1    0    0    0    0  0.00000000000E+00  0.00000000000E+00  0.10003895639E+04  0.10003895639E+04  0.51100000000E-03 0. -1.
          2   -1    0    0  501    0 -0.00000000000E+00 -0.00000000000E+00 -0.61518176995E+02  0.61518177048E+02  0.25500000000E-02 0. -1.
         11    1    1    2    0    0  0.14189333791E+03  0.28068915629E+02  0.80976687613E+03  0.82258372039E+03  0.51100000000E-03 0. -1.
         22    1    1    2    0    0 -0.26790096939E+02 -0.68551535985E+02  0.21597685925E+02  0.76703861815E+02  0.00000000000E+00 0. -1.
          2    1    1    2  501    0 -0.11510324097E+03  0.40482620356E+02  0.10750682484E+03  0.16262015873E+03  0.25500000000E-02 0. -1.
<mgrwt>
<rscale>  0 0.10066181E+03</rscale>
<asrwt>0</asrwt>
<pdfrwt beam="1">  1       11 0.10000000E+01 0.13767311E+03</pdfrwt>
<pdfrwt beam="2">  1        2 0.94680216E-02 0.10066181E+03</pdfrwt>
<totfact> 0.79888409E+02</totfact>
</mgrwt>
</event>
<event>
 5    1  0.1851087E-003  0.1865009E+03  0.7818608E-02  0.1161656E+00
         11   -1    0    0    0    0  0.00000000000E+00  0.00000000000E+00  0.10000995520E+04  0.10000995520E+04  0.51100000000E-03 0.  1.
          2   -1    0    0  501    0 -0.00000000000E+00 -0.00000000000E+00 -0.66770494872E+03  0.66770494873E+03  0.25500000000E-02 0.  1.
         11    1    1    2    0    0 -0.13715685997E+03  0.11575684357E+03  0.97875556193E+03  0.99507492235E+03  0.51100000000E-03 0.  1.
         22    1    1    2    0    0  0.29921700936E+02 -0.51802932133E+02 -0.16765503135E+03  0.17800859952E+03  0.00000000000E+00 0.  1.
          2    1    1    2  501    0  0.10723515903E+03 -0.63953911440E+02 -0.47870592728E+03  0.49472097888E+03  0.25500000000E-02 0.  1.
<mgrwt>
<rscale>  0 0.18650093E+03</rscale>
<asrwt>0</asrwt>
<pdfrwt beam="1">  1       11 0.10000000E+01 0.17947605E+03</pdfrwt>
<pdfrwt beam="2">  1        2 0.10273406E+00 0.18650093E+03</pdfrwt>
<totfact> 0.56013379E+01</totfact>
</mgrwt>
</event>
<event>
 5    1  0.1851087E-003  0.1818117E+03  0.7818608E-02  0.1166061E+00
         11   -1    0    0    0    0  0.00000000000E+00  0.00000000000E+00  0.10001770770E+04  0.10001770770E+04  0.51100000000E-03 0.  1.
          2   -1    0    0  501    0 -0.00000000000E+00 -0.00000000000E+00 -0.31471304725E+03  0.31471304726E+03  0.25500000000E-02 0.  1.
         11    1    1    2    0    0 -0.13467316959E+03  0.10170408942E+03  0.96597820299E+03  0.98060923566E+03  0.51100000000E-03 0.  1.
         22    1    1    2    0    0  0.50000867314E+02 -0.45662890810E+01 -0.54424997731E+02  0.74047404452E+02  0.00000000000E+00 0.  1.
          2    1    1    2  501    0  0.84672302277E+02 -0.97137800335E+02 -0.22608917546E+03  0.26023348419E+03  0.25500000000E-02 0.  1.
<mgrwt>
<rscale>  0 0.18181175E+03</rscale>
<asrwt>0</asrwt>
<pdfrwt beam="1">  1       11 0.10000000E+01 0.16876192E+03</pdfrwt>
<pdfrwt beam="2">  1        2 0.48425964E-01 0.18181175E+03</pdfrwt>
<totfact> 0.12879451E+02</totfact>
</mgrwt>
</event>
<event>
 5    1  0.1851087E-003  0.1884109E+03  0.7818608E-02  0.1159902E+00
         11   -1    0    0    0    0  0.00000000000E+00  0.00000000000E+00  0.99981435341E+03  0.99981435341E+03  0.51100000000E-03 0. -1.
          2   -1    0    0  501    0 -0.00000000000E+00 -0.00000000000E+00 -0.55397809230E+03  0.55397809231E+03  0.25500000000E-02 0. -1.
         11    1    1    2    0    0  0.14974925840E+03 -0.10555183135E+03  0.97501197560E+03  0.99207579452E+03  0.51100000000E-03 0. -1.
         22    1    1    2    0    0 -0.11185121683E+03  0.84748877210E+02 -0.34319771372E+03  0.37077990452E+03  0.00000000000E+00 0. -1.
          2    1    1    2  501    0 -0.37898041571E+02  0.20802954142E+02 -0.18597800077E+03  0.19093674669E+03  0.25500000000E-02 0. -1.
<mgrwt>
<rscale>  0 0.18841088E+03</rscale>
<asrwt>0</asrwt>
<pdfrwt beam="1">  1       11 0.10000000E+01 0.18321034E+03</pdfrwt>
<pdfrwt beam="2">  1        2 0.85211574E-01 0.18841088E+03</pdfrwt>
<totfact> 0.69527034E+01</totfact>
</mgrwt>
</event>
<event>
 5    1  0.1851087E-003  0.2835717E+03  0.7818608E-02  0.1093754E+00
         11   -1    0    0    0    0  0.00000000000E+00  0.00000000000E+00  0.10001249179E+04  0.10001249179E+04  0.51100000000E-03 0. -1.
          2   -1    0    0  501    0 -0.00000000000E+00 -0.00000000000E+00 -0.19627142834E+03  0.19627142835E+03  0.25500000000E-02 0.  1.
         11    1    1    2    0    0  0.18180987572E+03  0.19324754395E+03  0.86630737919E+03  0.90602865264E+03  0.51100000000E-03 0. -1.
         22    1    1    2    0    0 -0.85042503504E+02 -0.24238479884E+02 -0.12466142997E+02  0.89303617119E+02  0.00000000000E+00 0.  1.
          2    1    1    2  501    0 -0.96767372213E+02 -0.16900906406E+03 -0.49987746586E+02  0.20106407654E+03  0.25500000000E-02 0.  1.
<mgrwt>
<rscale>  0 0.28357170E+03</rscale>
<asrwt>0</asrwt>
<pdfrwt beam="1">  1       11 0.10000000E+01 0.26532894E+03</pdfrwt>
<pdfrwt beam="2">  1        2 0.30199375E-01 0.28357170E+03</pdfrwt>
<totfact> 0.21564414E+02</totfact>
</mgrwt>
</event>
<event>
 5    1  0.1851087E-003  0.2099202E+03  0.7818608E-02  0.1141629E+00
         11   -1    0    0    0    0  0.00000000000E+00  0.00000000000E+00  0.10001961512E+04  0.10001961512E+04  0.51100000000E-03 0. -1.
         -2   -1    0    0    0  501 -0.00000000000E+00 -0.00000000000E+00 -0.11489556754E+03  0.11489556757E+03  0.25500000000E-02 0.  1.
         11    1    1    2    0    0  0.19329378316E+03 -0.43973975404E+01  0.88427891527E+03  0.90516905808E+03  0.51100000000E-03 0. -1.
         22    1    1    2    0    0 -0.14102196753E+03 -0.27013447257E+02  0.22354324838E+02  0.14531564781E+03  0.00000000000E+00 0. -1.
         -2    1    1    2    0  501 -0.52271815629E+02  0.31410844797E+02 -0.21332656424E+02  0.64607012906E+02  0.25500000000E-02 0.  1.
<mgrwt>
<rscale>  0 0.20992017E+03</rscale>
<asrwt>0</asrwt>
<pdfrwt beam="1">  1       11 0.10000000E+01 0.19334380E+03</pdfrwt>
<pdfrwt beam="2">  1       -2 0.17679708E-01 0.20992017E+03</pdfrwt>
<totfact> 0.20659967E+02</totfact>
</mgrwt>
</event>
<event>
 5    1  0.1851087E-003  0.5846930E+02  0.7818608E-02  0.1404370E+00
         11   -1    0    0    0    0  0.00000000000E+00  0.00000000000E+00  0.10001831632E+04  0.10001831632E+04  0.51100000000E-03 0. -1.
          2   -1    0    0  501    0 -0.00000000000E+00 -0.00000000000E+00 -0.78359044737E+01  0.78359048886E+01  0.25500000000E-02 0. -1.
         11    1    1    2    0    0 -0.31292541198E+02 -0.55675781571E+02  0.16094357342E+03  0.17315267718E+03  0.51100000000E-03 0. -1.
         22    1    1    2    0    0  0.18850349592E+02  0.20616132585E+02  0.15907055425E+03  0.16150480436E+03  0.00000000000E+00 0.  1.
          2    1    1    2  501    0  0.12442191606E+02  0.35059648986E+02  0.67233313103E+03  0.67336158652E+03  0.25500000000E-02 0. -1.
<mgrwt>
<rscale>  0 0.58469305E+02</rscale>
<asrwt>0</asrwt>
<pdfrwt beam="1">  1       11 0.10000000E+01 0.27934935E+02</pdfrwt>
<pdfrwt beam="2">  1        2 0.12057446E-02 0.58469305E+02</pdfrwt>
<totfact> 0.11020973E+04</totfact>
</mgrwt>
</event>
<event>
 5    1  0.1851087E-003  0.2312887E+03  0.7818608E-02  0.1125736E+00
         11   -1    0    0    0    0  0.00000000000E+00  0.00000000000E+00  0.10002126319E+04  0.10002126319E+04  0.51100000000E-03 0.  1.
          2   -1    0    0  501    0 -0.00000000000E+00 -0.00000000000E+00 -0.10949509779E+03  0.10949509782E+03  0.25500000000E-02 0.  1.
         11    1    1    2    0    0  0.18724206040E+03  0.12334808978E+03  0.84461372028E+03  0.87386879846E+03  0.51100000000E-03 0.  1.
         22    1    1    2    0    0 -0.51692276295E+01 -0.16546638851E+02  0.14090879957E+02  0.22339764312E+02  0.00000000000E+00 0.  1.
          2    1    1    2  501    0 -0.18207283277E+03 -0.10680145093E+03  0.32012933898E+02  0.21349916697E+03  0.25500000000E-02 0.  1.
<mgrwt>
<rscale>  0 0.23128865E+03</rscale>
<asrwt>0</asrwt>
<pdfrwt beam="1">  1       11 0.10000000E+01 0.22421940E+03</pdfrwt>
<pdfrwt beam="2">  1        2 0.16848981E-01 0.23128865E+03</pdfrwt>
<totfact> 0.41650801E+02</totfact>
</mgrwt>
</event>
<event>
 5    1  0.1851087E-003  0.3105391E+03  0.7818608E-02  0.1080088E+00
         11   -1    0    0    0    0  0.00000000000E+00  0.00000000000E+00  0.10001531255E+04  0.10001531255E+04  0.51100000000E-03 0. -1.
          2   -1    0    0  501    0 -0.00000000000E+00 -0.00000000000E+00 -0.34562187189E+03  0.34562187190E+03  0.25500000000E-02 0. -1.
         11    1    1    2    0    0  0.21124544223E+03  0.21876311387E+03  0.89996449780E+03  0.94995685910E+03  0.51100000000E-03 0. -1.
         22    1    1    2    0    0 -0.23826429942E+02 -0.58048012180E+02 -0.62284847304E+02  0.88411948771E+02  0.00000000000E+00 0. -1.
          2    1    1    2  501    0 -0.18741901229E+03 -0.16071510169E+03 -0.18314839688E+03  0.30740618954E+03  0.25500000000E-02 0. -1.
<mgrwt>
<rscale>  0 0.31053908E+03</rscale>
<asrwt>0</asrwt>
<pdfrwt beam="1">  1       11 0.10000000E+01 0.30410843E+03</pdfrwt>
<pdfrwt beam="2">  1        2 0.53180736E-01 0.31053908E+03</pdfrwt>
<totfact> 0.11633803E+02</totfact>
</mgrwt>
</event>
<event>
 5    1  0.1851087E-003  0.2325874E+03  0.7818608E-02  0.1124832E+00
         11   -1    0    0    0    0  0.00000000000E+00  0.00000000000E+00  0.10001395996E+04  0.10001395996E+04  0.51100000000E-03 0. -1.
          2   -1    0    0  501    0 -0.00000000000E+00 -0.00000000000E+00 -0.16575194307E+03  0.16575194309E+03  0.25500000000E-02 0. -1.
         11    1    1    2    0    0  0.75244286723E+02  0.23045610486E+03  0.82061720263E+03  0.85567769178E+03  0.51100000000E-03 0. -1.
         22    1    1    2    0    0 -0.29816609334E+02 -0.32853768386E+01  0.66206783628E+02  0.72685363668E+02  0.00000000000E+00 0.  1.
          2    1    1    2  501    0 -0.45427677390E+02 -0.22717072802E+03 -0.52436329768E+02  0.23752848720E+03  0.25500000000E-02 0. -1.
<mgrwt>
<rscale>  0 0.23258744E+03</rscale>
<asrwt>0</asrwt>
<pdfrwt beam="1">  1       11 0.10000000E+01 0.29997065E+02</pdfrwt>
<pdfrwt beam="2">  1        2 0.25503858E-01 0.23258744E+03</pdfrwt>
<totfact> 0.25930866E+02</totfact>
</mgrwt>
</event>
<event>
 5    1  0.1851087E-003  0.2101911E+03  0.7818608E-02  0.1369786E+00
         11   -1    0    0    0    0  0.00000000000E+00  0.00000000000E+00  0.10004938371E+04  0.10004938371E+04  0.51100000000E-03 0. -1.
          2   -1    0    0  501    0 -0.00000000000E+00 -0.00000000000E+00 -0.16632436651E+03  0.16632436653E+03  0.25500000000E-02 0. -1.
         11    1    1    2    0    0 -0.17840913761E+03 -0.94195126367E+02  0.76489955193E+03  0.79105869994E+03  0.51100000000E-03 0. -1.
         22    1    1    2    0    0  0.22565129951E+03  0.14202417677E+03  0.11916103602E+03  0.29204233985E+03  0.00000000000E+00 0. -1.
          2    1    1    2  501    0 -0.47242161904E+02 -0.47829050403E+02 -0.49891117357E+02  0.83717163840E+02  0.25500000000E-02 0. -1.
<mgrwt>
<rscale>  0 0.67226780E+02</rscale>
<asrwt>0</asrwt>
<pdfrwt beam="1">  1       11 0.10000000E+01 0.21019112E+03</pdfrwt>
<pdfrwt beam="2">  1        2 0.25601000E-01 0.67226780E+02</pdfrwt>
<totfact> 0.25012899E+02</totfact>
</mgrwt>
</event>
<event>
 5    1  0.1851087E-003  0.1791970E+03  0.7818608E-02  0.1168582E+00
         11   -1    0    0    0    0  0.00000000000E+00  0.00000000000E+00  0.10004993411E+04  0.10004993411E+04  0.51100000000E-03 0.  1.
          2   -1    0    0  501    0 -0.00000000000E+00 -0.00000000000E+00 -0.23608749349E+03  0.23608749351E+03  0.25500000000E-02 0.  1.
         11    1    1    2    0    0  0.27031386223E+02 -0.17474381551E+03  0.95719010185E+03  0.97338532349E+03  0.51100000000E-03 0.  1.
         22    1    1    2    0    0  0.59663838267E+01  0.17759557766E+02 -0.22050725081E+02  0.28934997920E+02  0.00000000000E+00 0.  1.
          2    1    1    2  501    0 -0.32997770049E+02  0.15698425774E+03 -0.17072752914E+03  0.23426651322E+03  0.25500000000E-02 0.  1.
<mgrwt>
<rscale>  0 0.17919704E+03</rscale>
<asrwt>0</asrwt>
<pdfrwt beam="1">  1       11 0.10000000E+01 0.17682222E+03</pdfrwt>
<pdfrwt beam="2">  1        2 0.36339288E-01 0.17919704E+03</pdfrwt>
<totfact> 0.17518713E+02</totfact>
</mgrwt>
</event>
<event>
 5    1  0.1851087E-003  0.1053615E+03  0.7818608E-02  0.1562512E+00
         11   -1    0    0    0    0  0.00000000000E+00  0.00000000000E+00  0.99988936086E+03  0.99988936086E+03  0.51100000000E-03 0. -1.
          2   -1    0    0  501    0 -0.00000000000E+00 -0.00000000000E+00 -0.13431908524E+02  0.13431908766E+02  0.25500000000E-02 0.  1.
         11    1    1    2    0    0  0.77980999490E+01  0.10803364848E+03  0.34864833671E+03  0.36508593818E+03  0.51100000000E-03 0. -1.
         22    1    1    2    0    0 -0.98025964553E+01 -0.41370028831E+01  0.36741396552E+02  0.38250959606E+02  0.00000000000E+00 0.  1.
          2    1    1    2  501    0  0.20044965063E+01 -0.10389664559E+03  0.60106771907E+03  0.60998437184E+03  0.25500000000E-02 0.  1.
<mgrwt>
<rscale>  0 0.33481732E+02</rscale>
<asrwt>0</asrwt>
<pdfrwt beam="1">  1       11 0.10000000E+01 0.10536149E+03</pdfrwt>
<pdfrwt beam="2">  1        2 0.20662188E-02 0.33481732E+02</pdfrwt>
<totfact> 0.49216387E+03</totfact>
</mgrwt>
</event>
<event>
 5    1  0.1851087E-003  0.1203519E+03  0.7818608E-02  0.1242518E+00
         11   -1    0    0    0    0  0.00000000000E+00  0.00000000000E+00  0.10002578698E+04  0.10002578698E+04  0.51100000000E-03 0. -1.
          2   -1    0    0  501    0 -0.00000000000E+00 -0.00000000000E+00 -0.15386880242E+02  0.15386880454E+02  0.25500000000E-02 0. -1.
         11    1    1    2    0    0 -0.10917735110E+03 -0.41303898869E+02  0.33579624124E+03  0.35550642988E+03  0.51100000000E-03 0. -1.
         22    1    1    2    0    0  0.12837504261E+02  0.20029403042E+01  0.35475909351E+02  0.37780331256E+02  0.00000000000E+00 0. -1.
          2    1    1    2  501    0  0.96339846834E+02  0.39300958564E+02  0.61359883892E+03  0.62235798907E+03  0.25500000000E-02 0. -1.
<mgrwt>
<rscale>  0 0.12035187E+03</rscale>
<asrwt>0</asrwt>
<pdfrwt beam="1">  1       11 0.10000000E+01 0.11672926E+03</pdfrwt>
<pdfrwt beam="2">  1        2 0.23678227E-02 0.12035187E+03</pdfrwt>
<totfact> 0.48997954E+03</totfact>
</mgrwt>
</event>
<event>
 5    1  0.1851087E-003  0.2793257E+03  0.7818608E-02  0.1096058E+00
         11   -1    0    0    0    0  0.00000000000E+00  0.00000000000E+00  0.99998531811E+03  0.99998531811E+03  0.51100000000E-03 0. -1.
          2   -1    0    0  501    0 -0.00000000000E+00 -0.00000000000E+00 -0.15109427285E+04  0.15109427285E+04  0.25500000000E-02 0. -1.
         11    1    1    2    0    0 -0.27486929927E+03  0.19394153469E+02  0.96767512099E+03  0.10061433321E+04  0.51100000000E-03 0. -1.
         22    1    1    2    0    0  0.53707751663E+02 -0.63924556449E+01 -0.20432591409E+03  0.21136334887E+03  0.00000000000E+00 0. -1.
          2    1    1    2  501    0  0.22116154761E+03 -0.13001697824E+02 -0.12743066173E+04  0.12934213656E+04  0.25500000000E-02 0. -1.
<mgrwt>
<rscale>  0 0.27932575E+03</rscale>
<asrwt>0</asrwt>
<pdfrwt beam="1">  1       11 0.10000000E+01 0.27555265E+03</pdfrwt>
<pdfrwt beam="2">  1        2 0.23244931E+00 0.27932575E+03</pdfrwt>
<totfact> 0.16840307E+01</totfact>
</mgrwt>
</event>
<event>
 5    1  0.1851087E-003  0.3221434E+03  0.7818608E-02  0.1354194E+00
         11   -1    0    0    0    0  0.00000000000E+00  0.00000000000E+00  0.10004157816E+04  0.10004157816E+04  0.51100000000E-03 0. -1.
          2   -1    0    0  501    0 -0.00000000000E+00 -0.00000000000E+00 -0.49424930150E+03  0.49424930150E+03  0.25500000000E-02 0. -1.
         11    1    1    2    0    0  0.12072027565E+03 -0.29907103400E+03  0.91204456482E+03  0.96738935106E+03  0.51100000000E-03 0. -1.
         22    1    1    2    0    0 -0.15986564390E+02  0.13030589862E+00 -0.41456421679E+02  0.44432219380E+02  0.00000000000E+00 0. -1.
          2    1    1    2  501    0 -0.10473371126E+03  0.29894072811E+03 -0.36442166305E+03  0.48284351264E+03  0.25500000000E-02 0. -1.
<mgrwt>
<rscale>  0 0.71764459E+02</rscale>
<asrwt>0</asrwt>
<pdfrwt beam="1">  1       11 0.10000000E+01 0.32214342E+03</pdfrwt>
<pdfrwt beam="2">  1        2 0.76069967E-01 0.71764459E+02</pdfrwt>
<totfact> 0.80018258E+01</totfact>
</mgrwt>
</event>
<event>
 5    1  0.1851087E-003  0.1099739E+03  0.7818608E-02  0.1667448E+00
         11   -1    0    0    0    0  0.00000000000E+00  0.00000000000E+00  0.10003497604E+04  0.10003497604E+04  0.51100000000E-03 0. -1.
          2   -1    0    0  501    0 -0.00000000000E+00 -0.00000000000E+00 -0.17462611550E+02  0.17462611736E+02  0.25500000000E-02 0.  1.
         11    1    1    2    0    0 -0.11242715380E+03 -0.68537241193E+01  0.64378345202E+03  0.65356252305E+03  0.51100000000E-03 0. -1.
         22    1    1    2    0    0  0.10166853502E+03  0.28928539120E+02  0.24179689518E+03  0.26389219372E+03  0.00000000000E+00 0.  1.
          2    1    1    2  501    0  0.10758618779E+02 -0.22074815001E+02  0.97306801620E+02  0.10035765533E+03  0.25500000000E-02 0.  1.
<mgrwt>
<rscale>  0 0.24556982E+02</rscale>
<asrwt>0</asrwt>
<pdfrwt beam="1">  1       11 0.10000000E+01 0.10997391E+03</pdfrwt>
<pdfrwt beam="2">  1        2 0.26874952E-02 0.24556982E+02</pdfrwt>
<totfact> 0.33348368E+03</totfact>
</mgrwt>
</event>
<event>
 5    1  0.1851087E-003  0.2054038E+03  0.7818608E-02  0.1265086E+00
         11   -1    0    0    0    0  0.00000000000E+00  0.00000000000E+00  0.10001772433E+04  0.10001772433E+04  0.51100000000E-03 0. -1.
          2   -1    0    0  501    0 -0.00000000000E+00 -0.00000000000E+00 -0.61477922398E+02  0.61477922451E+02  0.25500000000E-02 0.  1.
         11    1    1    2    0    0  0.91441163938E+02 -0.21547334199E+03  0.46140931307E+03  0.51738651099E+03  0.51100000000E-03 0. -1.
         22    1    1    2    0    0 -0.44345970885E+02  0.34787516789E+02  0.40988801320E+02  0.69690876675E+02  0.00000000000E+00 0.  1.
          2    1    1    2  501    0 -0.47095193053E+02  0.18068582520E+03  0.43630120652E+03  0.47457777809E+03  0.25500000000E-02 0.  1.
<mgrwt>
<rscale>  0 0.10759682E+03</rscale>
<asrwt>0</asrwt>
<pdfrwt beam="1">  1       11 0.10000000E+01 0.20540382E+03</pdfrwt>
<pdfrwt beam="2">  1        2 0.94598180E-02 0.10759682E+03</pdfrwt>
<totfact> 0.80312225E+02</totfact>
</mgrwt>
</event>
<event>
 5    1  0.1851087E-003  0.4057002E+03  0.7818608E-02  0.1041824E+00
         11   -1    0    0    0    0  0.00000000000E+00  0.00000000000E+00  0.99985566856E+03  0.99985566856E+03  0.51100000000E-03 0.  1.
          2   -1    0    0  501    0 -0.00000000000E+00 -0.00000000000E+00 -0.22621840507E+03  0.22621840509E+03  0.25500000000E-02 0.  1.
         11    1    1    2    0    0 -0.72210202004E+02  0.38444068847E+03  0.47166634901E+02  0.39399701480E+03  0.51100000000E-03 0.  1.
         22    1    1    2    0    0  0.16959377755E+02 -0.51384008443E+02  0.40702888275E+02  0.67710131675E+02  0.00000000000E+00 0.  1.
          2    1    1    2  501    0  0.55250824249E+02 -0.33305668003E+03  0.68576774031E+03  0.76436692717E+03  0.25500000000E-02 0.  1.
<mgrwt>
<rscale>  0 0.40570021E+03</rscale>
<asrwt>0</asrwt>
<pdfrwt beam="1">  1       11 0.10000000E+01 0.39116379E+03</pdfrwt>
<pdfrwt beam="2">  1        2 0.34797807E-01 0.40570021E+03</pdfrwt>
<totfact> 0.18510641E+02</totfact>
</mgrwt>
</event>
<event>
 5    1  0.1851087E-003  0.8625432E+02  0.7818608E-02  0.1346317E+00
         11   -1    0    0    0    0  0.00000000000E+00  0.00000000000E+00  0.10005677417E+04  0.10005677417E+04  0.51100000000E-03 0.  1.
          2   -1    0    0  501    0 -0.00000000000E+00 -0.00000000000E+00 -0.25588781176E+02  0.25588781303E+02  0.25500000000E-02 0.  1.
         11    1    1    2    0    0 -0.57503687610E+02 -0.11899609890E+03  0.39203414592E+03  0.41371187705E+03  0.51100000000E-03 0.  1.
         22    1    1    2    0    0  0.62610331476E+01  0.63549451390E+02  0.73199768986E+02  0.97138764083E+02  0.00000000000E+00 0.  1.
          2    1    1    2  501    0  0.51242654463E+02  0.55446647506E+02  0.50974504561E+03  0.51530588187E+03  0.25500000000E-02 0.  1.
<mgrwt>
<rscale>  0 0.74215570E+02</rscale>
<asrwt>0</asrwt>
<pdfrwt beam="1">  1       11 0.10000000E+01 0.86254322E+02</pdfrwt>
<pdfrwt beam="2">  1        2 0.39389705E-02 0.74215570E+02</pdfrwt>
<totfact> 0.23633888E+03</totfact>
</mgrwt>
</event>
<event>
 5    1  0.1851087E-003  0.2976886E+03  0.7818608E-02  0.1086402E+00
         11   -1    0    0    0    0  0.00000000000E+00  0.00000000000E+00  0.99979752386E+03  0.99979752386E+03  0.51100000000E-03 0. -1.
         -2   -1    0    0    0  501 -0.00000000000E+00 -0.00000000000E+00 -0.94348310527E+03  0.94348310528E+03  0.25500000000E-02 0.  1.
         11    1    1    2    0    0  0.29196110308E+03  0.13195050044E+02  0.95387381493E+03  0.99764254614E+03  0.51100000000E-03 0. -1.
         22    1    1    2    0    0 -0.60176491136E+02  0.16539660714E+02 -0.15196113866E+03  0.16427707730E+03  0.00000000000E+00 0. -1.
         -2    1    1    2    0  501 -0.23178461194E+03 -0.29734710759E+02 -0.74559825768E+03  0.78136100570E+03  0.25500000000E-02 0.  1.
<mgrwt>
<rscale>  0 0.29768862E+03</rscale>
<asrwt>0</asrwt>
<pdfrwt beam="1">  1       11 0.10000000E+01 0.29225912E+03</pdfrwt>
<pdfrwt beam="2">  1       -2 0.14512185E+00 0.29768862E+03</pdfrwt>
<totfact> 0.27964290E+00</totfact>
</mgrwt>
</event>
<event>
 5    1  0.1851087E-003  0.3156173E+03  0.7818608E-02  0.1267262E+00
         11   -1    0    0    0    0  0.00000000000E+00  0.00000000000E+00  0.10000058588E+04  0.10000058588E+04  0.51100000000E-03 0.  1.
          2   -1    0    0  501    0 -0.00000000000E+00 -0.00000000000E+00 -0.40090579321E+03  0.40090579321E+03  0.25500000000E-02 0.  1.
         11    1    1    2    0    0 -0.39614117131E+02 -0.31210244867E+03  0.88304492689E+03  0.93741429456E+03  0.51100000000E-03 0.  1.
         22    1    1    2    0    0  0.31543959764E+02 -0.17165841220E+02 -0.39124796637E+02  0.53107788641E+02  0.00000000000E+00 0.  1.
          2    1    1    2  501    0  0.80701573671E+01  0.32926828989E+03 -0.24482006463E+03  0.41038956885E+03  0.25500000000E-02 0.  1.
<mgrwt>
<rscale>  0 0.10646370E+03</rscale>
<asrwt>0</asrwt>
<pdfrwt beam="1">  1       11 0.10000000E+01 0.31561733E+03</pdfrwt>
<pdfrwt beam="2">  1        2 0.61678174E-01 0.10646370E+03</pdfrwt>
<totfact> 0.99655589E+01</totfact>
</mgrwt>
</event>
<event>
 5    1  0.1851087E-003  0.1745106E+03  0.7818608E-02  0.1391140E+00
         11   -1    0    0    0    0  0.00000000000E+00  0.00000000000E+00  0.99998084557E+03  0.99998084557E+03  0.51100000000E-03 0. -1.
          2   -1    0    0  501    0 -0.00000000000E+00 -0.00000000000E+00 -0.43161309095E+02  0.43161309170E+02  0.25500000000E-02 0. -1.
         11    1    1    2    0    0  0.17477576621E+03 -0.31996931683E+02  0.70831749316E+03  0.73026299592E+03  0.51100000000E-03 0. -1.
         22    1    1    2    0    0 -0.78138147195E+01  0.20309783044E+02  0.19401861978E+02  0.29154334771E+02  0.00000000000E+00 0.  1.
          2    1    1    2  501    0 -0.16696195149E+03  0.11687148639E+02  0.22910018134E+03  0.28372482405E+03  0.25500000000E-02 0. -1.
<mgrwt>
<rscale>  0 0.61624124E+02</rscale>
<asrwt>0</asrwt>
<pdfrwt beam="1">  1       11 0.10000000E+01 0.17451060E+03</pdfrwt>
<pdfrwt beam="2">  1        2 0.66400740E-02 0.61624124E+02</pdfrwt>
<totfact> 0.11931512E+03</totfact>
</mgrwt>
</event>
<event>
 5    1  0.1851087E-003  0.2498838E+03  0.7818608E-02  0.1319491E+00
         11   -1    0    0    0    0  0.00000000000E+00  0.00000000000E+00  0.10001422565E+04  0.10001422565E+04  0.51100000000E-03 0.  1.
          2   -1    0    0  501    0 -0.00000000000E+00 -0.00000000000E+00 -0.14261287730E+03  0.14261287732E+03  0.25500000000E-02 0.  1.
         11    1    1    2    0    0  0.87260008754E+02  0.23631411070E+03  0.83417609944E+03  0.87138305751E+03  0.51100000000E-03 0.  1.
         22    1    1    2    0    0  0.18141410166E+02 -0.21170110280E+02 -0.97176149108E+01  0.29524843296E+02  0.00000000000E+00 0. -1.
          2    1    1    2  501    0 -0.10540141892E+03 -0.21514400042E+03  0.33070894640E+02  0.24184723299E+03  0.25500000000E-02 0.  1.
<mgrwt>
<rscale>  0 0.83466851E+02</rscale>
<asrwt>0</asrwt>
<pdfrwt beam="1">  1       11 0.10000000E+01 0.24988380E+03</pdfrwt>
<pdfrwt beam="2">  1        2 0.21943563E-01 0.83466851E+02</pdfrwt>
<totfact> 0.29798332E+02</totfact>
</mgrwt>
</event>
<event>
 5    1  0.1851087E-003  0.1467933E+03  0.7818608E-02  0.1204470E+00
         11   -1    0    0    0    0  0.00000000000E+00  0.00000000000E+00  0.10004706800E+04  0.10004706800E+04  0.51100000000E-03 0. -1.
          2   -1    0    0  501    0 -0.00000000000E+00 -0.00000000000E+00 -0.21154069303E+02  0.21154069457E+02  0.25500000000E-02 0. -1.
         11    1    1    2    0    0 -0.10517189244E+03 -0.82204169934E+02  0.60505357856E+03  0.61960349050E+03  0.51100000000E-03 0. -1.
         22    1    1    2    0    0  0.39899520144E+02  0.34371316807E+02  0.72575622128E+02  0.89669281552E+02  0.00000000000E+00 0.  1.
          2    1    1    2  501    0  0.65272372296E+02  0.47832853126E+02  0.30168741001E+03  0.31235197741E+03  0.25500000000E-02 0. -1.
<mgrwt>
<rscale>  0 0.14679331E+03</rscale>
<asrwt>0</asrwt>
<pdfrwt beam="1">  1       11 0.10000000E+01 0.13348653E+03</pdfrwt>
<pdfrwt beam="2">  1        2 0.32560039E-02 0.14679331E+03</pdfrwt>
<totfact> 0.32573016E+03</totfact>
</mgrwt>
</event>
<event>
 5    1  0.1851087E-003  0.2518773E+03  0.7818608E-02  0.1112124E+00
         11   -1    0    0    0    0  0.00000000000E+00  0.00000000000E+00  0.99995630641E+03  0.99995630641E+03  0.51100000000E-03 0.  1.
          2   -1    0    0  501    0 -0.00000000000E+00 -0.00000000000E+00 -0.60733968853E+03  0.60733968854E+03  0.25500000000E-02 0.  1.
         11    1    1    2    0    0 -0.18095234330E+03 -0.15643086841E+03  0.95849630929E+03  0.98789146270E+03  0.51100000000E-03 0.  1.
         22    1    1    2    0    0  0.68355640257E+02  0.98572813153E+02 -0.21228509000E+03  0.24383201694E+03  0.00000000000E+00 0.  1.
          2    1    1    2  501    0  0.11259670305E+03  0.57858055260E+02 -0.35359460142E+03  0.37557251531E+03  0.25500000000E-02 0.  1.
<mgrwt>
<rscale>  0 0.25187725E+03</rscale>
<asrwt>0</asrwt>
<pdfrwt beam="1">  1       11 0.10000000E+01 0.23919525E+03</pdfrwt>
<pdfrwt beam="2">  1        2 0.93432790E-01 0.25187725E+03</pdfrwt>
<totfact> 0.62148450E+01</totfact>
</mgrwt>
</event>
<event>
 5    1  0.1851087E-003  0.1651043E+03  0.7818608E-02  0.1183052E+00
         11   -1    0    0    0    0  0.00000000000E+00  0.00000000000E+00  0.10001125021E+04  0.10001125021E+04  0.51100000000E-03 0.  1.
          2   -1    0    0  501    0 -0.00000000000E+00 -0.00000000000E+00 -0.33589069481E+02  0.33589069578E+02  0.25500000000E-02 0.  1.
         11    1    1    2    0    0  0.12812522549E+03  0.10120708596E+03  0.71079105588E+03  0.72930300477E+03  0.51100000000E-03 0.  1.
         22    1    1    2    0    0 -0.43241365343E+01 -0.11251116045E+02  0.19895332578E+02  0.23261771803E+02  0.00000000000E+00 0.  1.
          2    1    1    2  501    0 -0.12380108896E+03 -0.89955969917E+02  0.23583704413E+03  0.28113679507E+03  0.25500000000E-02 0.  1.
<mgrwt>
<rscale>  0 0.16510433E+03</rscale>
<asrwt>0</asrwt>
<pdfrwt beam="1">  1       11 0.10000000E+01 0.16327568E+03</pdfrwt>
<pdfrwt beam="2">  1        2 0.51681304E-02 0.16510433E+03</pdfrwt>
<totfact> 0.17826307E+03</totfact>
</mgrwt>
</event>
<event>
 5    1  0.1851087E-003  0.4795989E+02  0.7818608E-02  0.1505479E+00
         11   -1    0    0    0    0  0.00000000000E+00  0.00000000000E+00  0.10000378498E+04  0.10000378498E+04  0.51100000000E-03 0. -1.
          2   -1    0    0  501    0 -0.00000000000E+00 -0.00000000000E+00 -0.60617819085E+01  0.60617824448E+01  0.25500000000E-02 0. -1.
         11    1    1    2    0    0 -0.16768855222E+01  0.46418481601E+02  0.21145480933E+03  0.21649624423E+03  0.51100000000E-03 0. -1.
         22    1    1    2    0    0 -0.38511864883E+02 -0.42558391906E+02  0.30320655641E+03  0.30859130951E+03  0.00000000000E+00 0. -1.
          2    1    1    2  501    0  0.40188750405E+02 -0.38600896947E+01  0.47931470211E+03  0.48101207846E+03  0.25500000000E-02 0. -1.
<mgrwt>
<rscale>  0 0.40373704E+02</rscale>
<asrwt>0</asrwt>
<pdfrwt beam="1">  1       11 0.10000000E+01 0.47959890E+02</pdfrwt>
<pdfrwt beam="2">  1        2 0.93261714E-03 0.40373704E+02</pdfrwt>
<totfact> 0.14534273E+04</totfact>
</mgrwt>
</event>
<event>
 5    1  0.1851087E-003  0.2240303E+03  0.7818608E-02  0.1130913E+00
         11   -1    0    0    0    0  0.00000000000E+00  0.00000000000E+00  0.10006310844E+04  0.10006310844E+04  0.51100000000E-03 0. -1.
          2   -1    0    0  501    0 -0.00000000000E+00 -0.00000000000E+00 -0.87545316553E+02  0.87545316590E+02  0.25500000000E-02 0.  1.
         11    1    1    2    0    0 -0.15346393931E+03  0.16006945033E+03  0.81319082452E+03  0.84288357836E+03  0.51100000000E-03 0. -1.
         22    1    1    2    0    0  0.15428538936E+02 -0.15505018321E+02  0.77446684137E-01  0.21873532061E+02  0.00000000000E+00 0. -1.
          2    1    1    2  501    0  0.13803540037E+03 -0.14456443201E+03  0.99817496666E+02  0.22341929059E+03  0.25500000000E-02 0.  1.
<mgrwt>
<rscale>  0 0.22403029E+03</rscale>
<asrwt>0</asrwt>
<pdfrwt beam="1">  1       11 0.10000000E+01 0.22175078E+03</pdfrwt>
<pdfrwt beam="2">  1        2 0.13477010E-01 0.22403029E+03</pdfrwt>
<totfact> 0.54225803E+02</totfact>
</mgrwt>
</event>
<event>
 5    1  0.1851087E-003  0.6277880E+03  0.7818608E-02  0.9849375E-01
         11   -1    0    0    0    0  0.00000000000E+00  0.00000000000E+00  0.10010379557E+04  0.10010379557E+04  0.51100000000E-03 0.  1.
          2   -1    0    0  501    0 -0.00000000000E+00 -0.00000000000E+00 -0.11140431812E+04  0.11140431812E+04  0.25500000000E-02 0.  1.
         11    1    1    2    0    0 -0.57088941441E+03 -0.25304095212E+03  0.79516025661E+03  0.10110510772E+04  0.51100000000E-03 0.  1.
         22    1    1    2    0    0  0.27407232416E+02 -0.25978039861E+00 -0.51940057102E+02  0.58728131303E+02  0.00000000000E+00 0.  1.
          2    1    1    2  501    0  0.54348218199E+03  0.25330073252E+03 -0.85622542499E+03  0.10453019285E+04  0.25500000000E-02 0.  1.
<mgrwt>
<rscale>  0 0.62778805E+03</rscale>
<asrwt>0</asrwt>
<pdfrwt beam="1">  1       11 0.10000000E+01 0.62445532E+03</pdfrwt>
<pdfrwt beam="2">  1        2 0.17156915E+00 0.62778805E+03</pdfrwt>
<totfact> 0.26800527E+01</totfact>
</mgrwt>
</event>
<event>
 5    1  0.1851087E-003  0.2301306E+03  0.7818608E-02  0.1126548E+00
         11   -1    0    0    0    0  0.00000000000E+00  0.00000000000E+00  0.10001642713E+04  0.10001642713E+04  0.51100000000E-03 0. -1.
          2   -1    0    0  501    0 -0.00000000000E+00 -0.00000000000E+00 -0.11727116951E+03  0.11727116954E+03  0.25500000000E-02 0. -1.
         11    1    1    2    0    0  0.56733952904E+01 -0.22503431856E+03  0.85674476504E+03  0.88582403691E+03  0.51100000000E-03 0. -1.
         22    1    1    2    0    0 -0.85819428038E+01  0.17924406645E+03  0.39661974932E+02  0.18378018760E+03  0.00000000000E+00 0. -1.
          2    1    1    2  501    0  0.29085475134E+01  0.45790252114E+02 -0.13513638143E+02  0.47831216372E+02  0.25500000000E-02 0. -1.
<mgrwt>
<rscale>  0 0.23013063E+03</rscale>
<asrwt>0</asrwt>
<pdfrwt beam="1">  1       11 0.10000000E+01 0.22510582E+03</pdfrwt>
<pdfrwt beam="2">  1        2 0.18044682E-01 0.23013063E+03</pdfrwt>
<totfact> 0.38442480E+02</totfact>
</mgrwt>
</event>
<event>
 5    1  0.1851087E-003  0.4006751E+02  0.7818608E-02  0.1558369E+00
         11   -1    0    0    0    0  0.00000000000E+00  0.00000000000E+00  0.10000378084E+04  0.10000378084E+04  0.51100000000E-03 0.  1.
          2   -1    0    0  501    0 -0.00000000000E+00 -0.00000000000E+00 -0.10803297557E+02  0.10803297858E+02  0.25500000000E-02 0.  1.
         11    1    1    2    0    0  0.42403193654E+02  0.27761420245E+01  0.21938843497E+03  0.22346593296E+03  0.51100000000E-03 0.  1.
         22    1    1    2    0    0 -0.88283055335E+01 -0.27331924263E+02  0.16990612960E+02  0.33371454737E+02  0.00000000000E+00 0.  1.
          2    1    1    2  501    0 -0.33574888120E+02  0.24555782238E+02  0.75285546290E+03  0.75400371854E+03  0.25500000000E-02 0.  1.
<mgrwt>
<rscale>  0 0.33923918E+02</rscale>
<asrwt>0</asrwt>
<pdfrwt beam="1">  1       11 0.10000000E+01 0.40067510E+02</pdfrwt>
<pdfrwt beam="2">  1        2 0.16621086E-02 0.33923918E+02</pdfrwt>
<totfact> 0.65525075E+03</totfact>
</mgrwt>
</event>
<event>
 5    1  0.1851087E-003  0.2439114E+03  0.7818608E-02  0.1117214E+00
         11   -1    0    0    0    0  0.00000000000E+00  0.00000000000E+00  0.10003659731E+04  0.10003659731E+04  0.51100000000E-03 0. -1.
          2   -1    0    0  501    0 -0.00000000000E+00 -0.00000000000E+00 -0.57539032735E+02  0.57539032791E+02  0.25500000000E-02 0. -1.
         11    1    1    2    0    0 -0.10174493605E+03  0.20820796935E+03  0.52923648093E+03  0.57774894483E+03  0.51100000000E-03 0. -1.
         22    1    1    2    0    0  0.29344105360E+01 -0.76678539621E+02  0.10015791017E+03  0.12617375390E+03  0.00000000000E+00 0. -1.
          2    1    1    2  501    0  0.98810525512E+02 -0.13152942972E+03  0.31343254928E+03  0.35398230718E+03  0.25500000000E-02 0. -1.
<mgrwt>
<rscale>  0 0.24391141E+03</rscale>
<asrwt>0</asrwt>
<pdfrwt beam="1">  1       11 0.10000000E+01 0.23173819E+03</pdfrwt>
<pdfrwt beam="2">  1        2 0.88553983E-02 0.24391141E+03</pdfrwt>
<totfact> 0.91364983E+02</totfact>
</mgrwt>
</event>
<event>
 5    1  0.1851087E-003  0.8456101E+02  0.7818608E-02  0.1381172E+00
         11   -1    0    0    0    0  0.00000000000E+00  0.00000000000E+00  0.10002239961E+04  0.10002239961E+04  0.51100000000E-03 0. -1.
          2   -1    0    0  501    0 -0.00000000000E+00 -0.00000000000E+00 -0.15496320489E+02  0.15496320699E+02  0.25500000000E-02 0. -1.
         11    1    1    2    0    0  0.94841287177E+02  0.45939813036E+02  0.57216253447E+03  0.58178630271E+03  0.51100000000E-03 0. -1.
         22    1    1    2    0    0 -0.69022373496E+02  0.12792298221E+02  0.22542218394E+03  0.23609932644E+03  0.00000000000E+00 0. -1.
          2    1    1    2  501    0 -0.25818913681E+02 -0.58732111257E+02  0.18714295722E+03  0.19783468766E+03  0.25500000000E-02 0. -1.
<mgrwt>
<rscale>  0 0.64156661E+02</rscale>
<asrwt>0</asrwt>
<pdfrwt beam="1">  1       11 0.10000000E+01 0.84561006E+02</pdfrwt>
<pdfrwt beam="2">  1        2 0.23845833E-02 0.64156661E+02</pdfrwt>
<totfact> 0.44915462E+03</totfact>
</mgrwt>
</event>
<event>
 5    1  0.1851087E-003  0.1737806E+03  0.7818608E-02  0.1173962E+00
         11   -1    0    0    0    0  0.00000000000E+00  0.00000000000E+00  0.10003594382E+04  0.10003594382E+04  0.51100000000E-03 0. -1.
          2   -1    0    0  501    0 -0.00000000000E+00 -0.00000000000E+00 -0.64645414610E+02  0.64645414660E+02  0.25500000000E-02 0. -1.
         11    1    1    2    0    0  0.16257812005E+03 -0.29794242090E+02  0.85949667651E+03  0.87524503935E+03  0.51100000000E-03 0. -1.
         22    1    1    2    0    0 -0.57504668642E+02  0.32717891509E+02  0.14044154319E+02  0.67634943712E+02  0.00000000000E+00 0. -1.
          2    1    1    2  501    0 -0.10507345141E+03 -0.29236494190E+01  0.62173192763E+02  0.12212486980E+03  0.25500000000E-02 0. -1.
<mgrwt>
<rscale>  0 0.17378062E+03</rscale>
<asrwt>0</asrwt>
<pdfrwt beam="1">  1       11 0.10000000E+01 0.16528564E+03</pdfrwt>
<pdfrwt beam="2">  1        2 0.99490229E-02 0.17378062E+03</pdfrwt>
<totfact> 0.77591854E+02</totfact>
</mgrwt>
</event>
<event>
 5    1  0.1851087E-003  0.1878620E+03  0.7818608E-02  0.1160404E+00
         11   -1    0    0    0    0  0.00000000000E+00  0.00000000000E+00  0.10002174817E+04  0.10002174817E+04  0.51100000000E-03 0. -1.
          2   -1    0    0  501    0 -0.00000000000E+00 -0.00000000000E+00 -0.52243320333E+02  0.52243320395E+02  0.25500000000E-02 0. -1.
         11    1    1    2    0    0  0.18083652710E+03  0.45326123362E+02  0.77495217798E+03  0.79706159432E+03  0.51100000000E-03 0. -1.
         22    1    1    2    0    0 -0.18748921368E+02 -0.34426507306E+01  0.28207454681E+02  0.34044594227E+02  0.00000000000E+00 0.  1.
          2    1    1    2  501    0 -0.16208760573E+03 -0.41883472631E+02  0.14481452875E+03  0.22135461359E+03  0.25500000000E-02 0. -1.
<mgrwt>
<rscale>  0 0.18786205E+03</rscale>
<asrwt>0</asrwt>
<pdfrwt beam="1">  1       11 0.10000000E+01 0.18643043E+03</pdfrwt>
<pdfrwt beam="2">  1        2 0.80391817E-02 0.18786205E+03</pdfrwt>
<totfact> 0.10175589E+03</totfact>
</mgrwt>
</event>
<event>
 5    1  0.1851087E-003  0.1968506E+03  0.7818608E-02  0.1152424E+00
         11   -1    0    0    0    0  0.00000000000E+00  0.00000000000E+00  0.10006312679E+04  0.10006312679E+04  0.51100000000E-03 0. -1.
          2   -1    0    0  501    0 -0.00000000000E+00 -0.00000000000E+00 -0.56342001468E+03  0.56342001469E+03  0.25500000000E-02 0. -1.
         11    1    1    2    0    0 -0.44604598784E+02 -0.18818540247E+03  0.97363068044E+03  0.99265301986E+03  0.51100000000E-03 0. -1.
         22    1    1    2    0    0  0.47772118444E+02  0.15728240845E+03 -0.42344898401E+03  0.45423449161E+03  0.00000000000E+00 0. -1.
          2    1    1    2  501    0 -0.31675196607E+01  0.30902994021E+02 -0.11297044320E+03  0.11716377113E+03  0.25500000000E-02 0. -1.
<mgrwt>
<rscale>  0 0.19685064E+03</rscale>
<asrwt>0</asrwt>
<pdfrwt beam="1">  1       11 0.10000000E+01 0.19339937E+03</pdfrwt>
<pdfrwt beam="2">  1        2 0.86734718E-01 0.19685064E+03</pdfrwt>
<totfact> 0.68083338E+01</totfact>
</mgrwt>
</event>
<event>
 5    1  0.1851087E-003  0.3135388E+03  0.7818608E-02  0.1078662E+00
         11   -1    0    0    0    0  0.00000000000E+00  0.00000000000E+00  0.10003073578E+04  0.10003073578E+04  0.51100000000E-03 0. -1.
          2   -1    0    0  501    0 -0.00000000000E+00 -0.00000000000E+00 -0.10128706445E+03  0.10128706448E+03  0.25500000000E-02 0. -1.
         11    1    1    2    0    0 -0.51639319124E+02  0.29922284941E+03  0.57774763043E+03  0.65268158956E+03  0.51100000000E-03 0. -1.
         22    1    1    2    0    0  0.19930926672E+02 -0.11415712408E+02  0.14973173239E+02  0.27418173620E+02  0.00000000000E+00 0. -1.
          2    1    1    2  501    0  0.31708392451E+02 -0.28780713700E+03  0.30629948965E+03  0.42149465907E+03  0.25500000000E-02 0. -1.
<mgrwt>
<rscale>  0 0.31353885E+03</rscale>
<asrwt>0</asrwt>
<pdfrwt beam="1">  1       11 0.10000000E+01 0.30364607E+03</pdfrwt>
<pdfrwt beam="2">  1        2 0.15587414E-01 0.31353885E+03</pdfrwt>
<totfact> 0.46115756E+02</totfact>
</mgrwt>
</event>
<event>
 5    1  0.1851087E-003  0.8401720E+02  0.7818608E-02  0.1602394E+00
         11   -1    0    0    0    0  0.00000000000E+00  0.00000000000E+00  0.10000790107E+04  0.10000790107E+04  0.51100000000E-03 0.  1.
          2   -1    0    0  501    0 -0.00000000000E+00 -0.00000000000E+00 -0.91793477600E+01  0.91793481142E+01  0.25500000000E-02 0.  1.
         11    1    1    2    0    0  0.58878249385E+02 -0.65183075691E+02  0.38719825657E+03  0.39703648636E+03  0.51100000000E-03 0.  1.
         22    1    1    2    0    0  0.19555485409E+01  0.10253439017E+02  0.17955148288E+02  0.20768835591E+02  0.00000000000E+00 0. -1.
          2    1    1    2  501    0 -0.60833797926E+02  0.54929636675E+02  0.58574625809E+03  0.59145303688E+03  0.25500000000E-02 0.  1.
<mgrwt>
<rscale>  0 0.29614061E+02</rscale>
<asrwt>0</asrwt>
<pdfrwt beam="1">  1       11 0.10000000E+01 0.84017204E+02</pdfrwt>
<pdfrwt beam="2">  1        2 0.14123189E-02 0.29614061E+02</pdfrwt>
<totfact> 0.79087174E+03</totfact>
</mgrwt>
</event>
<event>
 5    1  0.1851087E-003  0.2641467E+03  0.7818608E-02  0.1104677E+00
         11   -1    0    0    0    0  0.00000000000E+00  0.00000000000E+00  0.10002508237E+04  0.10002508237E+04  0.51100000000E-03 0. -1.
          2   -1    0    0  501    0 -0.00000000000E+00 -0.00000000000E+00 -0.17722161741E+03  0.17722161743E+03  0.25500000000E-02 0. -1.
         11    1    1    2    0    0  0.83235340022E+00  0.25506637931E+03  0.87224985661E+03  0.90877905072E+03  0.51100000000E-03 0. -1.
         22    1    1    2    0    0 -0.32611368500E+02 -0.11886920469E+03 -0.34897511251E+02  0.12810630535E+03  0.00000000000E+00 0. -1.
          2    1    1    2  501    0  0.31779015100E+02 -0.13619717462E+03 -0.14323139042E+02  0.14058708508E+03  0.25500000000E-02 0. -1.
<mgrwt>
<rscale>  0 0.26414667E+03</rscale>
<asrwt>0</asrwt>
<pdfrwt beam="1">  1       11 0.10000000E+01 0.25506774E+03</pdfrwt>
<pdfrwt beam="2">  1        2 0.27271702E-01 0.26414667E+03</pdfrwt>
<totfact> 0.24119260E+02</totfact>
</mgrwt>
</event>
<event>
 5    1  0.1851087E-003  0.4052371E+03  0.7818608E-02  0.1041981E+00
         11   -1    0    0    0    0  0.00000000000E+00  0.00000000000E+00  0.10003871486E+04  0.10003871486E+04  0.51100000000E-03 0. -1.
          2   -1    0    0  501    0 -0.00000000000E+00 -0.00000000000E+00 -0.19876492495E+03  0.19876492496E+03  0.25500000000E-02 0. -1.
         11    1    1    2    0    0  0.39360554893E+03 -0.84221661509E+02  0.65384708853E+03  0.76781158600E+03  0.51100000000E-03 0. -1.
         22    1    1    2    0    0 -0.31887695710E+02  0.16491955942E+02  0.35181327254E+01  0.36071969816E+02  0.00000000000E+00 0. -1.
          2    1    1    2  501    0 -0.36171785322E+03  0.67729705566E+02  0.14425700236E+03  0.39526851771E+03  0.25500000000E-02 0. -1.
<mgrwt>
<rscale>  0 0.40523712E+03</rscale>
<asrwt>0</asrwt>
<pdfrwt beam="1">  1       11 0.10000000E+01 0.40251536E+03</pdfrwt>
<pdfrwt beam="2">  1        2 0.30591057E-01 0.40523712E+03</pdfrwt>
<totfact> 0.21354970E+02</totfact>
</mgrwt>
</event>
<event>
 5    1  0.1851087E-003  0.2937674E+03  0.7818608E-02  0.1088398E+00
         11   -1    0    0    0    0  0.00000000000E+00  0.00000000000E+00  0.10001090542E+04  0.10001090542E+04  0.51100000000E-03 0. -1.
          2   -1    0    0  501    0 -0.00000000000E+00 -0.00000000000E+00 -0.18516984599E+03  0.18516984600E+03  0.25500000000E-02 0. -1.
         11    1    1    2    0    0 -0.27105240757E+03 -0.10193053072E+03  0.84186647314E+03  0.89027995560E+03  0.51100000000E-03 0. -1.
         22    1    1    2    0    0  0.92967405751E+01  0.11889250017E+02 -0.90831259084E+01  0.17614960334E+02  0.00000000000E+00 0.  1.
          2    1    1    2  501    0  0.26175566699E+03  0.90041280705E+02 -0.17844139004E+02  0.27738398429E+03  0.25500000000E-02 0. -1.
<mgrwt>
<rscale>  0 0.29376742E+03</rscale>
<asrwt>0</asrwt>
<pdfrwt beam="1">  1       11 0.10000000E+01 0.28958460E+03</pdfrwt>
<pdfrwt beam="2">  1        2 0.28490774E-01 0.29376742E+03</pdfrwt>
<totfact> 0.23014227E+02</totfact>
</mgrwt>
</event>
<event>
 5    1  0.1851087E-003  0.2395214E+03  0.7818608E-02  0.1120112E+00
         11   -1    0    0    0    0  0.00000000000E+00  0.00000000000E+00  0.10001886066E+04  0.10001886066E+04  0.51100000000E-03 0.  1.
         -2   -1    0    0    0  501 -0.00000000000E+00 -0.00000000000E+00 -0.10054207539E+03  0.10054207542E+03  0.25500000000E-02 0. -1.
         11    1    1    2    0    0  0.52980277031E+02 -0.20990785494E+03  0.82033346630E+03  0.84841924380E+03  0.51100000000E-03 0.  1.
         22    1    1    2    0    0 -0.43802709712E+02  0.91146732440E+02 -0.12531462045E+02  0.10189917445E+03  0.00000000000E+00 0.  1.
         -2    1    1    2    0  501 -0.91775673185E+01  0.11876112250E+03  0.91844526994E+02  0.15041226381E+03  0.25500000000E-02 0. -1.
<mgrwt>
<rscale>  0 0.23952140E+03</rscale>
<asrwt>0</asrwt>
<pdfrwt beam="1">  1       11 0.10000000E+01 0.21649069E+03</pdfrwt>
<pdfrwt beam="2">  1       -2 0.15470929E-01 0.23952140E+03</pdfrwt>
<totfact> 0.25939793E+02</totfact>
</mgrwt>
</event>
<event>
 5    1  0.1851087E-003  0.2655693E+03  0.7818608E-02  0.1103843E+00
         11   -1    0    0    0    0  0.00000000000E+00  0.00000000000E+00  0.10003924824E+04  0.10003924824E+04  0.51100000000E-03 0.  1.
          2   -1    0    0  501    0 -0.00000000000E+00 -0.00000000000E+00 -0.29380634906E+03  0.29380634907E+03  0.25500000000E-02 0.  1.
         11    1    1    2    0    0 -0.21544341301E+02 -0.26302609895E+03  0.91773024307E+03  0.95492182215E+03  0.51100000000E-03 0.  1.
         22    1    1    2    0    0 -0.57449692718E+01  0.17413178292E+02 -0.12195677796E+02  0.22021762125E+02  0.00000000000E+00 0.  1.
          2    1    1    2  501    0  0.27289310573E+02  0.24561292066E+03 -0.19894843196E+03  0.31725524716E+03  0.25500000000E-02 0.  1.
<mgrwt>
<rscale>  0 0.26556930E+03</rscale>
<asrwt>0</asrwt>
<pdfrwt beam="1">  1       11 0.10000000E+01 0.26390697E+03</pdfrwt>
<pdfrwt beam="2">  1        2 0.45218716E-01 0.26556930E+03</pdfrwt>
<totfact> 0.13874494E+02</totfact>
</mgrwt>
</event>
<event>
 5    1  0.1851087E-003  0.9462456E+02  0.7818608E-02  0.1292024E+00
         11   -1    0    0    0    0  0.00000000000E+00  0.00000000000E+00  0.10005833572E+04  0.10005833572E+04  0.51100000000E-03 0. -1.
          2   -1    0    0  501    0 -0.00000000000E+00 -0.00000000000E+00 -0.87808063443E+01  0.87808067146E+01  0.25500000000E-02 0. -1.
         11    1    1    2    0    0  0.47185116985E+02 -0.79444518288E+02  0.52464337655E+03  0.53271806738E+03  0.51100000000E-03 0. -1.
         22    1    1    2    0    0 -0.18189980093E+02  0.15386326038E+02  0.98415727122E+02  0.10125843051E+03  0.00000000000E+00 0.  1.
          2    1    1    2  501    0 -0.28995136892E+02  0.64058192249E+02  0.36874344718E+03  0.37538766602E+03  0.25500000000E-02 0. -1.
<mgrwt>
<rscale>  0 0.94624559E+02</rscale>
<asrwt>0</asrwt>
<pdfrwt beam="1">  1       11 0.10000000E+01 0.92400578E+02</pdfrwt>
<pdfrwt beam="2">  1        2 0.13516813E-02 0.94624559E+02</pdfrwt>
<totfact> 0.10175937E+04</totfact>
</mgrwt>
</event>
<event>
 5    1  0.1851087E-003  0.5261300E+03  0.7818608E-02  0.1007175E+00
         11   -1    0    0    0    0  0.00000000000E+00  0.00000000000E+00  0.99952854280E+03  0.99952854280E+03  0.51100000000E-03 0. -1.
          2   -1    0    0  501    0 -0.00000000000E+00 -0.00000000000E+00 -0.31727877400E+03  0.31727877401E+03  0.25500000000E-02 0. -1.
         11    1    1    2    0    0 -0.35062159736E+03  0.38680912662E+03  0.58086135500E+03  0.78099725909E+03  0.51100000000E-03 0. -1.
         22    1    1    2    0    0  0.27744343074E+02 -0.92268807771E+01  0.78412198647E+01  0.30271581235E+02  0.00000000000E+00 0.  1.
          2    1    1    2  501    0  0.32287725428E+03 -0.37758224585E+03  0.93547193934E+02  0.50553847649E+03  0.25500000000E-02 0. -1.
<mgrwt>
<rscale>  0 0.52613003E+03</rscale>
<asrwt>0</asrwt>
<pdfrwt beam="1">  1       11 0.10000000E+01 0.52206973E+03</pdfrwt>
<pdfrwt beam="2">  1        2 0.48789105E-01 0.52613003E+03</pdfrwt>
<totfact> 0.12766283E+02</totfact>
</mgrwt>
</event>
<event>
 5    1  0.1851087E-003  0.1598752E+03  0.7818608E-02  0.1323211E+00
         11   -1    0    0    0    0  0.00000000000E+00  0.00000000000E+00  0.99995522211E+03  0.99995522211E+03  0.51100000000E-03 0. -1.
          2   -1    0    0  501    0 -0.00000000000E+00 -0.00000000000E+00 -0.40245045123E+02  0.40245045203E+02  0.25500000000E-02 0. -1.
         11    1    1    2    0    0  0.14550426615E+03  0.10414946653E+03  0.62762148247E+03  0.65263108117E+03  0.51100000000E-03 0. -1.
         22    1    1    2    0    0 -0.38381786573E+02 -0.17431368139E+02  0.20531477936E+02  0.46888759015E+02  0.00000000000E+00 0.  1.
          2    1    1    2  501    0 -0.10712247958E+03 -0.86718098395E+02  0.31155721658E+03  0.34068042713E+03  0.25500000000E-02 0. -1.
<mgrwt>
<rscale>  0 0.82094343E+02</rscale>
<asrwt>0</asrwt>
<pdfrwt beam="1">  1       11 0.10000000E+01 0.15987517E+03</pdfrwt>
<pdfrwt beam="2">  1        2 0.61912680E-02 0.82094343E+02</pdfrwt>
<totfact> 0.13352626E+03</totfact>
</mgrwt>
</event>
<event>
 5    1  0.1851087E-003  0.3372502E+03  0.7818608E-02  0.1067973E+00
         11   -1    0    0    0    0  0.00000000000E+00  0.00000000000E+00  0.99954365970E+03  0.99954365970E+03  0.51100000000E-03 0.  1.
          2   -1    0    0  501    0 -0.00000000000E+00 -0.00000000000E+00 -0.42912651278E+03  0.42912651279E+03  0.25500000000E-02 0.  1.
         11    1    1    2    0    0 -0.80900255487E+02 -0.31778172205E+03  0.89953545060E+03  0.95744143481E+03  0.51100000000E-03 0.  1.
         22    1    1    2    0    0 -0.12606554028E+02  0.43374409979E+02 -0.64315129836E+02  0.78591987958E+02  0.00000000000E+00 0. -1.
          2    1    1    2  501    0  0.93506809516E+02  0.27440731207E+03 -0.26480317384E+03  0.39263674972E+03  0.25500000000E-02 0.  1.
<mgrwt>
<rscale>  0 0.33725015E+03</rscale>
<asrwt>0</asrwt>
<pdfrwt beam="1">  1       11 0.10000000E+01 0.32791779E+03</pdfrwt>
<pdfrwt beam="2">  1        2 0.65989334E-01 0.33725015E+03</pdfrwt>
<totfact> 0.91742437E+01</totfact>
</mgrwt>
</event>
<event>
 5    1  0.1851087E-003  0.2684403E+03  0.7818608E-02  0.1102176E+00
         11   -1    0    0    0    0  0.00000000000E+00  0.00000000000E+00  0.10003628675E+04  0.10003628675E+04  0.51100000000E-03 0. -1.
          2   -1    0    0  501    0 -0.00000000000E+00 -0.00000000000E+00 -0.47466510985E+03  0.47466510985E+03  0.25500000000E-02 0. -1.
         11    1    1    2    0    0  0.73299538997E+02 -0.84850675554E+02  0.34303855811E+03  0.36089875577E+03  0.51100000000E-03 0. -1.
         22    1    1    2    0    0  0.30989743274E+02  0.27152153376E+03 -0.40511193322E+03  0.48867165451E+03  0.00000000000E+00 0. -1.
          2    1    1    2  501    0 -0.10428928227E+03 -0.18667085820E+03  0.58777113278E+03  0.62545756709E+03  0.25500000000E-02 0. -1.
<mgrwt>
<rscale>  0 0.26844030E+03</rscale>
<asrwt>0</asrwt>
<pdfrwt beam="1">  1       11 0.10000000E+01 0.11212698E+03</pdfrwt>
<pdfrwt beam="2">  1        2 0.73051898E-01 0.26844030E+03</pdfrwt>
<totfact> 0.82166497E+01</totfact>
</mgrwt>
</event>
<event>
 5    1  0.1851087E-003  0.9525149E+02  0.7818608E-02  0.1290611E+00
         11   -1    0    0    0    0  0.00000000000E+00  0.00000000000E+00  0.99998881514E+03  0.99998881514E+03  0.51100000000E-03 0. -1.
          2   -1    0    0  501    0 -0.00000000000E+00 -0.00000000000E+00 -0.97845183318E+01  0.97845186641E+01  0.25500000000E-02 0. -1.
         11    1    1    2    0    0 -0.72104801627E+02 -0.58282656257E+02  0.33162762308E+03  0.34434408784E+03  0.51100000000E-03 0. -1.
         22    1    1    2    0    0  0.28258389576E+02  0.13049486860E+02  0.17228342871E+03  0.17507257209E+03  0.00000000000E+00 0. -1.
          2    1    1    2  501    0  0.43846412051E+02  0.45233169398E+02  0.48629324502E+03  0.49035667388E+03  0.25500000000E-02 0. -1.
<mgrwt>
<rscale>  0 0.95251489E+02</rscale>
<asrwt>0</asrwt>
<pdfrwt beam="1">  1       11 0.10000000E+01 0.92714503E+02</pdfrwt>
<pdfrwt beam="2">  1        2 0.15052937E-02 0.95251489E+02</pdfrwt>
<totfact> 0.87963113E+03</totfact>
</mgrwt>
</event>
<event>
 5    1  0.1851087E-003  0.5148012E+03  0.7818608E-02  0.1009986E+00
         11   -1    0    0    0    0  0.00000000000E+00  0.00000000000E+00  0.10001362027E+04  0.10001362027E+04  0.51100000000E-03 0. -1.
          2   -1    0    0  501    0 -0.00000000000E+00 -0.00000000000E+00 -0.35608894070E+03  0.35608894071E+03  0.25500000000E-02 0. -1.
         11    1    1    2    0    0  0.49775491380E+03 -0.10597802886E+03  0.66929938047E+03  0.84080494618E+03  0.51100000000E-03 0. -1.
         22    1    1    2    0    0 -0.38885899525E+02 -0.62304770540E+01 -0.17169513379E+02  0.42961892601E+02  0.00000000000E+00 0.  1.
          2    1    1    2  501    0 -0.45886901428E+03  0.11220850592E+03 -0.80826051342E+01  0.47245830459E+03  0.25500000000E-02 0. -1.
<mgrwt>
<rscale>  0 0.51480123E+03</rscale>
<asrwt>0</asrwt>
<pdfrwt beam="1">  1       11 0.10000000E+01 0.50891188E+03</pdfrwt>
<pdfrwt beam="2">  1        2 0.54790374E-01 0.51480123E+03</pdfrwt>
<totfact> 0.11231411E+02</totfact>
</mgrwt>
</event>
<event>
 5    1  0.1851087E-003  0.9905510E+02  0.7818608E-02  0.1282296E+00
         11   -1    0    0    0    0  0.00000000000E+00  0.00000000000E+00  0.10001999582E+04  0.10001999582E+04  0.51100000000E-03 0. -1.
          2   -1    0    0  501    0 -0.00000000000E+00 -0.00000000000E+00 -0.96916046439E+01  0.96916049793E+01  0.25500000000E-02 0. -1.
         11    1    1    2    0    0 -0.94409082479E+02  0.16279431881E+02  0.55989309890E+03  0.56803026059E+03  0.51100000000E-03 0. -1.
         22    1    1    2    0    0  0.34342541600E+02  0.58740103110E+01  0.16515100731E+03  0.16878616465E+03  0.00000000000E+00 0. -1.
          2    1    1    2  501    0  0.60066540879E+02 -0.22153442192E+02  0.26546424739E+03  0.27307513798E+03  0.25500000000E-02 0. -1.
<mgrwt>
<rscale>  0 0.99055102E+02</rscale>
<asrwt>0</asrwt>
<pdfrwt beam="1">  1       11 0.10000000E+01 0.95802373E+02</pdfrwt>
<pdfrwt beam="2">  1        2 0.14913142E-02 0.99055102E+02</pdfrwt>
<totfact> 0.89573655E+03</totfact>
</mgrwt>
</event>
<event>
 5    1  0.1851087E-003  0.1342082E+03  0.7818608E-02  0.1221342E+00
         11   -1    0    0    0    0  0.00000000000E+00  0.00000000000E+00  0.10000417741E+04  0.10000417741E+04  0.51100000000E-03 0. -1.
          2   -1    0    0  501    0 -0.00000000000E+00 -0.00000000000E+00 -0.17138820211E+02  0.17138820401E+02  0.25500000000E-02 0. -1.
         11    1    1    2    0    0 -0.81310924363E+02 -0.90717669099E+02  0.36235493240E+03  0.38228557250E+03  0.51100000000E-03 0. -1.
         22    1    1    2    0    0  0.48747129900E+02  0.17884089560E+02  0.18738651557E+03  0.19444749819E+03  0.00000000000E+00 0. -1.
          2    1    1    2  501    0  0.32563794463E+02  0.72833579539E+02  0.43316150592E+03  0.44044752382E+03  0.25500000000E-02 0. -1.
<mgrwt>
<rscale>  0 0.13420820E+03</rscale>
<asrwt>0</asrwt>
<pdfrwt beam="1">  1       11 0.10000000E+01 0.12182437E+03</pdfrwt>
<pdfrwt beam="2">  1        2 0.26368517E-02 0.13420820E+03</pdfrwt>
<totfact> 0.42880825E+03</totfact>
</mgrwt>
</event>
<event>
 5    1  0.1851087E-003  0.1631854E+03  0.7818608E-02  0.1419942E+00
         11   -1    0    0    0    0  0.00000000000E+00  0.00000000000E+00  0.10002554604E+04  0.10002554604E+04  0.51100000000E-03 0.  1.
          2   -1    0    0  501    0 -0.00000000000E+00 -0.00000000000E+00 -0.92126120411E+02  0.92126120446E+02  0.25500000000E-02 0.  1.
         11    1    1    2    0    0  0.35541315184E+02 -0.16119670300E+03  0.88711056034E+03  0.90233735843E+03  0.51100000000E-03 0.  1.
         22    1    1    2    0    0 -0.13346472004E+02  0.12896869354E+02 -0.26847651560E+02  0.32638228328E+02  0.00000000000E+00 0.  1.
          2    1    1    2  501    0 -0.22194843180E+02  0.14829983364E+03  0.47866431163E+02  0.15740599405E+03  0.25500000000E-02 0.  1.
<mgrwt>
<rscale>  0 0.55033176E+02</rscale>
<asrwt>0</asrwt>
<pdfrwt beam="1">  1       11 0.10000000E+01 0.16318540E+03</pdfrwt>
<pdfrwt beam="2">  1        2 0.14176870E-01 0.55033176E+02</pdfrwt>
<totfact> 0.47738581E+02</totfact>
</mgrwt>
</event>
<event>
 5    1  0.1851087E-003  0.1265370E+03  0.7818608E-02  0.1232687E+00
         11   -1    0    0    0    0  0.00000000000E+00  0.00000000000E+00  0.10000815890E+04  0.10000815890E+04  0.51100000000E-03 0. -1.
         -2   -1    0    0    0  501 -0.00000000000E+00 -0.00000000000E+00 -0.15572697932E+02  0.15572698141E+02  0.25500000000E-02 0.  1.
         11    1    1    2    0    0  0.11736904249E+03 -0.78958014236E+01  0.58026680518E+03  0.59207043585E+03  0.51100000000E-03 0. -1.
         22    1    1    2    0    0 -0.36399502823E+02 -0.14072442151E+02  0.17949115005E+03  0.18368459484E+03  0.00000000000E+00 0. -1.
         -2    1    1    2    0  501 -0.80969539666E+02  0.21968243575E+02  0.22475093581E+03  0.23989925643E+03  0.25500000000E-02 0.  1.
<mgrwt>
<rscale>  0 0.12653701E+03</rscale>
<asrwt>0</asrwt>
<pdfrwt beam="1">  1       11 0.10000000E+01 0.11763433E+03</pdfrwt>
<pdfrwt beam="2">  1       -2 0.23959951E-02 0.12653701E+03</pdfrwt>
<totfact> 0.43473513E+03</totfact>
</mgrwt>
</event>
<event>
 5    1  0.1851087E-003  0.2541965E+02  0.7818608E-02  0.1655047E+00
         11   -1    0    0    0    0  0.00000000000E+00  0.00000000000E+00  0.10000332023E+04  0.10000332023E+04  0.51100000000E-03 0.  1.
          2   -1    0    0  501    0 -0.00000000000E+00 -0.00000000000E+00 -0.28357206874E+01  0.28357218339E+01  0.25500000000E-02 0.  1.
         11    1    1    2    0    0  0.62936408615E+01 -0.12889022358E+02  0.72299332795E+02  0.73708414279E+02  0.51100000000E-03 0.  1.
         22    1    1    2    0    0 -0.23915071814E+02 -0.88940912141E+01  0.83859583578E+02  0.87655377909E+02  0.00000000000E+00 0.  1.
          2    1    1    2  501    0  0.17621430953E+02  0.21783113572E+02  0.84103856521E+03  0.84150513191E+03  0.25500000000E-02 0.  1.
<mgrwt>
<rscale>  0 0.25419646E+02</rscale>
<asrwt>0</asrwt>
<pdfrwt beam="1">  1       11 0.10000000E+01 0.14343536E+02</pdfrwt>
<pdfrwt beam="2">  1        2 0.43627928E-03 0.25419646E+02</pdfrwt>
<totfact> 0.35825591E+04</totfact>
</mgrwt>
</event>
<event>
 5    1  0.1851087E-003  0.1882151E+03  0.7818608E-02  0.1347123E+00
         11   -1    0    0    0    0  0.00000000000E+00  0.00000000000E+00  0.10000061945E+04  0.10000061945E+04  0.51100000000E-03 0. -1.
          2   -1    0    0  501    0 -0.00000000000E+00 -0.00000000000E+00 -0.10304915699E+03  0.10304915702E+03  0.25500000000E-02 0.  1.
         11    1    1    2    0    0 -0.13117782829E+03 -0.13975008835E+03  0.87212901168E+03  0.89294273212E+03  0.51100000000E-03 0. -1.
         22    1    1    2    0    0  0.57819007544E+01  0.28481864414E+02 -0.21538676892E+02  0.36174045655E+02  0.00000000000E+00 0. -1.
          2    1    1    2  501    0  0.12539592754E+03  0.11126822393E+03  0.46366702675E+02  0.17393857371E+03  0.25500000000E-02 0.  1.
<mgrwt>
<rscale>  0 0.73959854E+02</rscale>
<asrwt>0</asrwt>
<pdfrwt beam="1">  1       11 0.10000000E+01 0.18821511E+03</pdfrwt>
<pdfrwt beam="2">  1        2 0.15853814E-01 0.73959854E+02</pdfrwt>
<totfact> 0.42684165E+02</totfact>
</mgrwt>
</event>
<event>
 5    1  0.1851087E-003  0.2740190E+03  0.7818608E-02  0.1099001E+00
         11   -1    0    0    0    0  0.00000000000E+00  0.00000000000E+00  0.10002471683E+04  0.10002471683E+04  0.51100000000E-03 0. -1.
          2   -1    0    0  501    0 -0.00000000000E+00 -0.00000000000E+00 -0.67784738353E+03  0.67784738354E+03  0.25500000000E-02 0. -1.
         11    1    1    2    0    0 -0.14763827586E+02 -0.25302575172E+03  0.95533724385E+03  0.98838719696E+03  0.51100000000E-03 0. -1.
         22    1    1    2    0    0 -0.36302860920E+02  0.93636197546E+02 -0.31176384740E+03  0.32753981705E+03  0.00000000000E+00 0. -1.
          2    1    1    2  501    0  0.51066688506E+02  0.15938955417E+03 -0.32117361164E+03  0.36216753786E+03  0.25500000000E-02 0. -1.
<mgrwt>
<rscale>  0 0.27401899E+03</rscale>
<asrwt>0</asrwt>
<pdfrwt beam="1">  1       11 0.10000000E+01 0.25345611E+03</pdfrwt>
<pdfrwt beam="2">  1        2 0.10430999E+00 0.27401899E+03</pdfrwt>
<totfact> 0.54409133E+01</totfact>
</mgrwt>
</event>
<event>
 5    1  0.1851087E-003  0.2089126E+03  0.7818608E-02  0.1328345E+00
         11   -1    0    0    0    0  0.00000000000E+00  0.00000000000E+00  0.99998273649E+03  0.99998273649E+03  0.51100000000E-03 0. -1.
         -2   -1    0    0    0  501 -0.00000000000E+00 -0.00000000000E+00 -0.10274186731E+03  0.10274186734E+03  0.25500000000E-02 0.  1.
         11    1    1    2    0    0  0.74860378772E+02  0.19024918108E+03  0.78244094600E+03  0.80871049281E+03  0.51100000000E-03 0. -1.
         22    1    1    2    0    0  0.21275663098E+02  0.22306773927E+02 -0.58502187530E+01  0.31376281850E+02  0.00000000000E+00 0. -1.
         -2    1    1    2    0  501 -0.96136041870E+02 -0.21255595500E+03  0.12065014193E+03  0.26263782916E+03  0.25500000000E-02 0.  1.
<mgrwt>
<rscale>  0 0.80249317E+02</rscale>
<asrwt>0</asrwt>
<pdfrwt beam="1">  1       11 0.10000000E+01 0.20891261E+03</pdfrwt>
<pdfrwt beam="2">  1       -2 0.15806168E-01 0.80249317E+02</pdfrwt>
<totfact> 0.23880979E+02</totfact>
</mgrwt>
</event>
<event>
 5    1  0.1851087E-003  0.1053903E+03  0.7818608E-02  0.1269352E+00
         11   -1    0    0    0    0  0.00000000000E+00  0.00000000000E+00  0.10002497751E+04  0.10002497751E+04  0.51100000000E-03 0. -1.
          2   -1    0    0  501    0 -0.00000000000E+00 -0.00000000000E+00 -0.10729542499E+02  0.10729542802E+02  0.25500000000E-02 0.  1.
         11    1    1    2    0    0  0.36764763450E+02 -0.89849129328E+02  0.58259182922E+03  0.59062488379E+03  0.51100000000E-03 0. -1.
         22    1    1    2    0    0 -0.33388027209E+02  0.66094891608E+02  0.22551122766E+03  0.23735755487E+03  0.00000000000E+00 0.  1.
          2    1    1    2  501    0 -0.33767362412E+01  0.23754237720E+02  0.18141717575E+03  0.18299687926E+03  0.25500000000E-02 0.  1.
<mgrwt>
<rscale>  0 0.10539034E+03</rscale>
<asrwt>0</asrwt>
<pdfrwt beam="1">  1       11 0.10000000E+01 0.97079935E+02</pdfrwt>
<pdfrwt beam="2">  1        2 0.16511111E-02 0.10539034E+03</pdfrwt>
<totfact> 0.78635852E+03</totfact>
</mgrwt>
</event>
<event>
 5    1  0.1851087E-003  0.2869778E+03  0.7818608E-02  0.1091938E+00
         11   -1    0    0    0    0  0.00000000000E+00  0.00000000000E+00  0.99996237937E+03  0.99996237937E+03  0.51100000000E-03 0. -1.
          2   -1    0    0  501    0 -0.00000000000E+00 -0.00000000000E+00 -0.19879967780E+03  0.19879967782E+03  0.25500000000E-02 0. -1.
         11    1    1    2    0    0  0.15328347482E+03  0.23265708694E+03  0.86156716979E+03  0.90549606946E+03  0.51100000000E-03 0. -1.
         22    1    1    2    0    0 -0.22394664400E+02 -0.62153130483E+02  0.10563040312E+02  0.66903740127E+02  0.00000000000E+00 0. -1.
          2    1    1    2  501    0 -0.13088881042E+03 -0.17050395646E+03 -0.70967508530E+02  0.22636224760E+03  0.25500000000E-02 0. -1.
<mgrwt>
<rscale>  0 0.28697777E+03</rscale>
<asrwt>0</asrwt>
<pdfrwt beam="1">  1       11 0.10000000E+01 0.27861289E+03</pdfrwt>
<pdfrwt beam="2">  1        2 0.30583414E-01 0.28697777E+03</pdfrwt>
<totfact> 0.21268759E+02</totfact>
</mgrwt>
</event>
<event>
 5    1  0.1851087E-003  0.9826719E+02  0.7818608E-02  0.1555930E+00
         11   -1    0    0    0    0  0.00000000000E+00  0.00000000000E+00  0.10001766285E+04  0.10001766285E+04  0.51100000000E-03 0. -1.
          2   -1    0    0  501    0 -0.00000000000E+00 -0.00000000000E+00 -0.11158676541E+02  0.11158676832E+02  0.25500000000E-02 0.  1.
         11    1    1    2    0    0  0.86271863022E+02  0.51821955460E+02  0.54629346874E+03  0.55548618651E+03  0.51100000000E-03 0. -1.
         22    1    1    2    0    0 -0.10132308881E+02  0.62301490984E+01  0.32759802011E+02  0.34852303637E+02  0.00000000000E+00 0.  1.
          2    1    1    2  501    0 -0.76139554141E+02 -0.58052104558E+02  0.40996468117E+03  0.42099681514E+03  0.25500000000E-02 0.  1.
<mgrwt>
<rscale>  0 0.34188247E+02</rscale>
<asrwt>0</asrwt>
<pdfrwt beam="1">  1       11 0.10000000E+01 0.98267191E+02</pdfrwt>
<pdfrwt beam="2">  1        2 0.17170227E-02 0.34188247E+02</pdfrwt>
<totfact> 0.62881797E+03</totfact>
</mgrwt>
</event>
<event>
 5    1  0.1851087E-003  0.1271268E+04  0.7818608E-02  0.9052666E-01
         11   -1    0    0    0    0  0.00000000000E+00  0.00000000000E+00  0.10003298249E+04  0.10003298249E+04  0.51100000000E-03 0.  1.
          2   -1    0    0  501    0 -0.00000000000E+00 -0.00000000000E+00 -0.23505017744E+04  0.23505017744E+04  0.25500000000E-02 0.  1.
         11    1    1    2    0    0 -0.95072137625E+03 -0.83272356693E+03  0.26907714475E+03  0.12921695647E+04  0.51100000000E-03 0.  1.
         22    1    1    2    0    0  0.39435622874E+01  0.25785340689E+02 -0.47420503237E+02  0.54121526265E+02  0.00000000000E+00 0.  1.
          2    1    1    2  501    0  0.94677781396E+03  0.80693822624E+03 -0.15718285910E+04  0.20045405083E+04  0.25500000000E-02 0.  1.
<mgrwt>
<rscale>  0 0.12712678E+04</rscale>
<asrwt>0</asrwt>
<pdfrwt beam="1">  1       11 0.10000000E+01 0.12638432E+04</pdfrwt>
<pdfrwt beam="2">  1        2 0.36173492E+00 0.12712678E+04</pdfrwt>
<totfact> 0.51406305E+00</totfact>
</mgrwt>
</event>
<event>
 5    1  0.1851087E-003  0.1814111E+03  0.7818608E-02  0.1272463E+00
         11   -1    0    0    0    0  0.00000000000E+00  0.00000000000E+00  0.10001206559E+04  0.10001206559E+04  0.51100000000E-03 0. -1.
          2   -1    0    0  501    0 -0.00000000000E+00 -0.00000000000E+00 -0.52510373695E+03  0.52510373696E+03  0.25500000000E-02 0. -1.
         11    1    1    2    0    0 -0.17939888058E+03  0.44109430734E-01  0.91561168497E+03  0.93302128483E+03  0.51100000000E-03 0. -1.
         22    1    1    2    0    0  0.27951125106E+03 -0.27539394933E+02 -0.37817471023E+03  0.47106376342E+03  0.00000000000E+00 0. -1.
          2    1    1    2  501    0 -0.10011237048E+03  0.27495285502E+02 -0.62420055764E+02  0.12113934463E+03  0.25500000000E-02 0. -1.
<mgrwt>
<rscale>  0 0.10381945E+03</rscale>
<asrwt>0</asrwt>
<pdfrwt beam="1">  1       11 0.10000000E+01 0.18141105E+03</pdfrwt>
<pdfrwt beam="2">  1        2 0.80794935E-01 0.10381945E+03</pdfrwt>
<totfact> 0.74568635E+01</totfact>
</mgrwt>
</event>
<event>
 5    1  0.1851087E-003  0.2871240E+03  0.7818608E-02  0.1091860E+00
         11   -1    0    0    0    0  0.00000000000E+00  0.00000000000E+00  0.10002949845E+04  0.10002949845E+04  0.51100000000E-03 0. -1.
          2   -1    0    0  501    0 -0.00000000000E+00 -0.00000000000E+00 -0.10000128933E+03  0.10000128936E+03  0.25500000000E-02 0. -1.
         11    1    1    2    0    0 -0.20992305193E+02 -0.27874278304E+03  0.20083402828E+03  0.34419837723E+03  0.51100000000E-03 0. -1.
         22    1    1    2    0    0 -0.10836191308E+02  0.47018688104E+02  0.18096067701E+03  0.18728306570E+03  0.00000000000E+00 0. -1.
          2    1    1    2  501    0  0.31828496501E+02  0.23172409494E+03  0.51849898988E+03  0.56881483092E+03  0.25500000000E-02 0. -1.
<mgrwt>
<rscale>  0 0.28712402E+03</rscale>
<asrwt>0</asrwt>
<pdfrwt beam="1">  1       11 0.10000000E+01 0.27953228E+03</pdfrwt>
<pdfrwt beam="2">  1        2 0.15389352E-01 0.28712402E+03</pdfrwt>
<totfact> 0.46689356E+02</totfact>
</mgrwt>
</event>
<event>
 5    1  0.1851087E-003  0.7470299E+02  0.7818608E-02  0.1580130E+00
         11   -1    0    0    0    0  0.00000000000E+00  0.00000000000E+00  0.10000332144E+04  0.10000332144E+04  0.51100000000E-03 0. -1.
          2   -1    0    0  501    0 -0.00000000000E+00 -0.00000000000E+00 -0.75587565794E+01  0.75587570096E+01  0.25500000000E-02 0. -1.
         11    1    1    2    0    0  0.65346600378E+02  0.49459808117E+02  0.49064329648E+03  0.49744074540E+03  0.51100000000E-03 0. -1.
         22    1    1    2    0    0 -0.12791080645E+02 -0.41353553102E+01  0.25842731900E+02  0.29130048054E+02  0.00000000000E+00 0. -1.
          2    1    1    2  501    0 -0.52555519733E+02 -0.45324452807E+02  0.47598842946E+03  0.48102117797E+03  0.25500000000E-02 0. -1.
<mgrwt>
<rscale>  0 0.31689558E+02</rscale>
<asrwt>0</asrwt>
<pdfrwt beam="1">  1       11 0.10000000E+01 0.74702992E+02</pdfrwt>
<pdfrwt beam="2">  1        2 0.11629243E-02 0.31689558E+02</pdfrwt>
<totfact> 0.10340393E+04</totfact>
</mgrwt>
</event>
<event>
 5    1  0.1851087E-003  0.1417059E+03  0.7818608E-02  0.1265217E+00
         11   -1    0    0    0    0  0.00000000000E+00  0.00000000000E+00  0.10005738856E+04  0.10005738856E+04  0.51100000000E-03 0.  1.
          2   -1    0    0  501    0 -0.00000000000E+00 -0.00000000000E+00 -0.38721695676E+02  0.38721695760E+02  0.25500000000E-02 0.  1.
         11    1    1    2    0    0  0.11685423477E+03  0.96629668209E+02  0.53192420084E+03  0.55311441891E+03  0.51100000000E-03 0.  1.
         22    1    1    2    0    0  0.22887045249E+02 -0.78318373593E+02  0.11348963251E+03  0.13977654012E+03  0.00000000000E+00 0.  1.
          2    1    1    2  501    0 -0.13974128002E+03 -0.18311294616E+02  0.31643835655E+03  0.34640462230E+03  0.25500000000E-02 0.  1.
<mgrwt>
<rscale>  0 0.10752840E+03</rscale>
<asrwt>0</asrwt>
<pdfrwt beam="1">  1       11 0.10000000E+01 0.14170594E+03</pdfrwt>
<pdfrwt beam="2">  1        2 0.59606025E-02 0.10752840E+03</pdfrwt>
<totfact> 0.14328661E+03</totfact>
</mgrwt>
</event>
<event>
 5    1  0.1851087E-003  0.5669935E+02  0.7818608E-02  0.1559499E+00
         11   -1    0    0    0    0  0.00000000000E+00  0.00000000000E+00  0.10002773947E+04  0.10002773947E+04  0.51100000000E-03 0. -1.
          2   -1    0    0  501    0 -0.00000000000E+00 -0.00000000000E+00 -0.10638067707E+02  0.10638068013E+02  0.25500000000E-02 0. -1.
         11    1    1    2    0    0  0.34563135911E+02 -0.39699067618E+02  0.20359054478E+03  0.21028489308E+03  0.51100000000E-03 0. -1.
         22    1    1    2    0    0 -0.16118452379E+02  0.68025799940E+02  0.17217243946E+03  0.18582427956E+03  0.00000000000E+00 0. -1.
          2    1    1    2  501    0 -0.18444683532E+02 -0.28326732322E+02  0.61387634274E+03  0.61480629006E+03  0.25500000000E-02 0. -1.
<mgrwt>
<rscale>  0 0.33802516E+02</rscale>
<asrwt>0</asrwt>
<pdfrwt beam="1">  1       11 0.10000000E+01 0.56699353E+02</pdfrwt>
<pdfrwt beam="2">  1        2 0.16370798E-02 0.33802516E+02</pdfrwt>
<totfact> 0.66797384E+03</totfact>
</mgrwt>
</event>
<event>
 5    1  0.1851087E-003  0.4846083E+03  0.7818608E-02  0.1017876E+00
         11   -1    0    0    0    0  0.00000000000E+00  0.00000000000E+00  0.10002904990E+04  0.10002904990E+04  0.51100000000E-03 0. -1.
          2   -1    0    0  501    0 -0.00000000000E+00 -0.00000000000E+00 -0.45918442669E+03  0.45918442670E+03  0.25500000000E-02 0. -1.
         11    1    1    2    0    0 -0.12874615171E+03  0.44729632141E+03  0.78830179455E+03  0.91546124441E+03  0.51100000000E-03 0. -1.
         22    1    1    2    0    0  0.56790384833E+02 -0.49537434768E+02 -0.69316331481E+02  0.10239071766E+03  0.00000000000E+00 0.  1.
          2    1    1    2  501    0  0.71955766874E+02 -0.39775888665E+03 -0.17787939079E+03  0.44162296359E+03  0.25500000000E-02 0. -1.
<mgrwt>
<rscale>  0 0.48460825E+03</rscale>
<asrwt>0</asrwt>
<pdfrwt beam="1">  1       11 0.10000000E+01 0.46545630E+03</pdfrwt>
<pdfrwt beam="2">  1        2 0.70664278E-01 0.48460825E+03</pdfrwt>
<totfact> 0.84587842E+01</totfact>
</mgrwt>
</event>
<event>
 5    1  0.1851087E-003  0.2506073E+03  0.7818608E-02  0.1112922E+00
         11   -1    0    0    0    0  0.00000000000E+00  0.00000000000E+00  0.10003100964E+04  0.10003100964E+04  0.51100000000E-03 0. -1.
          2   -1    0    0  501    0 -0.00000000000E+00 -0.00000000000E+00 -0.16293747969E+03  0.16293747971E+03  0.25500000000E-02 0. -1.
         11    1    1    2    0    0  0.23304369088E+03 -0.72599926176E+02  0.87627737955E+03  0.90963847601E+03  0.51100000000E-03 0. -1.
         22    1    1    2    0    0 -0.16469290421E+02  0.61703241421E+01 -0.19479718580E+02  0.26244425369E+02  0.00000000000E+00 0.  1.
          2    1    1    2  501    0 -0.21657440045E+03  0.66429602034E+02 -0.19425044276E+02  0.22736467472E+03  0.25500000000E-02 0. -1.
<mgrwt>
<rscale>  0 0.25060725E+03</rscale>
<asrwt>0</asrwt>
<pdfrwt beam="1">  1       11 0.10000000E+01 0.24409037E+03</pdfrwt>
<pdfrwt beam="2">  1        2 0.25075077E-01 0.25060725E+03</pdfrwt>
<totfact> 0.26467218E+02</totfact>
</mgrwt>
</event>
<event>
 5    1  0.1851087E-003  0.3555465E+03  0.7818608E-02  0.1060361E+00
         11   -1    0    0    0    0  0.00000000000E+00  0.00000000000E+00  0.10000856394E+04  0.10000856394E+04  0.51100000000E-03 0. -1.
          2   -1    0    0  501    0 -0.00000000000E+00 -0.00000000000E+00 -0.27051591846E+03  0.27051591847E+03  0.25500000000E-02 0. -1.
         11    1    1    2    0    0  0.19265084271E+03 -0.27368243298E+03  0.83514371781E+03  0.89971187095E+03  0.51100000000E-03 0. -1.
         22    1    1    2    0    0 -0.37505454699E+00  0.88650162791E+02 -0.29005791512E+02  0.93275548618E+02  0.00000000000E+00 0. -1.
          2    1    1    2  501    0 -0.19227578816E+03  0.18503227019E+03 -0.76568205341E+02  0.27761413833E+03  0.25500000000E-02 0. -1.
<mgrwt>
<rscale>  0 0.35554647E+03</rscale>
<asrwt>0</asrwt>
<pdfrwt beam="1">  1       11 0.10000000E+01 0.33468854E+03</pdfrwt>
<pdfrwt beam="2">  1        2 0.41621397E-01 0.35554647E+03</pdfrwt>
<totfact> 0.15194657E+02</totfact>
</mgrwt>
</event>
<event>
 5    1  0.1851087E-003  0.1440891E+03  0.7818608E-02  0.1207930E+00
         11   -1    0    0    0    0  0.00000000000E+00  0.00000000000E+00  0.10003500311E+04  0.10003500311E+04  0.51100000000E-03 0. -1.
          2   -1    0    0  501    0 -0.00000000000E+00 -0.00000000000E+00 -0.25040072863E+02  0.25040072993E+02  0.25500000000E-02 0.  1.
         11    1    1    2    0    0  0.10574926608E+03 -0.89237838855E+02  0.71116385057E+03  0.72450004935E+03  0.51100000000E-03 0. -1.
         22    1    1    2    0    0 -0.13848964078E+02  0.32145781383E+02  0.50971291182E+02  0.61832172787E+02  0.00000000000E+00 0. -1.
          2    1    1    2  501    0 -0.91900301998E+02  0.57092057472E+02  0.21317481650E+03  0.23905788196E+03  0.25500000000E-02 0.  1.
<mgrwt>
<rscale>  0 0.14408907E+03</rscale>
<asrwt>0</asrwt>
<pdfrwt beam="1">  1       11 0.10000000E+01 0.13837015E+03</pdfrwt>
<pdfrwt beam="2">  1        2 0.38536672E-02 0.14408907E+03</pdfrwt>
<totfact> 0.25961761E+03</totfact>
</mgrwt>
</event>
<event>
 5    1  0.1851087E-003  0.4510586E+03  0.7818608E-02  0.1027407E+00
         11   -1    0    0    0    0  0.00000000000E+00  0.00000000000E+00  0.10003877933E+04  0.10003877933E+04  0.51100000000E-03 0.  1.
          2   -1    0    0  501    0 -0.00000000000E+00 -0.00000000000E+00 -0.29714970427E+03  0.29714970428E+03  0.25500000000E-02 0.  1.
         11    1    1    2    0    0  0.35120821538E+03 -0.32500518389E+03  0.87755741394E+02  0.48649424483E+03  0.51100000000E-03 0.  1.
         22    1    1    2    0    0 -0.11252419195E+01  0.12306534450E+03  0.12360492018E+03  0.17442626373E+03  0.00000000000E+00 0.  1.
          2    1    1    2  501    0 -0.35008297346E+03  0.20193983940E+03  0.49187742742E+03  0.63661698898E+03  0.25500000000E-02 0.  1.
<mgrwt>
<rscale>  0 0.45105860E+03</rscale>
<asrwt>0</asrwt>
<pdfrwt beam="1">  1       11 0.10000000E+01 0.12307049E+03</pdfrwt>
<pdfrwt beam="2">  1        2 0.45733066E-01 0.45105860E+03</pdfrwt>
<totfact> 0.13711079E+02</totfact>
</mgrwt>
</event>
<event>
 5    1  0.1851087E-003  0.2368563E+03  0.7818608E-02  0.1191922E+00
         11   -1    0    0    0    0  0.00000000000E+00  0.00000000000E+00  0.10003696015E+04  0.10003696015E+04  0.51100000000E-03 0. -1.
          2   -1    0    0  501    0 -0.00000000000E+00 -0.00000000000E+00 -0.27499641218E+03  0.27499641219E+03  0.25500000000E-02 0. -1.
         11    1    1    2    0    0 -0.19749693391E+03 -0.12649717470E+03  0.75577936088E+03  0.79133369475E+03  0.51100000000E-03 0. -1.
         22    1    1    2    0    0  0.13464378083E+03  0.27055889465E+03 -0.90949098496E+02  0.31559911551E+03  0.00000000000E+00 0. -1.
          2    1    1    2  501    0  0.62853153082E+02 -0.14406171995E+03  0.60542926911E+02  0.16843320342E+03  0.25500000000E-02 0. -1.
<mgrwt>
<rscale>  0 0.15717601E+03</rscale>
<asrwt>0</asrwt>
<pdfrwt beam="1">  1       11 0.10000000E+01 0.23685631E+03</pdfrwt>
<pdfrwt beam="2">  1        2 0.42322776E-01 0.15717601E+03</pdfrwt>
<totfact> 0.14861786E+02</totfact>
</mgrwt>
</event>
<event>
 5    1  0.1851087E-003  0.3014982E+03  0.7818608E-02  0.1084494E+00
         11   -1    0    0    0    0  0.00000000000E+00  0.00000000000E+00  0.10001404257E+04  0.10001404257E+04  0.51100000000E-03 0. -1.
         -2   -1    0    0    0  501 -0.00000000000E+00 -0.00000000000E+00 -0.89526977786E+02  0.89526977823E+02  0.25500000000E-02 0. -1.
         11    1    1    2    0    0  0.28902649477E+03  0.60521966411E+02  0.49127037560E+03  0.57318915293E+03  0.51100000000E-03 0. -1.
         22    1    1    2    0    0 -0.22481964878E+03 -0.26084297900E+02  0.28811052307E+03  0.36637677134E+03  0.00000000000E+00 0. -1.
         -2    1    1    2    0  501 -0.64206845987E+02 -0.34437668510E+02  0.13123254920E+03  0.15010147921E+03  0.25500000000E-02 0. -1.
<mgrwt>
<rscale>  0 0.30149821E+03</rscale>
<asrwt>0</asrwt>
<pdfrwt beam="1">  1       11 0.10000000E+01 0.29529515E+03</pdfrwt>
<pdfrwt beam="2">  1       -2 0.13775315E-01 0.30149821E+03</pdfrwt>
<totfact> 0.31699312E+02</totfact>
</mgrwt>
</event>
<event>
 5    1  0.1851087E-003  0.2535748E+03  0.7818608E-02  0.1111066E+00
         11   -1    0    0    0    0  0.00000000000E+00  0.00000000000E+00  0.10002287547E+04  0.10002287547E+04  0.51100000000E-03 0. -1.
          2   -1    0    0  501    0 -0.00000000000E+00 -0.00000000000E+00 -0.25103473826E+03  0.25103473828E+03  0.25500000000E-02 0.  1.
         11    1    1    2    0    0 -0.57643792608E+02  0.24108024010E+03  0.91520566108E+03  0.94817925049E+03  0.51100000000E-03 0. -1.
         22    1    1    2    0    0 -0.45700429389E+01 -0.85275943609E+02 -0.64235748772E+02  0.10686020434E+03  0.00000000000E+00 0.  1.
          2    1    1    2  501    0  0.62213835547E+02 -0.15580429649E+03 -0.10177589591E+03  0.19622403811E+03  0.25500000000E-02 0.  1.
<mgrwt>
<rscale>  0 0.25357482E+03</rscale>
<asrwt>0</asrwt>
<pdfrwt beam="1">  1       11 0.10000000E+01 0.24787595E+03</pdfrwt>
<pdfrwt beam="2">  1        2 0.38629563E-01 0.25357482E+03</pdfrwt>
<totfact> 0.16449987E+02</totfact>
</mgrwt>
</event>
<event>
 5    1  0.1851087E-003  0.1405272E+03  0.7818608E-02  0.1335249E+00
         11   -1    0    0    0    0  0.00000000000E+00  0.00000000000E+00  0.10002566378E+04  0.10002566378E+04  0.51100000000E-03 0.  1.
          2   -1    0    0  501    0 -0.00000000000E+00 -0.00000000000E+00 -0.36098723078E+02  0.36098723168E+02  0.25500000000E-02 0.  1.
         11    1    1    2    0    0  0.14544489843E+03 -0.38580398697E+02  0.50895228501E+03  0.53073071708E+03  0.51100000000E-03 0.  1.
         22    1    1    2    0    0 -0.95034908086E+02  0.97912839214E+02  0.23104954739E+03  0.26833272478E+03  0.00000000000E+00 0.  1.
          2    1    1    2  501    0 -0.50409990344E+02 -0.59332440517E+02  0.22415608237E+03  0.23729191915E+03  0.25500000000E-02 0.  1.
<mgrwt>
<rscale>  0 0.77855672E+02</rscale>
<asrwt>0</asrwt>
<pdfrwt beam="1">  1       11 0.10000000E+01 0.14052718E+03</pdfrwt>
<pdfrwt beam="2">  1        2 0.55550748E-02 0.77855672E+02</pdfrwt>
<totfact> 0.15251825E+03</totfact>
</mgrwt>
</event>
<event>
 5    1  0.1851087E-003  0.2056414E+03  0.7818608E-02  0.1145065E+00
         11   -1    0    0    0    0  0.00000000000E+00  0.00000000000E+00  0.10001416192E+04  0.10001416192E+04  0.51100000000E-03 0.  1.
          2   -1    0    0  501    0 -0.00000000000E+00 -0.00000000000E+00 -0.10654979845E+03  0.10654979848E+03  0.25500000000E-02 0.  1.
         11    1    1    2    0    0 -0.17654232975E+03  0.10318697142E+03  0.87684055057E+03  0.90036886684E+03  0.51100000000E-03 0.  1.
         22    1    1    2    0    0  0.11947603459E+02 -0.22285849073E+01 -0.20244925848E+01  0.12321135878E+02  0.00000000000E+00 0. -1.
          2    1    1    2  501    0  0.16459472629E+03 -0.10095838651E+03  0.18775762759E+02  0.19400141495E+03  0.25500000000E-02 0.  1.
<mgrwt>
<rscale>  0 0.20564141E+03</rscale>
<asrwt>0</asrwt>
<pdfrwt beam="1">  1       11 0.10000000E+01 0.20448654E+03</pdfrwt>
<pdfrwt beam="2">  1        2 0.16394598E-01 0.20564141E+03</pdfrwt>
<totfact> 0.42834591E+02</totfact>
</mgrwt>
</event>
<event>
 5    1  0.1851087E-003  0.4343911E+03  0.7818608E-02  0.1032482E+00
         11   -1    0    0    0    0  0.00000000000E+00  0.00000000000E+00  0.10004449124E+04  0.10004449124E+04  0.51100000000E-03 0. -1.
          2   -1    0    0  501    0 -0.00000000000E+00 -0.00000000000E+00 -0.10130121881E+04  0.10130121881E+04  0.25500000000E-02 0. -1.
         11    1    1    2    0    0  0.30174970269E+03 -0.30376454716E+03  0.90338736943E+03  0.99971722124E+03  0.51100000000E-03 0. -1.
         22    1    1    2    0    0 -0.26458250374E+02  0.31185512820E+02 -0.46780885419E+02  0.62137158475E+02  0.00000000000E+00 0.  1.
          2    1    1    2  501    0 -0.27529145232E+03  0.27257903434E+03 -0.86917375972E+03  0.95160272082E+03  0.25500000000E-02 0. -1.
<mgrwt>
<rscale>  0 0.43439110E+03</rscale>
<asrwt>0</asrwt>
<pdfrwt beam="1">  1       11 0.10000000E+01 0.42816560E+03</pdfrwt>
<pdfrwt beam="2">  1        2 0.15591736E+00 0.43439110E+03</pdfrwt>
<totfact> 0.31506738E+01</totfact>
</mgrwt>
</event>
<event>
 5    1  0.1851087E-003  0.1141727E+03  0.7818608E-02  0.1253032E+00
         11   -1    0    0    0    0  0.00000000000E+00  0.00000000000E+00  0.10002933177E+04  0.10002933177E+04  0.51100000000E-03 0. -1.
          2   -1    0    0  501    0 -0.00000000000E+00 -0.00000000000E+00 -0.17313220320E+02  0.17313220508E+02  0.25500000000E-02 0. -1.
         11    1    1    2    0    0  0.26796073482E+02 -0.10751568426E+03  0.22207417990E+03  0.24818258056E+03  0.51100000000E-03 0. -1.
         22    1    1    2    0    0 -0.10847366250E+02  0.15199170418E+02  0.82952698948E+02  0.85028409362E+02  0.00000000000E+00 0. -1.
          2    1    1    2  501    0 -0.15948707232E+02  0.92316513838E+02  0.67795321850E+03  0.68439554826E+03  0.25500000000E-02 0. -1.
<mgrwt>
<rscale>  0 0.11417273E+03</rscale>
<asrwt>0</asrwt>
<pdfrwt beam="1">  1       11 0.10000000E+01 0.11080462E+03</pdfrwt>
<pdfrwt beam="2">  1        2 0.26643536E-02 0.11417273E+03</pdfrwt>
<totfact> 0.41545491E+03</totfact>
</mgrwt>
</event>
<event>
 5    1  0.1851087E-003  0.5488864E+03  0.7818608E-02  0.1093683E+00
         11   -1    0    0    0    0  0.00000000000E+00  0.00000000000E+00  0.10002047687E+04  0.10002047687E+04  0.51100000000E-03 0.  1.
          2   -1    0    0  501    0 -0.00000000000E+00 -0.00000000000E+00 -0.50549346904E+03  0.50549346904E+03  0.25500000000E-02 0.  1.
         11    1    1    2    0    0 -0.21097124753E+03 -0.60684202379E+03  0.24534507448E+03  0.68772110241E+03  0.51100000000E-03 0.  1.
         22    1    1    2    0    0  0.33956707262E+02  0.14265209522E+03 -0.12757499379E+03  0.19436578217E+03  0.00000000000E+00 0. -1.
          2    1    1    2  501    0  0.17701454027E+03  0.46418992856E+03  0.37694121899E+03  0.62361135319E+03  0.25500000000E-02 0.  1.
<mgrwt>
<rscale>  0 0.28370322E+03</rscale>
<asrwt>0</asrwt>
<pdfrwt beam="1">  1       11 0.10000000E+01 0.54888639E+03</pdfrwt>
<pdfrwt beam="2">  1        2 0.77784148E-01 0.28370322E+03</pdfrwt>
<totfact> 0.76511943E+01</totfact>
</mgrwt>
</event>
<event>
 5    1  0.1851087E-003  0.1963923E+03  0.7818608E-02  0.1152819E+00
         11   -1    0    0    0    0  0.00000000000E+00  0.00000000000E+00  0.10001905712E+04  0.10001905712E+04  0.51100000000E-03 0.  1.
          2   -1    0    0  501    0 -0.00000000000E+00 -0.00000000000E+00 -0.73296408270E+03  0.73296408270E+03  0.25500000000E-02 0. -1.
         11    1    1    2    0    0  0.10434114605E+03  0.11296296510E+03  0.89885900525E+03  0.91191842703E+03  0.51100000000E-03 0.  1.
         22    1    1    2    0    0  0.17845451197E+02  0.17144071911E+03 -0.39704966928E+03  0.43284965077E+03  0.00000000000E+00 0. -1.
          2    1    1    2  501    0 -0.12218659725E+03 -0.28440368421E+03 -0.23458284748E+03  0.38838657608E+03  0.25500000000E-02 0. -1.
<mgrwt>
<rscale>  0 0.19639232E+03</rscale>
<asrwt>0</asrwt>
<pdfrwt beam="1">  1       11 0.10000000E+01 0.15377811E+03</pdfrwt>
<pdfrwt beam="2">  1        2 0.11278519E+00 0.19639232E+03</pdfrwt>
<totfact> 0.49982427E+01</totfact>
</mgrwt>
</event>
<event>
 5    1  0.1851087E-003  0.3435511E+03  0.7818608E-02  0.1065293E+00
         11   -1    0    0    0    0  0.00000000000E+00  0.00000000000E+00  0.10001811746E+04  0.10001811746E+04  0.51100000000E-03 0. -1.
          2   -1    0    0  501    0 -0.00000000000E+00 -0.00000000000E+00 -0.11951482651E+04  0.11951482651E+04  0.25500000000E-02 0. -1.
         11    1    1    2    0    0  0.58312928417E+02  0.33687400013E+03  0.94488242042E+03  0.10048319651E+04  0.51100000000E-03 0. -1.
         22    1    1    2    0    0  0.39162961999E+01 -0.20762922146E+02 -0.60056071282E+02  0.63664495676E+02  0.00000000000E+00 0. -1.
          2    1    1    2  501    0 -0.62229224617E+02 -0.31611107798E+03 -0.10797934397E+04  0.11268329789E+04  0.25500000000E-02 0. -1.
<mgrwt>
<rscale>  0 0.34355106E+03</rscale>
<asrwt>0</asrwt>
<pdfrwt beam="1">  1       11 0.10000000E+01 0.34188374E+03</pdfrwt>
<pdfrwt beam="2">  1        2 0.18390227E+00 0.34355106E+03</pdfrwt>
<totfact> 0.24835033E+01</totfact>
</mgrwt>
</event>
<event>
 5    1  0.1851087E-003  0.1317839E+03  0.7818608E-02  0.1247729E+00
         11   -1    0    0    0    0  0.00000000000E+00  0.00000000000E+00  0.10000571986E+04  0.10000571986E+04  0.51100000000E-03 0. -1.
         -2   -1    0    0    0  501 -0.00000000000E+00 -0.00000000000E+00 -0.10916947320E+03  0.10916947323E+03  0.25500000000E-02 0.  1.
         11    1    1    2    0    0 -0.15167271879E+01  0.14228044599E+03  0.74922427685E+03  0.76261592089E+03  0.51100000000E-03 0. -1.
         22    1    1    2    0    0 -0.91017619817E+02 -0.50918378052E+02 -0.49474725266E+02  0.11543239052E+03  0.00000000000E+00 0.  1.
         -2    1    1    2    0  501  0.92534347005E+02 -0.91362067939E+02  0.19113817384E+03  0.23117836044E+03  0.25500000000E-02 0.  1.
<mgrwt>
<rscale>  0 0.11723499E+03</rscale>
<asrwt>0</asrwt>
<pdfrwt beam="1">  1       11 0.10000000E+01 0.13178385E+03</pdfrwt>
<pdfrwt beam="2">  1       -2 0.16796264E-01 0.11723499E+03</pdfrwt>
<totfact> 0.22010458E+02</totfact>
</mgrwt>
</event>
<event>
 5    1  0.3060575E-003  0.3020427E+03  0.7818608E-02  0.1084224E+00
         11   -1    0    0    0    0  0.00000000000E+00  0.00000000000E+00  0.99946692198E+03  0.99946692198E+03  0.51100000000E-03 0. -1.
          2   -1    0    0  501    0 -0.00000000000E+00 -0.00000000000E+00 -0.11902123131E+04  0.11902123131E+04  0.25500000000E-02 0. -1.
         11    1    1    2    0    0  0.12614349335E+02 -0.29968935822E+03  0.95697364698E+03  0.10028815455E+04  0.51100000000E-03 0. -1.
         22    1    1    2    0    0  0.73442910564E+01  0.16028567174E+02 -0.62130316569E+02  0.64583510385E+02  0.00000000000E+00 0. -1.
          2    1    1    2  501    0 -0.19958640392E+02  0.28366079105E+03 -0.10855887216E+04  0.11222141792E+04  0.25500000000E-02 0. -1.
<mgrwt>
<rscale>  0 0.30204266E+03</rscale>
<asrwt>0</asrwt>
<pdfrwt beam="1">  1       11 0.10000000E+01 0.29995472E+03</pdfrwt>
<pdfrwt beam="2">  1        2 0.18301197E+00 0.30204266E+03</pdfrwt>
<totfact> 0.25212882E+01</totfact>
</mgrwt>
</event>
<event>
 5    1  0.1851087E-003  0.1766112E+03  0.7818608E-02  0.1171124E+00
         11   -1    0    0    0    0  0.00000000000E+00  0.00000000000E+00  0.99989870964E+03  0.99989870964E+03  0.51100000000E-03 0. -1.
          2   -1    0    0  501    0 -0.00000000000E+00 -0.00000000000E+00 -0.60990243315E+02  0.60990243369E+02  0.25500000000E-02 0. -1.
         11    1    1    2    0    0  0.16672784989E+03  0.12076824463E+02  0.84399300334E+03  0.86038840956E+03  0.51100000000E-03 0. -1.
         22    1    1    2    0    0 -0.10196632740E+03  0.73193590678E+01  0.29430594268E+02  0.10638075399E+03  0.00000000000E+00 0. -1.
          2    1    1    2  501    0 -0.64761522489E+02 -0.19396183531E+02  0.65484868709E+02  0.94119789454E+02  0.25500000000E-02 0. -1.
<mgrwt>
<rscale>  0 0.17661122E+03</rscale>
<asrwt>0</asrwt>
<pdfrwt beam="1">  1       11 0.10000000E+01 0.16716467E+03</pdfrwt>
<pdfrwt beam="2">  1        2 0.93821637E-02 0.17661122E+03</pdfrwt>
<totfact> 0.83520371E+02</totfact>
</mgrwt>
</event>
<event>
 5    1  0.1851087E-003  0.6640806E+02  0.7818608E-02  0.1618664E+00
         11   -1    0    0    0    0  0.00000000000E+00  0.00000000000E+00  0.10002887109E+04  0.10002887109E+04  0.51100000000E-03 0. -1.
          2   -1    0    0  501    0 -0.00000000000E+00 -0.00000000000E+00 -0.60576743635E+01  0.60576749003E+01  0.25500000000E-02 0. -1.
         11    1    1    2    0    0 -0.62573793902E+02 -0.35267324054E+02  0.36122840908E+03  0.36830045799E+03  0.51100000000E-03 0. -1.
         22    1    1    2    0    0  0.11535702688E+02 -0.32706294584E+01  0.44801762528E+02  0.46378522822E+02  0.00000000000E+00 0.  1.
          2    1    1    2  501    0  0.51038091214E+02  0.38537953513E+02  0.58820086495E+03  0.59166740501E+03  0.25500000000E-02 0. -1.
<mgrwt>
<rscale>  0 0.28218047E+02</rscale>
<asrwt>0</asrwt>
<pdfrwt beam="1">  1       11 0.10000000E+01 0.66408064E+02</pdfrwt>
<pdfrwt beam="2">  1        2 0.93221898E-03 0.28218047E+02</pdfrwt>
<totfact> 0.13503797E+04</totfact>
</mgrwt>
</event>
<event>
 5    1  0.1851087E-003  0.2944710E+03  0.7818608E-02  0.1088038E+00
         11   -1    0    0    0    0  0.00000000000E+00  0.00000000000E+00  0.10002858771E+04  0.10002858771E+04  0.51100000000E-03 0.  1.
          2   -1    0    0  501    0 -0.00000000000E+00 -0.00000000000E+00 -0.14088682565E+04  0.14088682565E+04  0.25500000000E-02 0.  1.
         11    1    1    2    0    0 -0.16181144420E+03  0.21875370335E+03  0.96589398888E+03  0.10034875804E+04  0.51100000000E-03 0.  1.
         22    1    1    2    0    0  0.66864647291E+02 -0.48443225829E+02 -0.22295759004E+03  0.23775557647E+03  0.00000000000E+00 0.  1.
          2    1    1    2  501    0  0.94946796911E+02 -0.17031047752E+03 -0.11515187783E+04  0.11679109768E+04  0.25500000000E-02 0.  1.
<mgrwt>
<rscale>  0 0.29447100E+03</rscale>
<asrwt>0</asrwt>
<pdfrwt beam="1">  1       11 0.10000000E+01 0.27209580E+03</pdfrwt>
<pdfrwt beam="2">  1        2 0.21681092E+00 0.29447100E+03</pdfrwt>
<totfact> 0.19040171E+01</totfact>
</mgrwt>
</event>
<event>
 5    1  0.1851087E-003  0.7068031E+03  0.7818608E-02  0.1103717E+00
         11   -1    0    0    0    0  0.00000000000E+00  0.00000000000E+00  0.10002472106E+04  0.10002472106E+04  0.51100000000E-03 0. -1.
          2   -1    0    0  501    0 -0.00000000000E+00 -0.00000000000E+00 -0.16001700021E+04  0.16001700021E+04  0.25500000000E-02 0. -1.
         11    1    1    2    0    0  0.67882927601E+03  0.28112540190E+03  0.69318748205E+03  0.10101235384E+04  0.51100000000E-03 0. -1.
         22    1    1    2    0    0 -0.41365616817E+03 -0.26312524149E+03 -0.12197286329E+04  0.13145661855E+04  0.00000000000E+00 0. -1.
          2    1    1    2  501    0 -0.26517310784E+03 -0.18000160402E+02 -0.73381640642E+02  0.27572748881E+03  0.25500000000E-02 0. -1.
<mgrwt>
<rscale>  0 0.26578334E+03</rscale>
<asrwt>0</asrwt>
<pdfrwt beam="1">  1       11 0.10000000E+01 0.70680314E+03</pdfrwt>
<pdfrwt beam="2">  1        2 0.24624085E+00 0.26578334E+03</pdfrwt>
<totfact> 0.15143216E+01</totfact>
</mgrwt>
</event>
<event>
 5    1  0.1851087E-003  0.2306785E+03  0.7818608E-02  0.1126163E+00
         11   -1    0    0    0    0  0.00000000000E+00  0.00000000000E+00  0.99997964099E+03  0.99997964099E+03  0.51100000000E-03 0. -1.
          2   -1    0    0  501    0 -0.00000000000E+00 -0.00000000000E+00 -0.13041112689E+03  0.13041112692E+03  0.25500000000E-02 0. -1.
         11    1    1    2    0    0  0.21811255831E+03 -0.61770808407E+02  0.87068282439E+03  0.89970956511E+03  0.51100000000E-03 0. -1.
         22    1    1    2    0    0 -0.14908525302E+02  0.45223754672E+01 -0.11418192207E+02  0.19315566774E+02  0.00000000000E+00 0.  1.
          2    1    1    2  501    0 -0.20320403301E+03  0.57248432940E+02  0.10303881917E+02  0.21136563603E+03  0.25500000000E-02 0. -1.
<mgrwt>
<rscale>  0 0.23067851E+03</rscale>
<asrwt>0</asrwt>
<pdfrwt beam="1">  1       11 0.10000000E+01 0.22669080E+03</pdfrwt>
<pdfrwt beam="2">  1        2 0.20062841E-01 0.23067851E+03</pdfrwt>
<totfact> 0.34016976E+02</totfact>
</mgrwt>
</event>
<event>
 5    1  0.1851087E-003  0.2791047E+03  0.7818608E-02  0.1096179E+00
         11   -1    0    0    0    0  0.00000000000E+00  0.00000000000E+00  0.99992292176E+03  0.99992292176E+03  0.51100000000E-03 0.  1.
         -2   -1    0    0    0  501 -0.00000000000E+00 -0.00000000000E+00 -0.12879007231E+03  0.12879007234E+03  0.25500000000E-02 0.  1.
         11    1    1    2    0    0  0.24844274740E+03  0.10669919915E+03  0.79454405573E+03  0.83929063758E+03  0.51100000000E-03 0.  1.
         22    1    1    2    0    0 -0.21234509412E+03 -0.10217154239E+03  0.42267829064E+02  0.23940766998E+03  0.00000000000E+00 0.  1.
         -2    1    1    2    0  501 -0.36097653275E+02 -0.45276567558E+01  0.34320964656E+02  0.50014686534E+02  0.25500000000E-02 0.  1.
<mgrwt>
<rscale>  0 0.27910474E+03</rscale>
<asrwt>0</asrwt>
<pdfrwt beam="1">  1       11 0.10000000E+01 0.27038587E+03</pdfrwt>
<pdfrwt beam="2">  1       -2 0.19812329E-01 0.27910474E+03</pdfrwt>
<totfact> 0.17170492E+02</totfact>
</mgrwt>
</event>
<event>
 5    1  0.1851087E-003  0.1637985E+03  0.7818608E-02  0.1184474E+00
         11   -1    0    0    0    0  0.00000000000E+00  0.00000000000E+00  0.10001895158E+04  0.10001895158E+04  0.51100000000E-03 0. -1.
          2   -1    0    0  501    0 -0.00000000000E+00 -0.00000000000E+00 -0.96895528375E+02  0.96895528409E+02  0.25500000000E-02 0. -1.
         11    1    1    2    0    0  0.12165223433E+03 -0.10383507152E+03  0.91874185697E+03  0.93255969672E+03  0.51100000000E-03 0. -1.
         22    1    1    2    0    0 -0.25728086810E+02  0.52877081555E+01 -0.30760015331E+01  0.26445341629E+02  0.00000000000E+00 0. -1.
          2    1    1    2  501    0 -0.95924147522E+02  0.98547363361E+02 -0.12371867981E+02  0.13808000589E+03  0.25500000000E-02 0. -1.
<mgrwt>
<rscale>  0 0.16379851E+03</rscale>
<asrwt>0</asrwt>
<pdfrwt beam="1">  1       11 0.10000000E+01 0.15994058E+03</pdfrwt>
<pdfrwt beam="2">  1        2 0.14909829E-01 0.16379851E+03</pdfrwt>
<totfact> 0.47481399E+02</totfact>
</mgrwt>
</event>
<event>
 5    1  0.1851087E-003  0.1672425E+03  0.7818608E-02  0.1492251E+00
         11   -1    0    0    0    0  0.00000000000E+00  0.00000000000E+00  0.10000799466E+04  0.10000799466E+04  0.51100000000E-03 0. -1.
          2   -1    0    0  501    0 -0.00000000000E+00 -0.00000000000E+00 -0.38532781625E+02  0.38532781709E+02  0.25500000000E-02 0. -1.
         11    1    1    2    0    0  0.16576642707E+03  0.19804868527E+02  0.70533134835E+03  0.72481932378E+03  0.51100000000E-03 0. -1.
         22    1    1    2    0    0 -0.28121512871E+00  0.10671752998E+02  0.59578120098E+01  0.12225420972E+02  0.00000000000E+00 0. -1.
          2    1    1    2  501    0 -0.16548521194E+03 -0.30476621525E+02  0.25025800464E+03  0.30156798359E+03  0.25500000000E-02 0. -1.
<mgrwt>
<rscale>  0 0.42253883E+02</rscale>
<asrwt>0</asrwt>
<pdfrwt beam="1">  1       11 0.10000000E+01 0.16724254E+03</pdfrwt>
<pdfrwt beam="2">  1        2 0.59285940E-02 0.42253883E+02</pdfrwt>
<totfact> 0.13248117E+03</totfact>
</mgrwt>
</event>
<event>
 5    1  0.1851087E-003  0.7332272E+02  0.7818608E-02  0.1349145E+00
         11   -1    0    0    0    0  0.00000000000E+00  0.00000000000E+00  0.10003428743E+04  0.10003428743E+04  0.51100000000E-03 0.  1.
          2   -1    0    0  501    0 -0.00000000000E+00 -0.00000000000E+00 -0.83821339142E+01  0.83821343021E+01  0.25500000000E-02 0.  1.
         11    1    1    2    0    0 -0.22759414669E+01 -0.69803924430E+02  0.17413093341E+03  0.18761489745E+03  0.51100000000E-03 0.  1.
         22    1    1    2    0    0 -0.13923724486E+01  0.13672322947E+02  0.82967675284E+02  0.84098194141E+02  0.00000000000E+00 0.  1.
          2    1    1    2  501    0  0.36683139155E+01  0.56131601483E+02  0.73486213165E+03  0.73701191697E+03  0.25500000000E-02 0.  1.
<mgrwt>
<rscale>  0 0.73322721E+02</rscale>
<asrwt>0</asrwt>
<pdfrwt beam="1">  1       11 0.10000000E+01 0.69841053E+02</pdfrwt>
<pdfrwt beam="2">  1        2 0.12900012E-02 0.73322721E+02</pdfrwt>
<totfact> 0.10435836E+04</totfact>
</mgrwt>
</event>
<event>
 5    1  0.1851087E-003  0.2698445E+03  0.7818608E-02  0.1101369E+00
         11   -1    0    0    0    0  0.00000000000E+00  0.00000000000E+00  0.10001059989E+04  0.10001059989E+04  0.51100000000E-03 0. -1.
         -2   -1    0    0    0  501 -0.00000000000E+00 -0.00000000000E+00 -0.12594278991E+03  0.12594278994E+03  0.25500000000E-02 0.  1.
         11    1    1    2    0    0 -0.75834851040E+02  0.25388724242E+03  0.80499217561E+03  0.84747982825E+03  0.51100000000E-03 0. -1.
         22    1    1    2    0    0 -0.34204436563E+01 -0.47576908394E+02  0.26849428245E+01  0.47775208688E+02  0.00000000000E+00 0. -1.
         -2    1    1    2    0  501  0.79255294696E+02 -0.20631033403E+03  0.66486090527E+02  0.23079375187E+03  0.25500000000E-02 0.  1.
<mgrwt>
<rscale>  0 0.26984446E+03</rscale>
<asrwt>0</asrwt>
<pdfrwt beam="1">  1       11 0.10000000E+01 0.26497105E+03</pdfrwt>
<pdfrwt beam="2">  1       -2 0.19377867E-01 0.26984446E+03</pdfrwt>
<totfact> 0.17818991E+02</totfact>
</mgrwt>
</event>
<event>
 5    1  0.1851087E-003  0.9554987E+02  0.7818608E-02  0.1434089E+00
         11   -1    0    0    0    0  0.00000000000E+00  0.00000000000E+00  0.10001025967E+04  0.10001025967E+04  0.51100000000E-03 0.  1.
          2   -1    0    0  501    0 -0.00000000000E+00 -0.00000000000E+00 -0.15049984615E+02  0.15049984831E+02  0.25500000000E-02 0.  1.
         11    1    1    2    0    0 -0.82987153711E+02 -0.70785265922E+02  0.62696800404E+03  0.63638533896E+03  0.51100000000E-03 0.  1.
         22    1    1    2    0    0  0.17808254168E+02  0.22200642600E+02  0.32560354323E+02  0.43245567657E+02  0.00000000000E+00 0. -1.
          2    1    1    2  501    0  0.65178899543E+02  0.48584623323E+02  0.32552425371E+03  0.33552167490E+03  0.25500000000E-02 0.  1.
<mgrwt>
<rscale>  0 0.52147877E+02</rscale>
<asrwt>0</asrwt>
<pdfrwt beam="1">  1       11 0.10000000E+01 0.95549868E+02</pdfrwt>
<pdfrwt beam="2">  1        2 0.23156197E-02 0.52147877E+02</pdfrwt>
<totfact> 0.45381389E+03</totfact>
</mgrwt>
</event>
<event>
 5    1  0.1851087E-003  0.1169377E+03  0.7818608E-02  0.1523641E+00
         11   -1    0    0    0    0  0.00000000000E+00  0.00000000000E+00  0.10001172436E+04  0.10001172436E+04  0.51100000000E-03 0.  1.
          2   -1    0    0  501    0 -0.00000000000E+00 -0.00000000000E+00 -0.22918650231E+02  0.22918650373E+02  0.25500000000E-02 0.  1.
         11    1    1    2    0    0  0.22899302410E+02  0.12492237972E+03  0.31494932553E+03  0.33959248617E+03  0.51100000000E-03 0.  1.
         22    1    1    2    0    0 -0.50756398370E+02 -0.99109302669E+02  0.31457259672E+03  0.33369864318E+03  0.00000000000E+00 0.  1.
          2    1    1    2  501    0  0.27857095960E+02 -0.25813077051E+02  0.34767667111E+03  0.34974476462E+03  0.25500000000E-02 0.  1.
<mgrwt>
<rscale>  0 0.37978056E+02</rscale>
<asrwt>0</asrwt>
<pdfrwt beam="1">  1       11 0.10000000E+01 0.11693765E+03</pdfrwt>
<pdfrwt beam="2">  1        2 0.35263595E-02 0.37978056E+02</pdfrwt>
<totfact> 0.25168882E+03</totfact>
</mgrwt>
</event>
<event>
 5    1  0.1851087E-003  0.3129207E+03  0.7818608E-02  0.1078954E+00
         11   -1    0    0    0    0  0.00000000000E+00  0.00000000000E+00  0.10004064941E+04  0.10004064941E+04  0.51100000000E-03 0.  1.
          2   -1    0    0  501    0 -0.00000000000E+00 -0.00000000000E+00 -0.18898829668E+03  0.18898829670E+03  0.25500000000E-02 0.  1.
         11    1    1    2    0    0  0.28336362694E+03  0.99746363403E+02  0.82315077981E+03  0.87625423730E+03  0.51100000000E-03 0.  1.
         22    1    1    2    0    0 -0.73541061482E+02  0.12488661452E+02  0.37068370999E+01  0.74685976127E+02  0.00000000000E+00 0.  1.
          2    1    1    2  501    0 -0.20982256545E+03 -0.11223502486E+03 -0.15439419517E+02  0.23845457735E+03  0.25500000000E-02 0.  1.
<mgrwt>
<rscale>  0 0.31292068E+03</rscale>
<asrwt>0</asrwt>
<pdfrwt beam="1">  1       11 0.10000000E+01 0.30040686E+03</pdfrwt>
<pdfrwt beam="2">  1        2 0.29086941E-01 0.31292068E+03</pdfrwt>
<totfact> 0.22511500E+02</totfact>
</mgrwt>
</event>
<event>
 5    1  0.1851087E-003  0.4310018E+03  0.7818608E-02  0.1033544E+00
         11   -1    0    0    0    0  0.00000000000E+00  0.00000000000E+00  0.10004392614E+04  0.10004392614E+04  0.51100000000E-03 0. -1.
          2   -1    0    0  501    0 -0.00000000000E+00 -0.00000000000E+00 -0.37115698833E+03  0.37115698834E+03  0.25500000000E-02 0. -1.
         11    1    1    2    0    0  0.43179812720E+01 -0.40965614262E+03  0.80728169532E+03  0.90528478158E+03  0.51100000000E-03 0. -1.
         22    1    1    2    0    0  0.14751175721E+02  0.10441798877E+03 -0.11123164133E+03  0.15327488900E+03  0.00000000000E+00 0.  1.
          2    1    1    2  501    0 -0.19069156993E+02  0.30523815384E+03 -0.66767780935E+02  0.31303657915E+03  0.25500000000E-02 0. -1.
<mgrwt>
<rscale>  0 0.43100185E+03</rscale>
<asrwt>0</asrwt>
<pdfrwt beam="1">  1       11 0.10000000E+01 0.40967890E+03</pdfrwt>
<pdfrwt beam="2">  1        2 0.57126156E-01 0.43100185E+03</pdfrwt>
<totfact> 0.10736727E+02</totfact>
</mgrwt>
</event>
<event>
 5    1  0.1851087E-003  0.1820251E+03  0.7818608E-02  0.1165857E+00
         11   -1    0    0    0    0  0.00000000000E+00  0.00000000000E+00  0.99994964004E+03  0.99994964004E+03  0.51100000000E-03 0. -1.
          2   -1    0    0  501    0 -0.00000000000E+00 -0.00000000000E+00 -0.10692660702E+03  0.10692660705E+03  0.25500000000E-02 0. -1.
         11    1    1    2    0    0 -0.15086430037E+03  0.92556671464E+02  0.90719576966E+03  0.92430024291E+03  0.51100000000E-03 0. -1.
         22    1    1    2    0    0  0.29315736479E+02 -0.53878600496E+01  0.91830419839E+01  0.31189256183E+02  0.00000000000E+00 0. -1.
          2    1    1    2  501    0  0.12154856389E+03 -0.87168811415E+02 -0.23355778630E+02  0.15138674800E+03  0.25500000000E-02 0. -1.
<mgrwt>
<rscale>  0 0.18202508E+03</rscale>
<asrwt>0</asrwt>
<pdfrwt beam="1">  1       11 0.10000000E+01 0.17699371E+03</pdfrwt>
<pdfrwt beam="2">  1        2 0.16449418E-01 0.18202508E+03</pdfrwt>
<totfact> 0.42483598E+02</totfact>
</mgrwt>
</event>
<event>
 5    1  0.1851087E-003  0.2996377E+03  0.7818608E-02  0.1085422E+00
         11   -1    0    0    0    0  0.00000000000E+00  0.00000000000E+00  0.10002661259E+04  0.10002661259E+04  0.51100000000E-03 0. -1.
          2   -1    0    0  501    0 -0.00000000000E+00 -0.00000000000E+00 -0.41610610418E+03  0.41610610418E+03  0.25500000000E-02 0. -1.
         11    1    1    2    0    0  0.28753407375E+03  0.30127449172E+01  0.92141211415E+03  0.96523841837E+03  0.51100000000E-03 0. -1.
         22    1    1    2    0    0 -0.99956901646E+02  0.45118729472E+01 -0.18130185591E+03  0.20707994142E+03  0.00000000000E+00 0. -1.
          2    1    1    2  501    0 -0.18757717210E+03 -0.75246178645E+01 -0.15595023646E+03  0.24405387034E+03  0.25500000000E-02 0. -1.
<mgrwt>
<rscale>  0 0.29963769E+03</rscale>
<asrwt>0</asrwt>
<pdfrwt beam="1">  1       11 0.10000000E+01 0.28754986E+03</pdfrwt>
<pdfrwt beam="2">  1        2 0.64033358E-01 0.29963769E+03</pdfrwt>
<totfact> 0.94960060E+01</totfact>
</mgrwt>
</event>
<event>
 5    1  0.1851087E-003  0.1668290E+03  0.7818608E-02  0.1308918E+00
         11   -1    0    0    0    0  0.00000000000E+00  0.00000000000E+00  0.10003358835E+04  0.10003358835E+04  0.51100000000E-03 0.  1.
         -2   -1    0    0    0  501 -0.00000000000E+00 -0.00000000000E+00 -0.31605396520E+03  0.31605396521E+03  0.25500000000E-02 0.  1.
         11    1    1    2    0    0 -0.30775455424E+02 -0.16333104183E+03  0.91221870949E+03  0.92723628695E+03  0.51100000000E-03 0.  1.
         22    1    1    2    0    0 -0.48569221131E+02  0.20031561265E+03 -0.21965719234E+03  0.30122183861E+03  0.00000000000E+00 0.  1.
         -2    1    1    2    0  501  0.79344676556E+02 -0.36984570814E+02 -0.82795988334E+01  0.87931723169E+02  0.25500000000E-02 0.  1.
<mgrwt>
<rscale>  0 0.87541054E+02</rscale>
<asrwt>0</asrwt>
<pdfrwt beam="1">  1       11 0.10000000E+01 0.16682898E+03</pdfrwt>
<pdfrwt beam="2">  1       -2 0.48640017E-01 0.87541054E+02</pdfrwt>
<totfact> 0.32898475E+01</totfact>
</mgrwt>
</event>
<event>
 5    1  0.1851087E-003  0.9232025E+02  0.7818608E-02  0.1297328E+00
         11   -1    0    0    0    0  0.00000000000E+00  0.00000000000E+00  0.10004360547E+04  0.10004360547E+04  0.51100000000E-03 0. -1.
          2   -1    0    0  501    0 -0.00000000000E+00 -0.00000000000E+00 -0.17644557672E+02  0.17644557857E+02  0.25500000000E-02 0. -1.
         11    1    1    2    0    0 -0.32963867880E+02 -0.17052792045E+02  0.33498506868E+02  0.49995642458E+02  0.51100000000E-03 0. -1.
         22    1    1    2    0    0 -0.10630570840E+02 -0.81426160492E+02  0.41428195176E+03  0.42234199910E+03  0.00000000000E+00 0. -1.
          2    1    1    2  501    0  0.43594438720E+02  0.98478952538E+02  0.53501103842E+03  0.54574297102E+03  0.25500000000E-02 0. -1.
<mgrwt>
<rscale>  0 0.92320254E+02</rscale>
<asrwt>0</asrwt>
<pdfrwt beam="1">  1       11 0.10000000E+01 0.37113551E+02</pdfrwt>
<pdfrwt beam="2">  1        2 0.27157310E-02 0.92320254E+02</pdfrwt>
<totfact> 0.39532752E+03</totfact>
</mgrwt>
</event>
<event>
 5    1  0.1851087E-003  0.1524227E+03  0.7818608E-02  0.1197527E+00
         11   -1    0    0    0    0  0.00000000000E+00  0.00000000000E+00  0.10002653960E+04  0.10002653960E+04  0.51100000000E-03 0. -1.
          2   -1    0    0  501    0 -0.00000000000E+00 -0.00000000000E+00 -0.56616793644E+02  0.56616793702E+02  0.25500000000E-02 0. -1.
         11    1    1    2    0    0 -0.39696471435E+02  0.14298082779E+03  0.87879656302E+03  0.89123662747E+03  0.51100000000E-03 0. -1.
         22    1    1    2    0    0 -0.55980192190E+01 -0.30778968815E+02  0.10494928257E+02  0.32997367465E+02  0.00000000000E+00 0.  1.
          2    1    1    2  501    0  0.45294490654E+02 -0.11220185897E+03  0.54357111050E+02  0.13264819474E+03  0.25500000000E-02 0. -1.
<mgrwt>
<rscale>  0 0.15242265E+03</rscale>
<asrwt>0</asrwt>
<pdfrwt beam="1">  1       11 0.10000000E+01 0.14838911E+03</pdfrwt>
<pdfrwt beam="2">  1        2 0.87125874E-02 0.15242265E+03</pdfrwt>
<totfact> 0.90827245E+02</totfact>
</mgrwt>
</event>
<event>
 5    1  0.1851087E-003  0.4247000E+03  0.7818608E-02  0.1207034E+00
         11   -1    0    0    0    0  0.00000000000E+00  0.00000000000E+00  0.10002303065E+04  0.10002303065E+04  0.51100000000E-03 0. -1.
          2   -1    0    0  501    0 -0.00000000000E+00 -0.00000000000E+00 -0.23610679642E+03  0.23610679643E+03  0.25500000000E-02 0. -1.
         11    1    1    2    0    0  0.23026670583E+03  0.36485616887E+03  0.61405099326E+03  0.75046745573E+03  0.51100000000E-03 0. -1.
         22    1    1    2    0    0  0.25004320109E+02 -0.42555169139E+02  0.29093620854E+02  0.57293954471E+02  0.00000000000E+00 0. -1.
          2    1    1    2  501    0 -0.25527102594E+03 -0.32230099973E+03  0.12097889593E+03  0.42857569271E+03  0.25500000000E-02 0. -1.
<mgrwt>
<rscale>  0 0.14478298E+03</rscale>
<asrwt>0</asrwt>
<pdfrwt beam="1">  1       11 0.10000000E+01 0.42469997E+03</pdfrwt>
<pdfrwt beam="2">  1        2 0.36332487E-01 0.14478298E+03</pdfrwt>
<totfact> 0.17478194E+02</totfact>
</mgrwt>
</event>
<event>
 5    1  0.1851087E-003  0.1639924E+03  0.7818608E-02  0.1184262E+00
         11   -1    0    0    0    0  0.00000000000E+00  0.00000000000E+00  0.10002428519E+04  0.10002428519E+04  0.51100000000E-03 0. -1.
          2   -1    0    0  501    0 -0.00000000000E+00 -0.00000000000E+00 -0.43565719338E+02  0.43565719413E+02  0.25500000000E-02 0. -1.
         11    1    1    2    0    0  0.81185001760E+02 -0.13861649606E+03  0.80351560188E+03  0.81941617018E+03  0.51100000000E-03 0. -1.
         22    1    1    2    0    0 -0.90228528719E+01  0.42326284717E+02  0.33896112081E+02  0.54971562340E+02  0.00000000000E+00 0. -1.
          2    1    1    2  501    0 -0.72162148888E+02  0.96290211343E+02  0.11926541857E+03  0.16942083876E+03  0.25500000000E-02 0. -1.
<mgrwt>
<rscale>  0 0.16399236E+03</rscale>
<asrwt>0</asrwt>
<pdfrwt beam="1">  1       11 0.10000000E+01 0.16064102E+03</pdfrwt>
<pdfrwt beam="2">  1        2 0.67040459E-02 0.16399236E+03</pdfrwt>
<totfact> 0.12715757E+03</totfact>
</mgrwt>
</event>
<event>
 5    1  0.2787965E-003  0.2499249E+03  0.7818608E-02  0.1113352E+00
         11   -1    0    0    0    0  0.00000000000E+00  0.00000000000E+00  0.10002508113E+04  0.10002508113E+04  0.51100000000E-03 0.  1.
          2   -1    0    0  501    0 -0.00000000000E+00 -0.00000000000E+00 -0.12991062367E+04  0.12991062367E+04  0.25500000000E-02 0.  1.
         11    1    1    2    0    0  0.22079818579E+03  0.10267078009E+03  0.97308815482E+03  0.10030920621E+04  0.51100000000E-03 0.  1.
         22    1    1    2    0    0 -0.16487276664E+02 -0.49374371075E+01 -0.38098320222E+02  0.41805389374E+02  0.00000000000E+00 0. -1.
          2    1    1    2  501    0 -0.20431090913E+03 -0.97733342978E+02 -0.12338452599E+04  0.12544595966E+04  0.25500000000E-02 0.  1.
<mgrwt>
<rscale>  0 0.24992487E+03</rscale>
<asrwt>0</asrwt>
<pdfrwt beam="1">  1       11 0.10000000E+01 0.24350180E+03</pdfrwt>
<pdfrwt beam="2">  1        2 0.19991262E+00 0.24992487E+03</pdfrwt>
<totfact> 0.22117397E+01</totfact>
</mgrwt>
</event>
<event>
 5    1  0.1851087E-003  0.2000684E+03  0.7818608E-02  0.1149681E+00
         11   -1    0    0    0    0  0.00000000000E+00  0.00000000000E+00  0.99987072560E+03  0.99987072560E+03  0.51100000000E-03 0. -1.
          2   -1    0    0  501    0 -0.00000000000E+00 -0.00000000000E+00 -0.30256019504E+03  0.30256019505E+03  0.25500000000E-02 0. -1.
         11    1    1    2    0    0  0.67459625194E+02 -0.17008036609E+03  0.95715592186E+03  0.97448734764E+03  0.51100000000E-03 0. -1.
         22    1    1    2    0    0  0.17099014811E+02  0.46875199401E+02 -0.77753374618E+02  0.92386405336E+02  0.00000000000E+00 0. -1.
          2    1    1    2  501    0 -0.84558640005E+02  0.12320516668E+03 -0.18209201668E+03  0.23555716767E+03  0.25500000000E-02 0. -1.
<mgrwt>
<rscale>  0 0.20006839E+03</rscale>
<asrwt>0</asrwt>
<pdfrwt beam="1">  1       11 0.10000000E+01 0.18297030E+03</pdfrwt>
<pdfrwt beam="2">  1        2 0.46541704E-01 0.20006839E+03</pdfrwt>
<totfact> 0.13441452E+02</totfact>
</mgrwt>
</event>
<event>
 5    1  0.1851087E-003  0.1178181E+03  0.7818608E-02  0.1369269E+00
         11   -1    0    0    0    0  0.00000000000E+00  0.00000000000E+00  0.99986081454E+03  0.99986081454E+03  0.51100000000E-03 0. -1.
          2   -1    0    0  501    0 -0.00000000000E+00 -0.00000000000E+00 -0.20953090057E+02  0.20953090212E+02  0.25500000000E-02 0. -1.
         11    1    1    2    0    0  0.85690111005E+01  0.13194381441E+03  0.45072383383E+03  0.46971754544E+03  0.51100000000E-03 0. -1.
         22    1    1    2    0    0  0.26457685148E+02 -0.28001420150E+02  0.69322999450E+02  0.79308050579E+02  0.00000000000E+00 0. -1.
          2    1    1    2  501    0 -0.35026696248E+02 -0.10394239426E+03  0.45886089121E+03  0.47178830874E+03  0.25500000000E-02 0. -1.
<mgrwt>
<rscale>  0 0.67370680E+02</rscale>
<asrwt>0</asrwt>
<pdfrwt beam="1">  1       11 0.10000000E+01 0.11781814E+03</pdfrwt>
<pdfrwt beam="2">  1        2 0.32231036E-02 0.67370680E+02</pdfrwt>
<totfact> 0.30377310E+03</totfact>
</mgrwt>
</event>
<event>
 5    1  0.1851087E-003  0.1765869E+03  0.7818608E-02  0.1171148E+00
         11   -1    0    0    0    0  0.00000000000E+00  0.00000000000E+00  0.10001992484E+04  0.10001992484E+04  0.51100000000E-03 0. -1.
          2   -1    0    0  501    0 -0.00000000000E+00 -0.00000000000E+00 -0.97013007695E+02  0.97013007728E+02  0.25500000000E-02 0. -1.
         11    1    1    2    0    0 -0.16298830426E+03 -0.58491220966E+02  0.90418991265E+03  0.92062251134E+03  0.51100000000E-03 0. -1.
         22    1    1    2    0    0  0.26664805697E+02  0.14955042426E+02  0.12110403301E+02  0.32883537293E+02  0.00000000000E+00 0.  1.
          2    1    1    2  501    0  0.13632349857E+03  0.43536178541E+02 -0.13114075218E+02  0.14370620752E+03  0.25500000000E-02 0. -1.
<mgrwt>
<rscale>  0 0.17658689E+03</rscale>
<asrwt>0</asrwt>
<pdfrwt beam="1">  1       11 0.10000000E+01 0.17316585E+03</pdfrwt>
<pdfrwt beam="2">  1        2 0.14928051E-01 0.17658689E+03</pdfrwt>
<totfact> 0.47554499E+02</totfact>
</mgrwt>
</event>
<event>
 5    1  0.1851087E-003  0.1339292E+03  0.7818608E-02  0.1221739E+00
         11   -1    0    0    0    0  0.00000000000E+00  0.00000000000E+00  0.10001265742E+04  0.10001265742E+04  0.51100000000E-03 0.  1.
          2   -1    0    0  501    0 -0.00000000000E+00 -0.00000000000E+00 -0.22782923001E+02  0.22782923144E+02  0.25500000000E-02 0.  1.
         11    1    1    2    0    0 -0.22585855762E+02 -0.12791828448E+03  0.73157851137E+03  0.74302108092E+03  0.51100000000E-03 0.  1.
         22    1    1    2    0    0 -0.54699369465E+01  0.34225851522E+02  0.83793279156E+02  0.90678788889E+02  0.00000000000E+00 0. -1.
          2    1    1    2  501    0  0.28055792708E+02  0.93692432960E+02  0.16197186069E+03  0.18920962755E+03  0.25500000000E-02 0.  1.
<mgrwt>
<rscale>  0 0.13392917E+03</rscale>
<asrwt>0</asrwt>
<pdfrwt beam="1">  1       11 0.10000000E+01 0.12989691E+03</pdfrwt>
<pdfrwt beam="2">  1        2 0.35055086E-02 0.13392917E+03</pdfrwt>
<totfact> 0.29250882E+03</totfact>
</mgrwt>
</event>
<event>
 5    1  0.1851087E-003  0.1421970E+03  0.7818608E-02  0.1347469E+00
         11   -1    0    0    0    0  0.00000000000E+00  0.00000000000E+00  0.10003811914E+04  0.10003811914E+04  0.51100000000E-03 0. -1.
          2   -1    0    0  501    0 -0.00000000000E+00 -0.00000000000E+00 -0.37872674314E+02  0.37872674400E+02  0.25500000000E-02 0. -1.
         11    1    1    2    0    0 -0.64212707172E+02 -0.12050718185E+03  0.65600326781E+03  0.67006383279E+03  0.51100000000E-03 0. -1.
         22    1    1    2    0    0  0.12749620227E+02 -0.36173157839E+02  0.70774449766E+02  0.80498900015E+02  0.00000000000E+00 0.  1.
          2    1    1    2  501    0  0.51463086945E+02  0.15668033968E+03  0.23573079954E+03  0.28769113303E+03  0.25500000000E-02 0. -1.
<mgrwt>
<rscale>  0 0.73850281E+02</rscale>
<asrwt>0</asrwt>
<pdfrwt beam="1">  1       11 0.10000000E+01 0.14219704E+03</pdfrwt>
<pdfrwt beam="2">  1        2 0.58287862E-02 0.73850281E+02</pdfrwt>
<totfact> 0.14280464E+03</totfact>
</mgrwt>
</event>
<event>
 5    1  0.1851087E-003  0.1860037E+03  0.7818608E-02  0.1387831E+00
         11   -1    0    0    0    0  0.00000000000E+00  0.00000000000E+00  0.10000470818E+04  0.10000470818E+04  0.51100000000E-03 0.  1.
          2   -1    0    0  501    0 -0.00000000000E+00 -0.00000000000E+00 -0.21851607070E+03  0.21851607071E+03  0.25500000000E-02 0.  1.
         11    1    1    2    0    0  0.17500377301E+03  0.63792333131E+02  0.92576512187E+03  0.94431818960E+03  0.51100000000E-03 0.  1.
         22    1    1    2    0    0 -0.10898067034E+02  0.17912233745E+02 -0.75671957083E+02  0.78522997087E+02  0.00000000000E+00 0.  1.
          2    1    1    2  501    0 -0.16410570598E+03 -0.81704566876E+02 -0.68562153685E+02  0.19572196583E+03  0.25500000000E-02 0.  1.
<mgrwt>
<rscale>  0 0.62449526E+02</rscale>
<asrwt>0</asrwt>
<pdfrwt beam="1">  1       11 0.10000000E+01 0.18600369E+03</pdfrwt>
<pdfrwt beam="2">  1        2 0.33619439E-01 0.62449526E+02</pdfrwt>
<totfact> 0.18704445E+02</totfact>
</mgrwt>
</event>
<event>
 5    1  0.1851087E-003  0.1016607E+03  0.7818608E-02  0.1300354E+00
         11   -1    0    0    0    0  0.00000000000E+00  0.00000000000E+00  0.10001624312E+04  0.10001624312E+04  0.51100000000E-03 0. -1.
          2   -1    0    0  501    0 -0.00000000000E+00 -0.00000000000E+00 -0.89806140251E+02  0.89806140288E+02  0.25500000000E-02 0. -1.
         11    1    1    2    0    0  0.33774946352E+02 -0.91790715865E+02  0.27141762347E+03  0.28850270163E+03  0.51100000000E-03 0. -1.
         22    1    1    2    0    0 -0.12470235844E+03  0.96307349271E+02  0.15104942700E+01  0.15756923975E+03  0.00000000000E+00 0. -1.
          2    1    1    2  501    0  0.90927412086E+02 -0.45166334062E+01  0.63742817321E+03  0.64389663010E+03  0.25500000000E-02 0. -1.
<mgrwt>
<rscale>  0 0.91039520E+02</rscale>
<asrwt>0</asrwt>
<pdfrwt beam="1">  1       11 0.10000000E+01 0.10166067E+03</pdfrwt>
<pdfrwt beam="2">  1        2 0.13818573E-01 0.91039520E+02</pdfrwt>
<totfact> 0.50543169E+02</totfact>
</mgrwt>
</event>
<event>
 5    1  0.1851087E-003  0.2939536E+03  0.7818608E-02  0.1088303E+00
         11   -1    0    0    0    0  0.00000000000E+00  0.00000000000E+00  0.10000044039E+04  0.10000044039E+04  0.51100000000E-03 0.  1.
          2   -1    0    0  501    0 -0.00000000000E+00 -0.00000000000E+00 -0.56931610077E+03  0.56931610077E+03  0.25500000000E-02 0.  1.
         11    1    1    2    0    0 -0.18007705965E+03 -0.22440712369E+03  0.93902162011E+03  0.98211399929E+03  0.51100000000E-03 0.  1.
         22    1    1    2    0    0  0.77165462752E+02  0.58733541420E+02 -0.13816081195E+03  0.16879735628E+03  0.00000000000E+00 0. -1.
          2    1    1    2  501    0  0.10291159689E+03  0.16567358227E+03 -0.37017250498E+03  0.41840914914E+03  0.25500000000E-02 0.  1.
<mgrwt>
<rscale>  0 0.29395360E+03</rscale>
<asrwt>0</asrwt>
<pdfrwt beam="1">  1       11 0.10000000E+01 0.28772609E+03</pdfrwt>
<pdfrwt beam="2">  1        2 0.87587476E-01 0.29395360E+03</pdfrwt>
<totfact> 0.66763641E+01</totfact>
</mgrwt>
</event>
<event>
 5    1  0.1851087E-003  0.2533572E+03  0.7818608E-02  0.1111201E+00
         11   -1    0    0    0    0  0.00000000000E+00  0.00000000000E+00  0.10000281079E+04  0.10000281079E+04  0.51100000000E-03 0. -1.
          2   -1    0    0  501    0 -0.00000000000E+00 -0.00000000000E+00 -0.13249865315E+03  0.13249865318E+03  0.25500000000E-02 0. -1.
         11    1    1    2    0    0  0.24936984942E+03  0.10374992046E+03  0.67712288049E+02  0.27844985499E+03  0.51100000000E-03 0. -1.
         22    1    1    2    0    0 -0.81346936384E+02 -0.25643705935E+02  0.10659425062E+03  0.13651834301E+03  0.00000000000E+00 0. -1.
          2    1    1    2  501    0 -0.16802291303E+03 -0.78106214523E+02  0.69322291609E+03  0.71755856308E+03  0.25500000000E-02 0. -1.
<mgrwt>
<rscale>  0 0.25335724E+03</rscale>
<asrwt>0</asrwt>
<pdfrwt beam="1">  1       11 0.10000000E+01 0.85293163E+02</pdfrwt>
<pdfrwt beam="2">  1        2 0.20384981E-01 0.25335724E+03</pdfrwt>
<totfact> 0.33484494E+02</totfact>
</mgrwt>
</event>
<event>
 5    1  0.1851087E-003  0.1008286E+03  0.7818608E-02  0.1334157E+00
         11   -1    0    0    0    0  0.00000000000E+00  0.00000000000E+00  0.10001820325E+04  0.10001820325E+04  0.51100000000E-03 0.  1.
         -2   -1    0    0    0  501 -0.00000000000E+00 -0.00000000000E+00 -0.44257087439E+02  0.44257087512E+02  0.25500000000E-02 0. -1.
         11    1    1    2    0    0  0.13512593256E+03  0.47590809732E+02  0.49306289436E+03  0.51345391284E+03  0.51100000000E-03 0.  1.
         22    1    1    2    0    0 -0.60272342477E+02 -0.71351299998E+01  0.33206329099E+00  0.60694115150E+02  0.00000000000E+00 0. -1.
         -2    1    1    2    0  501 -0.74853590082E+02 -0.40455679732E+02  0.46252998742E+03  0.47029109202E+03  0.25500000000E-02 0. -1.
<mgrwt>
<rscale>  0 0.78227933E+02</rscale>
<asrwt>0</asrwt>
<pdfrwt beam="1">  1       11 0.10000000E+01 0.10082862E+03</pdfrwt>
<pdfrwt beam="2">  1       -2 0.68100219E-02 0.78227933E+02</pdfrwt>
<totfact> 0.88470768E+02</totfact>
</mgrwt>
</event>
<event>
 5    1  0.2717571E-003  0.1850336E+03  0.7818608E-02  0.1163019E+00
         11   -1    0    0    0    0  0.00000000000E+00  0.00000000000E+00  0.10000356390E+04  0.10000356390E+04  0.51100000000E-03 0. -1.
          2   -1    0    0  501    0 -0.00000000000E+00 -0.00000000000E+00 -0.40609574542E+03  0.40609574542E+03  0.25500000000E-02 0. -1.
         11    1    1    2    0    0 -0.14578317953E+03 -0.10637199781E+03  0.97019686652E+03  0.98683823252E+03  0.51100000000E-03 0. -1.
         22    1    1    2    0    0  0.78545641844E+01  0.16033362051E+02 -0.60507468665E+02  0.63086580518E+02  0.00000000000E+00 0. -1.
          2    1    1    2  501    0  0.13792861534E+03  0.90338635755E+02 -0.31574950428E+03  0.35620657139E+03  0.25500000000E-02 0. -1.
<mgrwt>
<rscale>  0 0.18503361E+03</rscale>
<asrwt>0</asrwt>
<pdfrwt beam="1">  1       11 0.10000000E+01 0.18046534E+03</pdfrwt>
<pdfrwt beam="2">  1        2 0.62478493E-01 0.18503361E+03</pdfrwt>
<totfact> 0.97948054E+01</totfact>
</mgrwt>
</event>
<event>
 5    1  0.1851087E-003  0.7945139E+02  0.7818608E-02  0.1330616E+00
         11   -1    0    0    0    0  0.00000000000E+00  0.00000000000E+00  0.10000515026E+04  0.10000515026E+04  0.51100000000E-03 0. -1.
          2   -1    0    0  501    0 -0.00000000000E+00 -0.00000000000E+00 -0.65217518814E+01  0.65217523799E+01  0.25500000000E-02 0. -1.
         11    1    1    2    0    0  0.33516799775E+02 -0.67331590640E+02  0.33926519751E+03  0.34750222044E+03  0.51100000000E-03 0. -1.
         22    1    1    2    0    0 -0.12958778489E+02  0.76934077383E+01  0.85399106638E+02  0.86718659337E+02  0.00000000000E+00 0. -1.
          2    1    1    2  501    0 -0.20558021285E+02  0.59638182902E+02  0.56886544660E+03  0.57235237524E+03  0.25500000000E-02 0. -1.
<mgrwt>
<rscale>  0 0.79451388E+02</rscale>
<asrwt>0</asrwt>
<pdfrwt beam="1">  1       11 0.10000000E+01 0.75212530E+02</pdfrwt>
<pdfrwt beam="2">  1        2 0.10033981E-02 0.79451388E+02</pdfrwt>
<totfact> 0.14871495E+04</totfact>
</mgrwt>
</event>
<event>
 5    1  0.1851087E-003  0.1444894E+03  0.7818608E-02  0.1207413E+00
         11   -1    0    0    0    0  0.00000000000E+00  0.00000000000E+00  0.99999752924E+03  0.99999752924E+03  0.51100000000E-03 0.  1.
         -2   -1    0    0    0  501 -0.00000000000E+00 -0.00000000000E+00 -0.20641452918E+02  0.20641453076E+02  0.25500000000E-02 0. -1.
         11    1    1    2    0    0 -0.13004730062E+03  0.56541565197E+02  0.44162490391E+03  0.46383381156E+03  0.51100000000E-03 0.  1.
         22    1    1    2    0    0  0.97466947302E+01 -0.80137299198E+01  0.26167898519E+02  0.29051279460E+02  0.00000000000E+00 0. -1.
         -2    1    1    2    0  501  0.12030060589E+03 -0.48527835277E+02  0.51156327389E+03  0.52775389129E+03  0.25500000000E-02 0. -1.
<mgrwt>
<rscale>  0 0.14448939E+03</rscale>
<asrwt>0</asrwt>
<pdfrwt beam="1">  1       11 0.10000000E+01 0.14180715E+03</pdfrwt>
<pdfrwt beam="2">  1       -2 0.31756002E-02 0.14448939E+03</pdfrwt>
<totfact> 0.29191751E+03</totfact>
</mgrwt>
</event>
<event>
 5    1  0.1851087E-003  0.3346104E+02  0.7818608E-02  0.1703399E+00
         11   -1    0    0    0    0  0.00000000000E+00  0.00000000000E+00  0.10001969521E+04  0.10001969521E+04  0.51100000000E-03 0. -1.
          2   -1    0    0  501    0 -0.00000000000E+00 -0.00000000000E+00 -0.35411919893E+01  0.35411929074E+01  0.25500000000E-02 0. -1.
         11    1    1    2    0    0 -0.35003015073E+02  0.27410148074E+02  0.19786786588E+03  0.20280093597E+03  0.51100000000E-03 0. -1.
         22    1    1    2    0    0  0.61842211729E+01 -0.13489428825E+02  0.75666263593E+02  0.77107669707E+02  0.00000000000E+00 0.  1.
          2    1    1    2  501    0  0.28818793900E+02 -0.13920719249E+02  0.72312163068E+03  0.72382953937E+03  0.25500000000E-02 0. -1.
<mgrwt>
<rscale>  0 0.22283249E+02</rscale>
<asrwt>0</asrwt>
<pdfrwt beam="1">  1       11 0.10000000E+01 0.33461039E+02</pdfrwt>
<pdfrwt beam="2">  1        2 0.54490612E-03 0.22283249E+02</pdfrwt>
<totfact> 0.25834132E+04</totfact>
</mgrwt>
</event>
<event>
 5    1  0.1851087E-003  0.1092296E+03  0.7818608E-02  0.1545629E+00
         11   -1    0    0    0    0  0.00000000000E+00  0.00000000000E+00  0.10001394647E+04  0.10001394647E+04  0.51100000000E-03 0. -1.
          2   -1    0    0  501    0 -0.00000000000E+00 -0.00000000000E+00 -0.17041299479E+02  0.17041299669E+02  0.25500000000E-02 0. -1.
         11    1    1    2    0    0  0.99984042783E+02 -0.38717505087E+02  0.23885963317E+03  0.26182012598E+03  0.51100000000E-03 0. -1.
         22    1    1    2    0    0 -0.18781758642E+01 -0.11276549410E+02  0.22159621630E+02  0.24934653436E+02  0.00000000000E+00 0. -1.
          2    1    1    2  501    0 -0.98105866919E+02  0.49994054497E+02  0.72207891038E+03  0.73042598491E+03  0.25500000000E-02 0. -1.
<mgrwt>
<rscale>  0 0.35336953E+02</rscale>
<asrwt>0</asrwt>
<pdfrwt beam="1">  1       11 0.10000000E+01 0.10922961E+03</pdfrwt>
<pdfrwt beam="2">  1        2 0.26221040E-02 0.35336953E+02</pdfrwt>
<totfact> 0.36454699E+03</totfact>
</mgrwt>
</event>
<event>
 5    1  0.1851087E-003  0.2064833E+03  0.7818608E-02  0.1451946E+00
         11   -1    0    0    0    0  0.00000000000E+00  0.00000000000E+00  0.10008348079E+04  0.10008348079E+04  0.51100000000E-03 0. -1.
          2   -1    0    0  501    0 -0.00000000000E+00 -0.00000000000E+00 -0.70312936218E+02  0.70312936264E+02  0.25500000000E-02 0. -1.
         11    1    1    2    0    0  0.20745511205E+03  0.25128123404E+01  0.77294817071E+03  0.80030794845E+03  0.51100000000E-03 0. -1.
         22    1    1    2    0    0 -0.47231084803E+01  0.10519812630E+02 -0.29731016167E+01  0.11908549228E+02  0.00000000000E+00 0. -1.
          2    1    1    2  501    0 -0.20273200357E+03 -0.13032624971E+02  0.16054680261E+03  0.25893124651E+03  0.25500000000E-02 0. -1.
<mgrwt>
<rscale>  0 0.48796009E+02</rscale>
<asrwt>0</asrwt>
<pdfrwt beam="1">  1       11 0.10000000E+01 0.20648328E+03</pdfrwt>
<pdfrwt beam="2">  1        2 0.10826405E-01 0.48796009E+02</pdfrwt>
<totfact> 0.64765372E+02</totfact>
</mgrwt>
</event>
<event>
 5    1  0.1851087E-003  0.7376711E+02  0.7818608E-02  0.1347732E+00
         11   -1    0    0    0    0  0.00000000000E+00  0.00000000000E+00  0.10004811751E+04  0.10004811751E+04  0.51100000000E-03 0. -1.
         -2   -1    0    0    0  501 -0.00000000000E+00 -0.00000000000E+00 -0.60177949938E+01  0.60177955341E+01  0.25500000000E-02 0. -1.
         11    1    1    2    0    0  0.57315657305E+02 -0.35552924495E+02  0.27028811373E+03  0.27857630810E+03  0.51100000000E-03 0. -1.
         22    1    1    2    0    0 -0.19329730318E+02  0.26101523120E+01  0.11198139045E+03  0.11366742355E+03  0.00000000000E+00 0. -1.
         -2    1    1    2    0  501 -0.37985926987E+02  0.32942772183E+02  0.61219387594E+03  0.61425523900E+03  0.25500000000E-02 0. -1.
<mgrwt>
<rscale>  0 0.73767108E+02</rscale>
<asrwt>0</asrwt>
<pdfrwt beam="1">  1       11 0.10000000E+01 0.67447013E+02</pdfrwt>
<pdfrwt beam="2">  1       -2 0.92626011E-03 0.73767108E+02</pdfrwt>
<totfact> 0.15646976E+04</totfact>
</mgrwt>
</event>
<event>
 5    1  0.1851087E-003  0.8942219E+02  0.7818608E-02  0.1420996E+00
         11   -1    0    0    0    0  0.00000000000E+00  0.00000000000E+00  0.10002281941E+04  0.10002281941E+04  0.51100000000E-03 0.  1.
          2   -1    0    0  501    0 -0.00000000000E+00 -0.00000000000E+00 -0.13888773185E+02  0.13888773419E+02  0.25500000000E-02 0.  1.
         11    1    1    2    0    0  0.92093429704E+02 -0.54189680639E+02  0.38662806558E+03  0.40112215393E+03  0.51100000000E-03 0.  1.
         22    1    1    2    0    0 -0.12892028643E+02  0.31023829273E+02  0.79923798712E+02  0.86697727686E+02  0.00000000000E+00 0.  1.
          2    1    1    2  501    0 -0.79201401061E+02  0.23165851366E+02  0.51978755663E+03  0.52629708591E+03  0.25500000000E-02 0.  1.
<mgrwt>
<rscale>  0 0.54810715E+02</rscale>
<asrwt>0</asrwt>
<pdfrwt beam="1">  1       11 0.10000000E+01 0.89422187E+02</pdfrwt>
<pdfrwt beam="2">  1        2 0.21372219E-02 0.54810715E+02</pdfrwt>
<totfact> 0.50804841E+03</totfact>
</mgrwt>
</event>
<event>
 5    1  0.1851087E-003  0.1037327E+03  0.7818608E-02  0.1272637E+00
         11   -1    0    0    0    0  0.00000000000E+00  0.00000000000E+00  0.10004116176E+04  0.10004116176E+04  0.51100000000E-03 0. -1.
          2   -1    0    0  501    0 -0.00000000000E+00 -0.00000000000E+00 -0.10862099884E+02  0.10862100183E+02  0.25500000000E-02 0. -1.
         11    1    1    2    0    0  0.98128695343E+02  0.18219670611E+02  0.59515429822E+03  0.60346485891E+03  0.51100000000E-03 0. -1.
         22    1    1    2    0    0 -0.14500443997E+02 -0.20783449235E+01  0.27508672448E+02  0.31165837926E+02  0.00000000000E+00 0.  1.
          2    1    1    2  501    0 -0.83628251345E+02 -0.16141325687E+02  0.36688654700E+03  0.37664302090E+03  0.25500000000E-02 0. -1.
<mgrwt>
<rscale>  0 0.10373272E+03</rscale>
<asrwt>0</asrwt>
<pdfrwt beam="1">  1       11 0.10000000E+01 0.99805798E+02</pdfrwt>
<pdfrwt beam="2">  1        2 0.16717801E-02 0.10373272E+03</pdfrwt>
<totfact> 0.77152143E+03</totfact>
</mgrwt>
</event>
<event>
 5    1  0.1851087E-003  0.1861949E+03  0.7818608E-02  0.1161939E+00
         11   -1    0    0    0    0  0.00000000000E+00  0.00000000000E+00  0.99995607126E+03  0.99995607126E+03  0.51100000000E-03 0. -1.
         -2   -1    0    0    0  501 -0.00000000000E+00 -0.00000000000E+00 -0.96546527436E+02  0.96546527470E+02  0.25500000000E-02 0.  1.
         11    1    1    2    0    0 -0.66844571028E+02 -0.16698801970E+03  0.89200434875E+03  0.90995876478E+03  0.51100000000E-03 0. -1.
         22    1    1    2    0    0 -0.37878002435E+01  0.25664683853E+02 -0.85090727965E+01  0.27302522737E+02  0.00000000000E+00 0.  1.
         -2    1    1    2    0  501  0.70632371272E+02  0.14132333585E+03  0.19914267871E+02  0.15924131122E+03  0.25500000000E-02 0.  1.
<mgrwt>
<rscale>  0 0.18619485E+03</rscale>
<asrwt>0</asrwt>
<pdfrwt beam="1">  1       11 0.10000000E+01 0.17986994E+03</pdfrwt>
<pdfrwt beam="2">  1       -2 0.14852659E-01 0.18619485E+03</pdfrwt>
<totfact> 0.27478659E+02</totfact>
</mgrwt>
</event>
<event>
 5    1  0.1851087E-003  0.1594749E+03  0.7818608E-02  0.1189291E+00
         11   -1    0    0    0    0  0.00000000000E+00  0.00000000000E+00  0.10001279225E+04  0.10001279225E+04  0.51100000000E-03 0. -1.
          2   -1    0    0  501    0 -0.00000000000E+00 -0.00000000000E+00 -0.46433223796E+02  0.46433223866E+02  0.25500000000E-02 0.  1.
         11    1    1    2    0    0  0.12822453297E+03  0.85990094109E+02  0.83134562539E+03  0.84555980036E+03  0.51100000000E-03 0. -1.
         22    1    1    2    0    0 -0.14185287222E+02 -0.25880132708E+02  0.32303118230E+02  0.43754943606E+02  0.00000000000E+00 0. -1.
          2    1    1    2  501    0 -0.11403924575E+03 -0.60109961401E+02  0.90045955067E+02  0.15724640238E+03  0.25500000000E-02 0.  1.
<mgrwt>
<rscale>  0 0.15947491E+03</rscale>
<asrwt>0</asrwt>
<pdfrwt beam="1">  1       11 0.10000000E+01 0.15438856E+03</pdfrwt>
<pdfrwt beam="2">  1        2 0.71444865E-02 0.15947491E+03</pdfrwt>
<totfact> 0.11700574E+03</totfact>
</mgrwt>
</event>
<event>
 5    1  0.1851087E-003  0.1609711E+03  0.7818608E-02  0.1187605E+00
         11   -1    0    0    0    0  0.00000000000E+00  0.00000000000E+00  0.10003396790E+04  0.10003396790E+04  0.51100000000E-03 0. -1.
          2   -1    0    0  501    0 -0.00000000000E+00 -0.00000000000E+00 -0.15064835047E+03  0.15064835049E+03  0.25500000000E-02 0. -1.
         11    1    1    2    0    0  0.44049818042E+02  0.15209192118E+03  0.94882059561E+03  0.96194223403E+03  0.51100000000E-03 0. -1.
         22    1    1    2    0    0 -0.85869938904E+00 -0.22726756209E+02 -0.25075919194E+02  0.33853279543E+02  0.00000000000E+00 0.  1.
          2    1    1    2  501    0 -0.43191118653E+02 -0.12936516497E+03 -0.74053347923E+02  0.15519251587E+03  0.25500000000E-02 0. -1.
<mgrwt>
<rscale>  0 0.16097112E+03</rscale>
<asrwt>0</asrwt>
<pdfrwt beam="1">  1       11 0.10000000E+01 0.15834247E+03</pdfrwt>
<pdfrwt beam="2">  1        2 0.23184541E-01 0.16097112E+03</pdfrwt>
<totfact> 0.28601188E+02</totfact>
</mgrwt>
</event>
<event>
 5    1  0.1851087E-003  0.1581615E+03  0.7818608E-02  0.1267215E+00
         11   -1    0    0    0    0  0.00000000000E+00  0.00000000000E+00  0.10002608065E+04  0.10002608065E+04  0.51100000000E-03 0. -1.
          2   -1    0    0  501    0 -0.00000000000E+00 -0.00000000000E+00 -0.25931846562E+03  0.25931846563E+03  0.25500000000E-02 0. -1.
         11    1    1    2    0    0 -0.80562325880E+02 -0.13854886046E+03  0.95748188933E+03  0.97080257699E+03  0.51100000000E-03 0. -1.
         22    1    1    2    0    0 -0.16893917331E+02  0.69678522380E+02 -0.83505468968E+02  0.11006209280E+03  0.00000000000E+00 0.  1.
          2    1    1    2  501    0  0.97456243211E+02  0.68870338084E+02 -0.13303407944E+03  0.17871460239E+03  0.25500000000E-02 0. -1.
<mgrwt>
<rscale>  0 0.10648826E+03</rscale>
<asrwt>0</asrwt>
<pdfrwt beam="1">  1       11 0.10000000E+01 0.15816149E+03</pdfrwt>
<pdfrwt beam="2">  1        2 0.39905552E-01 0.10648826E+03</pdfrwt>
<totfact> 0.15761685E+02</totfact>
</mgrwt>
</event>
<event>
 5    1  0.1851087E-003  0.1654215E+03  0.7818608E-02  0.1182708E+00
         11   -1    0    0    0    0  0.00000000000E+00  0.00000000000E+00  0.10001029900E+04  0.10001029900E+04  0.51100000000E-03 0. -1.
          2   -1    0    0  501    0 -0.00000000000E+00 -0.00000000000E+00 -0.26127875250E+02  0.26127875375E+02  0.25500000000E-02 0. -1.
         11    1    1    2    0    0 -0.13140849685E+03 -0.87203135584E+02  0.45888556601E+03  0.48523040156E+03  0.51100000000E-03 0. -1.
         22    1    1    2    0    0  0.57077573879E+01  0.23107244899E+02  0.90619536628E+02  0.93693242445E+02  0.00000000000E+00 0.  1.
          2    1    1    2  501    0  0.12570073947E+03  0.64095890684E+02  0.42447001211E+03  0.44730722138E+03  0.25500000000E-02 0. -1.
<mgrwt>
<rscale>  0 0.16542146E+03</rscale>
<asrwt>0</asrwt>
<pdfrwt beam="1">  1       11 0.10000000E+01 0.15771051E+03</pdfrwt>
<pdfrwt beam="2">  1        2 0.40200870E-02 0.16542146E+03</pdfrwt>
<totfact> 0.24844493E+03</totfact>
</mgrwt>
</event>
<event>
 5    1  0.1851087E-003  0.5908358E+03  0.7818608E-02  0.1069518E+00
         11   -1    0    0    0    0  0.00000000000E+00  0.00000000000E+00  0.99984217186E+03  0.99984217186E+03  0.51100000000E-03 0.  1.
          2   -1    0    0  501    0 -0.00000000000E+00 -0.00000000000E+00 -0.14408860421E+04  0.14408860421E+04  0.25500000000E-02 0.  1.
         11    1    1    2    0    0 -0.19934929329E+02  0.57830195858E+03  0.67036912702E+03  0.88556497399E+03  0.51100000000E-03 0.  1.
         22    1    1    2    0    0 -0.29349301018E+03 -0.69279152387E+03 -0.72899644940E+03  0.10476326006E+04  0.00000000000E+00 0.  1.
          2    1    1    2  501    0  0.31342793951E+03  0.11448956529E+03 -0.38241654786E+03  0.50753063938E+03  0.25500000000E-02 0.  1.
<mgrwt>
<rscale>  0 0.33368388E+03</rscale>
<asrwt>0</asrwt>
<pdfrwt beam="1">  1       11 0.10000000E+01 0.59083583E+03</pdfrwt>
<pdfrwt beam="2">  1        2 0.22163978E+00 0.33368388E+03</pdfrwt>
<totfact> 0.18145958E+01</totfact>
</mgrwt>
</event>
<event>
 5    1  0.1851087E-003  0.2528289E+03  0.7818608E-02  0.1111530E+00
         11   -1    0    0    0    0  0.00000000000E+00  0.00000000000E+00  0.10004572876E+04  0.10004572876E+04  0.51100000000E-03 0.  1.
          2   -1    0    0  501    0 -0.00000000000E+00 -0.00000000000E+00 -0.28111240719E+03  0.28111240720E+03  0.25500000000E-02 0.  1.
         11    1    1    2    0    0 -0.14411597071E+03  0.19951634865E+03  0.92404601753E+03  0.95626211307E+03  0.51100000000E-03 0.  1.
         22    1    1    2    0    0  0.25632000722E+02 -0.25054067502E+02 -0.75826523936E+01  0.36636080259E+02  0.00000000000E+00 0.  1.
          2    1    1    2  501    0  0.11848396999E+03 -0.17446228115E+03 -0.19711848477E+03  0.28867150142E+03  0.25500000000E-02 0.  1.
<mgrwt>
<rscale>  0 0.25282893E+03</rscale>
<asrwt>0</asrwt>
<pdfrwt beam="1">  1       11 0.10000000E+01 0.24612230E+03</pdfrwt>
<pdfrwt beam="2">  1        2 0.43267838E-01 0.25282893E+03</pdfrwt>
<totfact> 0.14549875E+02</totfact>
</mgrwt>
</event>
<event>
 5    1  0.1851087E-003  0.1492370E+03  0.7818608E-02  0.1214071E+00
         11   -1    0    0    0    0  0.00000000000E+00  0.00000000000E+00  0.10003455261E+04  0.10003455261E+04  0.51100000000E-03 0.  1.
          2   -1    0    0  501    0 -0.00000000000E+00 -0.00000000000E+00 -0.38709625767E+03  0.38709625768E+03  0.25500000000E-02 0.  1.
         11    1    1    2    0    0  0.66447937022E+02 -0.13365148090E+03  0.86900454610E+03  0.88172952079E+03  0.51100000000E-03 0.  1.
         22    1    1    2    0    0  0.59454328660E+02  0.19360905031E+03 -0.29772579832E+03  0.36008323003E+03  0.00000000000E+00 0.  1.
          2    1    1    2  501    0 -0.12590226568E+03 -0.59957569415E+02  0.41970520656E+02  0.14562903297E+03  0.25500000000E-02 0.  1.
<mgrwt>
<rscale>  0 0.13944996E+03</rscale>
<asrwt>0</asrwt>
<pdfrwt beam="1">  1       11 0.10000000E+01 0.14923703E+03</pdfrwt>
<pdfrwt beam="2">  1        2 0.59573846E-01 0.13944996E+03</pdfrwt>
<totfact> 0.10326645E+02</totfact>
</mgrwt>
</event>
<event>
 5    1  0.1851087E-003  0.1354273E+03  0.7818608E-02  0.1219618E+00
         11   -1    0    0    0    0  0.00000000000E+00  0.00000000000E+00  0.10003425175E+04  0.10003425175E+04  0.51100000000E-03 0.  1.
          2   -1    0    0  501    0 -0.00000000000E+00 -0.00000000000E+00 -0.18418639849E+02  0.18418640026E+02  0.25500000000E-02 0.  1.
         11    1    1    2    0    0  0.97094375232E+02 -0.90907571373E+02  0.56265618256E+03  0.57816389026E+03  0.51100000000E-03 0.  1.
         22    1    1    2    0    0 -0.13734310007E+02  0.27935927836E+01  0.38176359271E+02  0.40667798554E+02  0.00000000000E+00 0.  1.
          2    1    1    2  501    0 -0.83360065226E+02  0.88113978589E+02  0.38109133586E+03  0.39992946874E+03  0.25500000000E-02 0.  1.
<mgrwt>
<rscale>  0 0.13542729E+03</rscale>
<asrwt>0</asrwt>
<pdfrwt beam="1">  1       11 0.10000000E+01 0.13300941E+03</pdfrwt>
<pdfrwt beam="2">  1        2 0.28346074E-02 0.13542729E+03</pdfrwt>
<totfact> 0.38931523E+03</totfact>
</mgrwt>
</event>
<event>
 5    1  0.1851087E-003  0.1658536E+03  0.7818608E-02  0.1182242E+00
         11   -1    0    0    0    0  0.00000000000E+00  0.00000000000E+00  0.10002107833E+04  0.10002107833E+04  0.51100000000E-03 0. -1.
          2   -1    0    0  501    0 -0.00000000000E+00 -0.00000000000E+00 -0.23076842621E+03  0.23076842623E+03  0.25500000000E-02 0.  1.
         11    1    1    2    0    0  0.15230243528E+03 -0.62539756299E+02  0.96248997720E+03  0.97647028072E+03  0.51100000000E-03 0. -1.
         22    1    1    2    0    0 -0.15587011884E+02  0.20022764084E+01 -0.12449774101E+02  0.20048963202E+02  0.00000000000E+00 0.  1.
          2    1    1    2  501    0 -0.13671542340E+03  0.60537479891E+02 -0.18059784603E+03  0.23445996559E+03  0.25500000000E-02 0.  1.
<mgrwt>
<rscale>  0 0.16585358E+03</rscale>
<asrwt>0</asrwt>
<pdfrwt beam="1">  1       11 0.10000000E+01 0.16464280E+03</pdfrwt>
<pdfrwt beam="2">  1        2 0.35510317E-01 0.16585358E+03</pdfrwt>
<totfact> 0.17943593E+02</totfact>
</mgrwt>
</event>
<event>
 5    1  0.1851087E-003  0.1537629E+03  0.7818608E-02  0.1468415E+00
         11   -1    0    0    0    0  0.00000000000E+00  0.00000000000E+00  0.99999303465E+03  0.99999303465E+03  0.51100000000E-03 0. -1.
          2   -1    0    0  501    0 -0.00000000000E+00 -0.00000000000E+00 -0.26154800907E+02  0.26154801031E+02  0.25500000000E-02 0. -1.
         11    1    1    2    0    0  0.99039507461E+02  0.12025017758E+03  0.53249274154E+03  0.55481298564E+03  0.51100000000E-03 0. -1.
         22    1    1    2    0    0 -0.12964380031E+02  0.45498304699E+01  0.32436170427E+02  0.35226144536E+02  0.00000000000E+00 0.  1.
          2    1    1    2  501    0 -0.86075127430E+02 -0.12480000805E+03  0.40890932178E+03  0.43610870551E+03  0.25500000000E-02 0. -1.
<mgrwt>
<rscale>  0 0.45963435E+02</rscale>
<asrwt>0</asrwt>
<pdfrwt beam="1">  1       11 0.10000000E+01 0.15376286E+03</pdfrwt>
<pdfrwt beam="2">  1        2 0.40237874E-02 0.45963435E+02</pdfrwt>
<totfact> 0.21783269E+03</totfact>
</mgrwt>
</event>
<event>
 5    1  0.1851087E-003  0.3163606E+03  0.7818608E-02  0.1077337E+00
         11   -1    0    0    0    0  0.00000000000E+00  0.00000000000E+00  0.10003350234E+04  0.10003350234E+04  0.51100000000E-03 0. -1.
          2   -1    0    0  501    0 -0.00000000000E+00 -0.00000000000E+00 -0.27708810507E+03  0.27708810509E+03  0.25500000000E-02 0. -1.
         11    1    1    2    0    0  0.29505687769E+03  0.59109387528E+02  0.87590621956E+03  0.92615559505E+03  0.51100000000E-03 0. -1.
         22    1    1    2    0    0 -0.10279968863E+03  0.15986276626E+01 -0.98785662894E+02  0.14257958755E+03  0.00000000000E+00 0. -1.
          2    1    1    2  501    0 -0.19225718906E+03 -0.60708015190E+02 -0.53873638325E+02  0.20868794590E+03  0.25500000000E-02 0. -1.
<mgrwt>
<rscale>  0 0.31636058E+03</rscale>
<asrwt>0</asrwt>
<pdfrwt beam="1">  1       11 0.10000000E+01 0.30091939E+03</pdfrwt>
<pdfrwt beam="2">  1        2 0.42643220E-01 0.31636058E+03</pdfrwt>
<totfact> 0.14792559E+02</totfact>
</mgrwt>
</event>
<event>
 5    1  0.1851087E-003  0.2024274E+03  0.7818608E-02  0.1147707E+00
         11   -1    0    0    0    0  0.00000000000E+00  0.00000000000E+00  0.10004801656E+04  0.10004801656E+04  0.51100000000E-03 0. -1.
         -2   -1    0    0    0  501 -0.00000000000E+00 -0.00000000000E+00 -0.36229834322E+03  0.36229834323E+03  0.25500000000E-02 0.  1.
         11    1    1    2    0    0 -0.18801449123E+03 -0.90906173880E+01  0.96235643249E+03  0.98059267353E+03  0.51100000000E-03 0. -1.
         22    1    1    2    0    0  0.11864325870E+03 -0.20102978907E+02 -0.24494045601E+03  0.27290324217E+03  0.00000000000E+00 0.  1.
         -2    1    1    2    0  501  0.69371232532E+02  0.29193596295E+02 -0.79234154120E+02  0.10928259309E+03  0.25500000000E-02 0.  1.
<mgrwt>
<rscale>  0 0.20242736E+03</rscale>
<asrwt>0</asrwt>
<pdfrwt beam="1">  1       11 0.10000000E+01 0.18823413E+03</pdfrwt>
<pdfrwt beam="2">  1       -2 0.55764969E-01 0.20242736E+03</pdfrwt>
<totfact> 0.24997043E+01</totfact>
</mgrwt>
</event>
<event>
 5    1  0.1851087E-003  0.3831186E+03  0.7818608E-02  0.1347240E+00
         11   -1    0    0    0    0  0.00000000000E+00  0.00000000000E+00  0.10001088220E+04  0.10001088220E+04  0.51100000000E-03 0.  1.
          2   -1    0    0  501    0 -0.00000000000E+00 -0.00000000000E+00 -0.64594842197E+03  0.64594842198E+03  0.25500000000E-02 0.  1.
         11    1    1    2    0    0 -0.32469054080E+03  0.20249910855E+03  0.89295222310E+03  0.97149035455E+03  0.51100000000E-03 0.  1.
         22    1    1    2    0    0  0.51126011099E+00  0.14254258144E+02 -0.32568589675E+02  0.35555003805E+02  0.00000000000E+00 0. -1.
          2    1    1    2  501    0  0.32417928068E+03 -0.21675336670E+03 -0.50622323336E+03  0.63901188565E+03  0.25500000000E-02 0.  1.
<mgrwt>
<rscale>  0 0.73922817E+02</rscale>
<asrwt>0</asrwt>
<pdfrwt beam="1">  1       11 0.10000000E+01 0.38311860E+03</pdfrwt>
<pdfrwt beam="2">  1        2 0.99387492E-01 0.73922817E+02</pdfrwt>
<totfact> 0.59669333E+01</totfact>
</mgrwt>
</event>
<event>
 5    1  0.1851087E-003  0.1317198E+03  0.7818608E-02  0.1692164E+00
         11   -1    0    0    0    0  0.00000000000E+00  0.00000000000E+00  0.10003105442E+04  0.10003105442E+04  0.51100000000E-03 0.  1.
          2   -1    0    0  501    0 -0.00000000000E+00 -0.00000000000E+00 -0.20852214961E+02  0.20852215117E+02  0.25500000000E-02 0.  1.
         11    1    1    2    0    0  0.72770198215E+02  0.11128336718E+03  0.40478670522E+03  0.42606544836E+03  0.51100000000E-03 0.  1.
         22    1    1    2    0    0 -0.89954659344E+02 -0.96057002072E+02  0.49212892462E+03  0.50942091322E+03  0.00000000000E+00 0.  1.
          2    1    1    2  501    0  0.17184461128E+02 -0.15226365105E+02  0.82542699419E+02  0.85676397756E+02  0.25500000000E-02 0.  1.
<mgrwt>
<rscale>  0 0.22959702E+02</rscale>
<asrwt>0</asrwt>
<pdfrwt beam="1">  1       11 0.10000000E+01 0.13171985E+03</pdfrwt>
<pdfrwt beam="2">  1        2 0.32090292E-02 0.22959702E+02</pdfrwt>
<totfact> 0.26363171E+03</totfact>
</mgrwt>
</event>
<event>
 5    1  0.1851087E-003  0.1319229E+03  0.7818608E-02  0.1224630E+00
         11   -1    0    0    0    0  0.00000000000E+00  0.00000000000E+00  0.10001902752E+04  0.10001902752E+04  0.51100000000E-03 0. -1.
          2   -1    0    0  501    0 -0.00000000000E+00 -0.00000000000E+00 -0.17058750151E+02  0.17058750341E+02  0.25500000000E-02 0. -1.
         11    1    1    2    0    0 -0.32220571174E+01 -0.11937200828E+03  0.60748968991E+03  0.61911532154E+03  0.51100000000E-03 0. -1.
         22    1    1    2    0    0 -0.26140538756E+02  0.57415479738E+02  0.16721528927E+03  0.17871994305E+03  0.00000000000E+00 0. -1.
          2    1    1    2  501    0  0.29362595873E+02  0.61956528540E+02  0.20842654588E+03  0.21941376096E+03  0.25500000000E-02 0. -1.
<mgrwt>
<rscale>  0 0.13192292E+03</rscale>
<asrwt>0</asrwt>
<pdfrwt beam="1">  1       11 0.10000000E+01 0.11941548E+03</pdfrwt>
<pdfrwt beam="2">  1        2 0.26249224E-02 0.13192292E+03</pdfrwt>
<totfact> 0.43065088E+03</totfact>
</mgrwt>
</event>
<event>
 5    1  0.1851087E-003  0.9779009E+02  0.7818608E-02  0.1287778E+00
         11   -1    0    0    0    0  0.00000000000E+00  0.00000000000E+00  0.10003840572E+04  0.10003840572E+04  0.51100000000E-03 0. -1.
          2   -1    0    0  501    0 -0.00000000000E+00 -0.00000000000E+00 -0.28545794055E+02  0.28545794169E+02  0.25500000000E-02 0. -1.
         11    1    1    2    0    0 -0.44507579369E+02 -0.96476793625E+02  0.54263846536E+03  0.55294231201E+03  0.51100000000E-03 0. -1.
         22    1    1    2    0    0  0.10660298384E+03  0.22576741924E+02  0.21467228993E+03  0.24074488053E+03  0.00000000000E+00 0. -1.
          2    1    1    2  501    0 -0.62095404467E+02  0.73900051701E+02  0.21452750789E+03  0.23524265886E+03  0.25500000000E-02 0. -1.
<mgrwt>
<rscale>  0 0.96524903E+02</rscale>
<asrwt>0</asrwt>
<pdfrwt beam="1">  1       11 0.10000000E+01 0.97790090E+02</pdfrwt>
<pdfrwt beam="2">  1        2 0.43933472E-02 0.96524903E+02</pdfrwt>
<totfact> 0.21050004E+03</totfact>
</mgrwt>
</event>
<event>
 5    1  0.1851087E-003  0.1429937E+03  0.7818608E-02  0.1209357E+00
         11   -1    0    0    0    0  0.00000000000E+00  0.00000000000E+00  0.99992163084E+03  0.99992163084E+03  0.51100000000E-03 0. -1.
         -2   -1    0    0    0  501 -0.00000000000E+00 -0.00000000000E+00 -0.33895648457E+02  0.33895648553E+02  0.25500000000E-02 0.  1.
         11    1    1    2    0    0  0.12617715033E+03 -0.49442933186E+02  0.81363243055E+03  0.82484120226E+03  0.51100000000E-03 0. -1.
         22    1    1    2    0    0 -0.16802429350E+02 -0.89179254180E+01  0.20419183013E+02  0.27906881960E+02  0.00000000000E+00 0. -1.
         -2    1    1    2    0  501 -0.10937472099E+03  0.58360858604E+02  0.13197436882E+03  0.18106919517E+03  0.25500000000E-02 0.  1.
<mgrwt>
<rscale>  0 0.14299373E+03</rscale>
<asrwt>0</asrwt>
<pdfrwt beam="1">  1       11 0.10000000E+01 0.13551855E+03</pdfrwt>
<pdfrwt beam="2">  1       -2 0.52143063E-02 0.14299373E+03</pdfrwt>
<totfact> 0.13930761E+03</totfact>
</mgrwt>
</event>
<event>
 5    1  0.1851087E-003  0.9135335E+02  0.7818608E-02  0.1299607E+00
         11   -1    0    0    0    0  0.00000000000E+00  0.00000000000E+00  0.10006821087E+04  0.10006821087E+04  0.51100000000E-03 0.  1.
          2   -1    0    0  501    0 -0.00000000000E+00 -0.00000000000E+00 -0.84109848523E+01  0.84109852389E+01  0.25500000000E-02 0.  1.
         11    1    1    2    0    0  0.34449660844E+02 -0.79978204074E+02  0.36737871963E+03  0.37755849335E+03  0.51100000000E-03 0.  1.
         22    1    1    2    0    0 -0.11200132250E+02  0.27289803964E+02  0.13012169121E+03  0.13342350200E+03  0.00000000000E+00 0.  1.
          2    1    1    2  501    0 -0.23249528594E+02  0.52688400110E+02  0.49477071302E+03  0.49811109861E+03  0.25500000000E-02 0.  1.
<mgrwt>
<rscale>  0 0.91353352E+02</rscale>
<asrwt>0</asrwt>
<pdfrwt beam="1">  1       11 0.10000000E+01 0.87082144E+02</pdfrwt>
<pdfrwt beam="2">  1        2 0.12948803E-02 0.91353352E+02</pdfrwt>
<totfact> 0.10734446E+04</totfact>
</mgrwt>
</event>
<event>
 5    1  0.1851087E-003  0.2676810E+03  0.7818608E-02  0.1102614E+00
         11   -1    0    0    0    0  0.00000000000E+00  0.00000000000E+00  0.10005381177E+04  0.10005381177E+04  0.51100000000E-03 0. -1.
          2   -1    0    0  501    0 -0.00000000000E+00 -0.00000000000E+00 -0.72492316930E+02  0.72492316975E+02  0.25500000000E-02 0. -1.
         11    1    1    2    0    0  0.13236434688E+03 -0.23130105471E+03  0.53187269647E+03  0.59490256638E+03  0.51100000000E-03 0. -1.
         22    1    1    2    0    0 -0.11069512429E+02  0.99316350364E+01  0.16626708353E+02  0.22307373458E+02  0.00000000000E+00 0.  1.
          2    1    1    2  501    0 -0.12129483445E+03  0.22136941968E+03  0.37954639597E+03  0.45582049485E+03  0.25500000000E-02 0. -1.
<mgrwt>
<rscale>  0 0.26768102E+03</rscale>
<asrwt>0</asrwt>
<pdfrwt beam="1">  1       11 0.10000000E+01 0.26649671E+03</pdfrwt>
<pdfrwt beam="2">  1        2 0.11158665E-01 0.26768102E+03</pdfrwt>
<totfact> 0.68761376E+02</totfact>
</mgrwt>
</event>
<event>
 5    1  0.1851087E-003  0.1944417E+03  0.7818608E-02  0.1519032E+00
         11   -1    0    0    0    0  0.00000000000E+00  0.00000000000E+00  0.10000974320E+04  0.10000974320E+04  0.51100000000E-03 0. -1.
         -2   -1    0    0    0  501 -0.00000000000E+00 -0.00000000000E+00 -0.34347308564E+03  0.34347308565E+03  0.25500000000E-02 0. -1.
         11    1    1    2    0    0  0.13176464525E+03  0.14447417823E+03  0.94593308580E+03  0.96593173295E+03  0.51100000000E-03 0. -1.
         22    1    1    2    0    0 -0.97211557974E+02 -0.12734300214E+03 -0.29779073931E+03  0.33815033878E+03  0.00000000000E+00 0. -1.
         -2    1    1    2    0  501 -0.34553087273E+02 -0.17131176087E+02  0.84819998881E+01  0.39488445941E+02  0.25500000000E-02 0. -1.
<mgrwt>
<rscale>  0 0.38566735E+02</rscale>
<asrwt>0</asrwt>
<pdfrwt beam="1">  1       11 0.10000000E+01 0.19444174E+03</pdfrwt>
<pdfrwt beam="2">  1       -2 0.52847160E-01 0.38566735E+02</pdfrwt>
<totfact> 0.27858456E+01</totfact>
</mgrwt>
</event>
<event>
 5    1  0.1851087E-003  0.1726237E+03  0.7818608E-02  0.1302594E+00
         11   -1    0    0    0    0  0.00000000000E+00  0.00000000000E+00  0.10003122105E+04  0.10003122105E+04  0.51100000000E-03 0. -1.
          2   -1    0    0  501    0 -0.00000000000E+00 -0.00000000000E+00 -0.17733234304E+03  0.17733234306E+03  0.25500000000E-02 0. -1.
         11    1    1    2    0    0 -0.17712975686E+03 -0.58194868572E+01  0.92982300022E+03  0.94656200480E+03  0.51100000000E-03 0. -1.
         22    1    1    2    0    0  0.46286344269E+02  0.83538834403E+01 -0.86751218508E+02  0.98681239083E+02  0.00000000000E+00 0. -1.
          2    1    1    2  501    0  0.13084341259E+03 -0.25343965831E+01 -0.20091914237E+02  0.13240130969E+03  0.25500000000E-02 0. -1.
<mgrwt>
<rscale>  0 0.90106681E+02</rscale>
<asrwt>0</asrwt>
<pdfrwt beam="1">  1       11 0.10000000E+01 0.17262374E+03</pdfrwt>
<pdfrwt beam="2">  1        2 0.27290416E-01 0.90106681E+02</pdfrwt>
<totfact> 0.23549233E+02</totfact>
</mgrwt>
</event>
<event>
 5    1  0.1851087E-003  0.1142165E+03  0.7818608E-02  0.1386556E+00
         11   -1    0    0    0    0  0.00000000000E+00  0.00000000000E+00  0.10002945765E+04  0.10002945765E+04  0.51100000000E-03 0. -1.
          2   -1    0    0  501    0 -0.00000000000E+00 -0.00000000000E+00 -0.21664186461E+02  0.21664186612E+02  0.25500000000E-02 0. -1.
         11    1    1    2    0    0 -0.12383005308E+03 -0.43868235851E+02  0.30073834935E+03  0.32817961383E+03  0.51100000000E-03 0. -1.
         22    1    1    2    0    0  0.31660164845E+02 -0.13702206157E+02  0.10068309286E+03  0.10642932716E+03  0.00000000000E+00 0. -1.
          2    1    1    2  501    0  0.92169888234E+02  0.57570442008E+02  0.57720894779E+03  0.58734982208E+03  0.25500000000E-02 0. -1.
<mgrwt>
<rscale>  0 0.62771372E+02</rscale>
<asrwt>0</asrwt>
<pdfrwt beam="1">  1       11 0.10000000E+01 0.11421647E+03</pdfrwt>
<pdfrwt beam="2">  1        2 0.33339335E-02 0.62771372E+02</pdfrwt>
<totfact> 0.28823354E+03</totfact>
</mgrwt>
</event>
<event>
 5    1  0.1851087E-003  0.7994578E+02  0.7818608E-02  0.1329205E+00
         11   -1    0    0    0    0  0.00000000000E+00  0.00000000000E+00  0.10001884606E+04  0.10001884606E+04  0.51100000000E-03 0. -1.
          2   -1    0    0  501    0 -0.00000000000E+00 -0.00000000000E+00 -0.11135230993E+02  0.11135231285E+02  0.25500000000E-02 0. -1.
         11    1    1    2    0    0 -0.20535245080E+02 -0.35279584689E+02  0.12855083400E+03  0.13487647055E+03  0.51100000000E-03 0. -1.
         22    1    1    2    0    0 -0.28953863927E+02  0.88868177565E+02  0.48775972606E+03  0.49663410030E+03  0.00000000000E+00 0. -1.
          2    1    1    2  501    0  0.49489109007E+02 -0.53588592876E+02  0.37274266956E+03  0.37981312104E+03  0.25500000000E-02 0. -1.
<mgrwt>
<rscale>  0 0.79945778E+02</rscale>
<asrwt>0</asrwt>
<pdfrwt beam="1">  1       11 0.10000000E+01 0.40820914E+02</pdfrwt>
<pdfrwt beam="2">  1        2 0.17134353E-02 0.79945778E+02</pdfrwt>
<totfact> 0.72017318E+03</totfact>
</mgrwt>
</event>
<event>
 5    1  0.1851087E-003  0.2127641E+03  0.7818608E-02  0.1139396E+00
         11   -1    0    0    0    0  0.00000000000E+00  0.00000000000E+00  0.99982166734E+03  0.99982166734E+03  0.51100000000E-03 0.  1.
          2   -1    0    0  501    0 -0.00000000000E+00 -0.00000000000E+00 -0.17439182842E+03  0.17439182844E+03  0.25500000000E-02 0.  1.
         11    1    1    2    0    0 -0.74517001307E+02 -0.18579077578E+03  0.91989353164E+03  0.94142185305E+03  0.51100000000E-03 0.  1.
         22    1    1    2    0    0  0.58923135892E+02  0.65714828692E+02 -0.60589919785E+02  0.10705845615E+03  0.00000000000E+00 0.  1.
          2    1    1    2  501    0  0.15593865415E+02  0.12007594709E+03 -0.33873772934E+02  0.12573318657E+03  0.25500000000E-02 0.  1.
<mgrwt>
<rscale>  0 0.21276409E+03</rscale>
<asrwt>0</asrwt>
<pdfrwt beam="1">  1       11 0.10000000E+01 0.20017741E+03</pdfrwt>
<pdfrwt beam="2">  1        2 0.26824727E-01 0.21276409E+03</pdfrwt>
<totfact> 0.24468754E+02</totfact>
</mgrwt>
</event>
<event>
 5    1  0.1851087E-003  0.7290589E+02  0.7818608E-02  0.1350481E+00
         11   -1    0    0    0    0  0.00000000000E+00  0.00000000000E+00  0.10002737911E+04  0.10002737911E+04  0.51100000000E-03 0.  1.
          2   -1    0    0  501    0 -0.00000000000E+00 -0.00000000000E+00 -0.25270310750E+03  0.25270310751E+03  0.25500000000E-02 0.  1.
         11    1    1    2    0    0 -0.72047495266E+02  0.11457717002E+02 -0.24530415299E+03  0.25592234824E+03  0.51100000000E-03 0.  1.
         22    1    1    2    0    0  0.60952287835E+01 -0.14337658326E+02  0.65269104377E+02  0.67102729053E+02  0.00000000000E+00 0.  1.
          2    1    1    2  501    0  0.65952266483E+02  0.28799413240E+01  0.92760573221E+03  0.92995182131E+03  0.25500000000E-02 0.  1.
<mgrwt>
<rscale>  0 0.72905894E+02</rscale>
<asrwt>0</asrwt>
<pdfrwt beam="1">  1       11 0.10000000E+01 0.15579482E+02</pdfrwt>
<pdfrwt beam="2">  1        2 0.38888044E-01 0.72905894E+02</pdfrwt>
<totfact> 0.16113251E+02</totfact>
</mgrwt>
</event>
<event>
 5    1  0.1851087E-003  0.2447639E+03  0.7818608E-02  0.1149392E+00
         11   -1    0    0    0    0  0.00000000000E+00  0.00000000000E+00  0.10003436983E+04  0.10003436983E+04  0.51100000000E-03 0.  1.
          2   -1    0    0  501    0 -0.00000000000E+00 -0.00000000000E+00 -0.13524364666E+03  0.13524364669E+03  0.25500000000E-02 0.  1.
         11    1    1    2    0    0 -0.27748053633E+03 -0.17334940512E+03  0.54233909161E+03  0.63338547078E+03  0.51100000000E-03 0.  1.
         22    1    1    2    0    0  0.85745315532E+02  0.13991275808E+03  0.58947426864E+02  0.17436352297E+03  0.00000000000E+00 0.  1.
          2    1    1    2  501    0  0.19173522080E+03  0.33436647042E+02  0.26381353315E+03  0.32783835124E+03  0.25500000000E-02 0.  1.
<mgrwt>
<rscale>  0 0.20041209E+03</rscale>
<asrwt>0</asrwt>
<pdfrwt beam="1">  1       11 0.10000000E+01 0.24476386E+03</pdfrwt>
<pdfrwt beam="2">  1        2 0.20813866E-01 0.20041209E+03</pdfrwt>
<totfact> 0.32491403E+02</totfact>
</mgrwt>
</event>
<event>
 5    1  0.1851087E-003  0.2068395E+03  0.7818608E-02  0.1144094E+00
         11   -1    0    0    0    0  0.00000000000E+00  0.00000000000E+00  0.10005400188E+04  0.10005400188E+04  0.51100000000E-03 0. -1.
          2   -1    0    0  501    0 -0.00000000000E+00 -0.00000000000E+00 -0.82944658321E+02  0.82944658360E+02  0.25500000000E-02 0. -1.
         11    1    1    2    0    0 -0.11195063672E+03  0.16248276829E+03  0.83952630197E+03  0.86240246216E+03  0.51100000000E-03 0. -1.
         22    1    1    2    0    0  0.43592474377E+02 -0.55740126559E+02 -0.26433401206E+01  0.70811388760E+02  0.00000000000E+00 0. -1.
          2    1    1    2  501    0  0.68358162340E+02 -0.10674264173E+03  0.80712398666E+02  0.15027082627E+03  0.25500000000E-02 0. -1.
<mgrwt>
<rscale>  0 0.20683947E+03</rscale>
<asrwt>0</asrwt>
<pdfrwt beam="1">  1       11 0.10000000E+01 0.19731598E+03</pdfrwt>
<pdfrwt beam="2">  1        2 0.12767607E-01 0.20683947E+03</pdfrwt>
<totfact> 0.57684345E+02</totfact>
</mgrwt>
</event>
<event>
 5    1  0.1851087E-003  0.1770624E+03  0.7818608E-02  0.1170677E+00
         11   -1    0    0    0    0  0.00000000000E+00  0.00000000000E+00  0.10002092028E+04  0.10002092028E+04  0.51100000000E-03 0. -1.
          2   -1    0    0  501    0 -0.00000000000E+00 -0.00000000000E+00 -0.18637199390E+03  0.18637199392E+03  0.25500000000E-02 0. -1.
         11    1    1    2    0    0  0.15922452687E+03  0.69625876234E+02  0.94839928315E+03  0.96418951087E+03  0.51100000000E-03 0. -1.
         22    1    1    2    0    0 -0.18700337833E+02 -0.88396117738E+01 -0.32012539976E+02  0.38113568281E+02  0.00000000000E+00 0.  1.
          2    1    1    2  501    0 -0.14052418903E+03 -0.60786264460E+02 -0.10254953423E+03  0.18427811761E+03  0.25500000000E-02 0. -1.
<mgrwt>
<rscale>  0 0.17706245E+03</rscale>
<asrwt>0</asrwt>
<pdfrwt beam="1">  1       11 0.10000000E+01 0.17378208E+03</pdfrwt>
<pdfrwt beam="2">  1        2 0.28678612E-01 0.17706245E+03</pdfrwt>
<totfact> 0.22651440E+02</totfact>
</mgrwt>
</event>
<event>
 5    1  0.1851087E-003  0.1059634E+03  0.7818608E-02  0.1268233E+00
         11   -1    0    0    0    0  0.00000000000E+00  0.00000000000E+00  0.10003404316E+04  0.10003404316E+04  0.51100000000E-03 0.  1.
          2   -1    0    0  501    0 -0.00000000000E+00 -0.00000000000E+00 -0.13998802254E+02  0.13998802486E+02  0.25500000000E-02 0.  1.
         11    1    1    2    0    0 -0.39202701363E+02 -0.10381603663E+03  0.61282787928E+03  0.62279421230E+03  0.51100000000E-03 0.  1.
         22    1    1    2    0    0  0.11198492139E+02  0.41343481734E+01  0.65919567870E+02  0.66991704629E+02  0.00000000000E+00 0.  1.
          2    1    1    2  501    0  0.28004209225E+02  0.99681688458E+02  0.30759418222E+03  0.32455331718E+03  0.25500000000E-02 0.  1.
<mgrwt>
<rscale>  0 0.10596339E+03</rscale>
<asrwt>0</asrwt>
<pdfrwt beam="1">  1       11 0.10000000E+01 0.11937297E+02</pdfrwt>
<pdfrwt beam="2">  1        2 0.21543950E-02 0.10596339E+03</pdfrwt>
<totfact> 0.54844350E+03</totfact>
</mgrwt>
</event>
<event>
 5    1  0.1851087E-003  0.1588783E+03  0.7818608E-02  0.1189969E+00
         11   -1    0    0    0    0  0.00000000000E+00  0.00000000000E+00  0.10002410665E+04  0.10002410665E+04  0.51100000000E-03 0.  1.
          2   -1    0    0  501    0 -0.00000000000E+00 -0.00000000000E+00 -0.51890315069E+02  0.51890315132E+02  0.25500000000E-02 0.  1.
         11    1    1    2    0    0  0.73404578284E+02  0.13289219818E+03  0.85391540097E+03  0.86730622070E+03  0.51100000000E-03 0.  1.
         22    1    1    2    0    0 -0.33190179842E+02 -0.21114534975E+02  0.15951517062E+02  0.42448351225E+02  0.00000000000E+00 0. -1.
          2    1    1    2  501    0 -0.40214398442E+02 -0.11177766321E+03  0.78483833425E+02  0.14237680973E+03  0.25500000000E-02 0.  1.
<mgrwt>
<rscale>  0 0.15887827E+03</rscale>
<asrwt>0</asrwt>
<pdfrwt beam="1">  1       11 0.10000000E+01 0.15181755E+03</pdfrwt>
<pdfrwt beam="2">  1        2 0.79850496E-02 0.15887827E+03</pdfrwt>
<totfact> 0.10159109E+03</totfact>
</mgrwt>
</event>
<event>
 5    1  0.1851087E-003  0.3144458E+03  0.7818608E-02  0.1408252E+00
         11   -1    0    0    0    0  0.00000000000E+00  0.00000000000E+00  0.10002317445E+04  0.10002317445E+04  0.51100000000E-03 0. -1.
          2   -1    0    0  501    0 -0.00000000000E+00 -0.00000000000E+00 -0.11776885124E+03  0.11776885127E+03  0.25500000000E-02 0. -1.
         11    1    1    2    0    0  0.25207786786E+03 -0.19391931182E+03  0.63432041271E+03  0.70958462282E+03  0.51100000000E-03 0. -1.
         22    1    1    2    0    0 -0.84185062751E+01  0.63517356409E+01 -0.34673262363E+01  0.11101267711E+02  0.00000000000E+00 0.  1.
          2    1    1    2  501    0 -0.24365936158E+03  0.18756757618E+03  0.25160980677E+03  0.39731470523E+03  0.25500000000E-02 0. -1.
<mgrwt>
<rscale>  0 0.57585681E+02</rscale>
<asrwt>0</asrwt>
<pdfrwt beam="1">  1       11 0.10000000E+01 0.31444578E+03</pdfrwt>
<pdfrwt beam="2">  1        2 0.18122483E-01 0.57585681E+02</pdfrwt>
<totfact> 0.36269555E+02</totfact>
</mgrwt>
</event>
<event>
 5    1  0.1851087E-003  0.2223116E+03  0.7818608E-02  0.1414102E+00
         11   -1    0    0    0    0  0.00000000000E+00  0.00000000000E+00  0.99988840999E+03  0.99988840999E+03  0.51100000000E-03 0.  1.
         -2   -1    0    0    0  501 -0.00000000000E+00 -0.00000000000E+00 -0.29625424620E+03  0.29625424621E+03  0.25500000000E-02 0. -1.
         11    1    1    2    0    0  0.65954493568E+02  0.21254207250E+03  0.93925705320E+03  0.96526055539E+03  0.51100000000E-03 0.  1.
         22    1    1    2    0    0  0.11323482975E+02 -0.86543662236E+01 -0.15195473492E+02  0.20833188332E+02  0.00000000000E+00 0.  1.
         -2    1    1    2    0  501 -0.77277976543E+02 -0.20388770628E+03 -0.22042741592E+03  0.31004891247E+03  0.25500000000E-02 0. -1.
<mgrwt>
<rscale>  0 0.56288400E+02</rscale>
<asrwt>0</asrwt>
<pdfrwt beam="1">  1       11 0.10000000E+01 0.22231163E+03</pdfrwt>
<pdfrwt beam="2">  1       -2 0.45572489E-01 0.56288400E+02</pdfrwt>
<totfact> 0.37187068E+01</totfact>
</mgrwt>
</event>
<event>
 5    1  0.1851087E-003  0.1899454E+03  0.7818608E-02  0.1398006E+00
         11   -1    0    0    0    0  0.00000000000E+00  0.00000000000E+00  0.10006400645E+04  0.10006400645E+04  0.51100000000E-03 0. -1.
          2   -1    0    0  501    0 -0.00000000000E+00 -0.00000000000E+00 -0.13971001954E+04  0.13971001954E+04  0.25500000000E-02 0. -1.
         11    1    1    2    0    0  0.84365606927E+02 -0.17010380530E+03  0.98232681414E+03  0.10005092853E+04  0.51100000000E-03 0. -1.
         22    1    1    2    0    0  0.18807219806E+02 -0.21222618186E+01 -0.51934640612E+02  0.55275875457E+02  0.00000000000E+00 0.  1.
          2    1    1    2  501    0 -0.10317282673E+03  0.17222606712E+03 -0.13268523045E+04  0.13419550992E+04  0.25500000000E-02 0. -1.
<mgrwt>
<rscale>  0 0.59958455E+02</rscale>
<asrwt>0</asrwt>
<pdfrwt beam="1">  1       11 0.10000000E+01 0.18994535E+03</pdfrwt>
<pdfrwt beam="2">  1        2 0.21507606E+00 0.59958455E+02</pdfrwt>
<totfact> 0.21700084E+01</totfact>
</mgrwt>
</event>
<event>
 5    1  0.1851087E-003  0.1389459E+03  0.7818608E-02  0.1214754E+00
         11   -1    0    0    0    0  0.00000000000E+00  0.00000000000E+00  0.10002548949E+04  0.10002548949E+04  0.51100000000E-03 0.  1.
          2   -1    0    0  501    0 -0.00000000000E+00 -0.00000000000E+00 -0.26391615121E+02  0.26391615244E+02  0.25500000000E-02 0.  1.
         11    1    1    2    0    0 -0.27556351753E+02 -0.13279003490E+03  0.75726008441E+03  0.76930837857E+03  0.51100000000E-03 0.  1.
         22    1    1    2    0    0 -0.65014016112E+01  0.16316028073E+02  0.29230744872E+02  0.34101575341E+02  0.00000000000E+00 0. -1.
          2    1    1    2  501    0  0.34057753364E+02  0.11647400683E+03  0.18737245052E+03  0.22323655626E+03  0.25500000000E-02 0.  1.
<mgrwt>
<rscale>  0 0.13894592E+03</rscale>
<asrwt>0</asrwt>
<pdfrwt beam="1">  1       11 0.10000000E+01 0.13561912E+03</pdfrwt>
<pdfrwt beam="2">  1        2 0.40612833E-02 0.13894592E+03</pdfrwt>
<totfact> 0.24136984E+03</totfact>
</mgrwt>
</event>
<event>
 5    1  0.1851087E-003  0.2729994E+03  0.7818608E-02  0.1099575E+00
         11   -1    0    0    0    0  0.00000000000E+00  0.00000000000E+00  0.99990917234E+03  0.99990917234E+03  0.51100000000E-03 0.  1.
          2   -1    0    0  501    0 -0.00000000000E+00 -0.00000000000E+00 -0.11583804764E+03  0.11583804767E+03  0.25500000000E-02 0.  1.
         11    1    1    2    0    0  0.97738627122E+00 -0.27049907334E+03  0.77658969137E+03  0.82235166000E+03  0.51100000000E-03 0.  1.
         22    1    1    2    0    0  0.33877826129E+01  0.11022473889E+02 -0.20539247852E+01  0.11712839480E+02  0.00000000000E+00 0. -1.
          2    1    1    2  501    0 -0.43651688841E+01  0.25947659945E+03  0.10953535810E+03  0.28168272053E+03  0.25500000000E-02 0.  1.
<mgrwt>
<rscale>  0 0.27299944E+03</rscale>
<asrwt>0</asrwt>
<pdfrwt beam="1">  1       11 0.10000000E+01 0.27050084E+03</pdfrwt>
<pdfrwt beam="2">  1        2 0.17819619E-01 0.27299944E+03</pdfrwt>
<totfact> 0.39210242E+02</totfact>
</mgrwt>
</event>
<event>
 5    1  0.1851087E-003  0.2307940E+03  0.7818608E-02  0.1293921E+00
         11   -1    0    0    0    0  0.00000000000E+00  0.00000000000E+00  0.10000384096E+04  0.10000384096E+04  0.51100000000E-03 0. -1.
          2   -1    0    0  501    0 -0.00000000000E+00 -0.00000000000E+00 -0.25479259050E+03  0.25479259051E+03  0.25500000000E-02 0. -1.
         11    1    1    2    0    0  0.23220545898E+03 -0.52974305978E+01  0.91938687306E+03  0.94827193374E+03  0.51100000000E-03 0. -1.
         22    1    1    2    0    0 -0.22872127106E+02  0.30490514297E+02 -0.10138120654E+02  0.39440932428E+02  0.00000000000E+00 0. -1.
          2    1    1    2  501    0 -0.20933333188E+03 -0.25193083699E+02 -0.16400293336E+03  0.26711813390E+03  0.25500000000E-02 0. -1.
<mgrwt>
<rscale>  0 0.93791651E+02</rscale>
<asrwt>0</asrwt>
<pdfrwt beam="1">  1       11 0.10000000E+01 0.23079405E+03</pdfrwt>
<pdfrwt beam="2">  1        2 0.39200365E-01 0.93791651E+02</pdfrwt>
<totfact> 0.16035578E+02</totfact>
</mgrwt>
</event>
<event>
 5    1  0.1851087E-003  0.7772716E+02  0.7818608E-02  0.1335628E+00
         11   -1    0    0    0    0  0.00000000000E+00  0.00000000000E+00  0.10003848044E+04  0.10003848044E+04  0.51100000000E-03 0. -1.
          2   -1    0    0  501    0 -0.00000000000E+00 -0.00000000000E+00 -0.65281563210E+01  0.65281568190E+01  0.25500000000E-02 0. -1.
         11    1    1    2    0    0  0.52195070440E+02  0.54956861216E+02  0.33386276212E+03  0.34235789155E+03  0.51100000000E-03 0. -1.
         22    1    1    2    0    0 -0.68468477237E+01 -0.11570458737E+02  0.74140115219E+02  0.75349263592E+02  0.00000000000E+00 0. -1.
          2    1    1    2  501    0 -0.45348222716E+02 -0.43386402479E+02  0.58585377072E+03  0.58920580606E+03  0.25500000000E-02 0. -1.
<mgrwt>
<rscale>  0 0.77727158E+02</rscale>
<asrwt>0</asrwt>
<pdfrwt beam="1">  1       11 0.10000000E+01 0.75793059E+02</pdfrwt>
<pdfrwt beam="2">  1        2 0.10047182E-02 0.77727158E+02</pdfrwt>
<totfact> 0.14791836E+04</totfact>
</mgrwt>
</event>
<event>
 5    1  0.1851087E-003  0.1665151E+03  0.7818608E-02  0.1181532E+00
         11   -1    0    0    0    0  0.00000000000E+00  0.00000000000E+00  0.10006276719E+04  0.10006276719E+04  0.51100000000E-03 0. -1.
          2   -1    0    0  501    0 -0.00000000000E+00 -0.00000000000E+00 -0.38290883469E+02  0.38290883554E+02  0.25500000000E-02 0. -1.
         11    1    1    2    0    0 -0.13162543839E+03 -0.86326605903E+02  0.76354396814E+03  0.77960049397E+03  0.51100000000E-03 0. -1.
         22    1    1    2    0    0  0.13426614531E+02  0.24460695306E+02  0.13508954853E+02  0.31001475027E+02  0.00000000000E+00 0. -1.
          2    1    1    2  501    0  0.11819882386E+03  0.61865910598E+02  0.18528386548E+03  0.22831658649E+03  0.25500000000E-02 0. -1.
<mgrwt>
<rscale>  0 0.16651508E+03</rscale>
<asrwt>0</asrwt>
<pdfrwt beam="1">  1       11 0.10000000E+01 0.15740883E+03</pdfrwt>
<pdfrwt beam="2">  1        2 0.58946025E-02 0.16651508E+03</pdfrwt>
<totfact> 0.15027391E+03</totfact>
</mgrwt>
</event>
<event>
 5    1  0.1851087E-003  0.2108051E+03  0.7818608E-02  0.1140930E+00
         11   -1    0    0    0    0  0.00000000000E+00  0.00000000000E+00  0.99978165108E+03  0.99978165108E+03  0.51100000000E-03 0.  1.
          2   -1    0    0  501    0 -0.00000000000E+00 -0.00000000000E+00 -0.16377444329E+03  0.16377444331E+03  0.25500000000E-02 0.  1.
         11    1    1    2    0    0  0.64393834346E+02  0.64972396771E+02  0.14443921406E+03  0.17096977745E+03  0.51100000000E-03 0.  1.
         22    1    1    2    0    0 -0.12706191056E+03 -0.17926193155E+03 -0.61620191738E+02  0.22820301761E+03  0.00000000000E+00 0.  1.
          2    1    1    2  501    0  0.62668076214E+02  0.11428953478E+03  0.75318818548E+03  0.76438329932E+03  0.25500000000E-02 0.  1.
<mgrwt>
<rscale>  0 0.21080507E+03</rscale>
<asrwt>0</asrwt>
<pdfrwt beam="1">  1       11 0.10000000E+01 0.91476654E+02</pdfrwt>
<pdfrwt beam="2">  1        2 0.25190566E-01 0.21080507E+03</pdfrwt>
<totfact> 0.26236705E+02</totfact>
</mgrwt>
</event>
<event>
 5    1  0.1851087E-003  0.3670564E+03  0.7818608E-02  0.1055824E+00
         11   -1    0    0    0    0  0.00000000000E+00  0.00000000000E+00  0.10003101006E+04  0.10003101006E+04  0.51100000000E-03 0. -1.
          2   -1    0    0  501    0 -0.00000000000E+00 -0.00000000000E+00 -0.50586748109E+03  0.50586748110E+03  0.25500000000E-02 0. -1.
         11    1    1    2    0    0 -0.38655096684E+03  0.11716333479E+02  0.71415383595E+03  0.81214199734E+03  0.51100000000E-03 0. -1.
         22    1    1    2    0    0  0.66062559792E+02 -0.19848627691E+03  0.72949663388E+02  0.22154619680E+03  0.00000000000E+00 0. -1.
          2    1    1    2  501    0  0.32048840705E+03  0.18676994343E+03 -0.29266087980E+03  0.47248938760E+03  0.25500000000E-02 0. -1.
<mgrwt>
<rscale>  0 0.36705644E+03</rscale>
<asrwt>0</asrwt>
<pdfrwt beam="1">  1       11 0.10000000E+01 0.20919145E+03</pdfrwt>
<pdfrwt beam="2">  1        2 0.77849898E-01 0.36705644E+03</pdfrwt>
<totfact> 0.76108983E+01</totfact>
</mgrwt>
</event>
<event>
 5    1  0.1851087E-003  0.1837801E+03  0.7818608E-02  0.1164194E+00
         11   -1    0    0    0    0  0.00000000000E+00  0.00000000000E+00  0.99998560412E+03  0.99998560412E+03  0.51100000000E-03 0. -1.
          2   -1    0    0  501    0 -0.00000000000E+00 -0.00000000000E+00 -0.17190140699E+03  0.17190140700E+03  0.25500000000E-02 0. -1.
         11    1    1    2    0    0  0.86875829050E+02 -0.15697796507E+03  0.93982896663E+03  0.95680090809E+03  0.51100000000E-03 0. -1.
         22    1    1    2    0    0 -0.23842180546E+01  0.16712688901E+02 -0.68126750458E-01  0.16882035046E+02  0.00000000000E+00 0.  1.
          2    1    1    2  501    0 -0.84491610996E+02  0.14026527617E+03 -0.11167664274E+03  0.19820406800E+03  0.25500000000E-02 0. -1.
<mgrwt>
<rscale>  0 0.18378014E+03</rscale>
<asrwt>0</asrwt>
<pdfrwt beam="1">  1       11 0.10000000E+01 0.17941430E+03</pdfrwt>
<pdfrwt beam="2">  1        2 0.26445989E-01 0.18378014E+03</pdfrwt>
<totfact> 0.24784067E+02</totfact>
</mgrwt>
</event>
<event>
 5    1  0.1851087E-003  0.2125807E+03  0.7818608E-02  0.1139539E+00
         11   -1    0    0    0    0  0.00000000000E+00  0.00000000000E+00  0.10000281170E+04  0.10000281170E+04  0.51100000000E-03 0. -1.
          2   -1    0    0  501    0 -0.00000000000E+00 -0.00000000000E+00 -0.99503535992E+02  0.99503536025E+02  0.25500000000E-02 0.  1.
         11    1    1    2    0    0 -0.20774560659E+03 -0.39537055937E+02  0.85678529728E+03  0.88249785353E+03  0.51100000000E-03 0. -1.
         22    1    1    2    0    0  0.80308260358E+01  0.60237000740E+01  0.12402866421E+01  0.10115208369E+02  0.00000000000E+00 0.  1.
          2    1    1    2  501    0  0.19971478056E+03  0.33513355863E+02  0.42498997089E+02  0.20691859113E+03  0.25500000000E-02 0.  1.
<mgrwt>
<rscale>  0 0.21258068E+03</rscale>
<asrwt>0</asrwt>
<pdfrwt beam="1">  1       11 0.10000000E+01 0.21147439E+03</pdfrwt>
<pdfrwt beam="2">  1        2 0.15308666E-01 0.21258068E+03</pdfrwt>
<totfact> 0.46488161E+02</totfact>
</mgrwt>
</event>
<event>
 5    1  0.1851087E-003  0.3156886E+03  0.7818608E-02  0.1077651E+00
         11   -1    0    0    0    0  0.00000000000E+00  0.00000000000E+00  0.99998608510E+03  0.99998608510E+03  0.51100000000E-03 0. -1.
          2   -1    0    0  501    0 -0.00000000000E+00 -0.00000000000E+00 -0.25387200093E+03  0.25387200094E+03  0.25500000000E-02 0. -1.
         11    1    1    2    0    0 -0.12383424654E+02 -0.30328461785E+03 -0.12427103190E+03  0.32799115537E+03  0.51100000000E-03 0. -1.
         22    1    1    2    0    0  0.76975346691E+01  0.49836678507E+02  0.69813232213E+02  0.86121042473E+02  0.00000000000E+00 0. -1.
          2    1    1    2  501    0  0.46858899847E+01  0.25344793934E+03  0.80057188386E+03  0.83974588821E+03  0.25500000000E-02 0. -1.
<mgrwt>
<rscale>  0 0.31568865E+03</rscale>
<asrwt>0</asrwt>
<pdfrwt beam="1">  1       11 0.10000000E+01 0.30353748E+03</pdfrwt>
<pdfrwt beam="2">  1        2 0.39056686E-01 0.31568865E+03</pdfrwt>
<totfact> 0.16277504E+02</totfact>
</mgrwt>
</event>
<event>
 5    1  0.1851087E-003  0.9907742E+02  0.7818608E-02  0.1282248E+00
         11   -1    0    0    0    0  0.00000000000E+00  0.00000000000E+00  0.10000944906E+04  0.10000944906E+04  0.51100000000E-03 0. -1.
          2   -1    0    0  501    0 -0.00000000000E+00 -0.00000000000E+00 -0.98539379289E+01  0.98539382588E+01  0.25500000000E-02 0. -1.
         11    1    1    2    0    0  0.82920641806E+02 -0.50496161983E+02  0.56816307505E+03  0.57639827816E+03  0.51100000000E-03 0. -1.
         22    1    1    2    0    0 -0.12649165305E+02  0.66238342271E+01  0.36934459445E+02  0.39598369377E+02  0.00000000000E+00 0. -1.
          2    1    1    2  501    0 -0.70271476501E+02  0.43872327756E+02  0.38514301816E+03  0.39395178131E+03  0.25500000000E-02 0. -1.
<mgrwt>
<rscale>  0 0.99077425E+02</rscale>
<asrwt>0</asrwt>
<pdfrwt beam="1">  1       11 0.10000000E+01 0.97086020E+02</pdfrwt>
<pdfrwt beam="2">  1        2 0.15161337E-02 0.99077425E+02</pdfrwt>
<totfact> 0.87584574E+03</totfact>
</mgrwt>
</event>
<event>
 5    1  0.1851087E-003  0.2319406E+03  0.7818608E-02  0.1125281E+00
         11   -1    0    0    0    0  0.00000000000E+00  0.00000000000E+00  0.10000989856E+04  0.10000989856E+04  0.51100000000E-03 0.  1.
         -2   -1    0    0    0  501 -0.00000000000E+00 -0.00000000000E+00 -0.71828332958E+02  0.71828333003E+02  0.25500000000E-02 0.  1.
         11    1    1    2    0    0  0.69190053705E+02  0.21850437237E+03  0.73534929389E+03  0.77024022766E+03  0.51100000000E-03 0.  1.
         22    1    1    2    0    0 -0.82493003216E+01 -0.70790877389E+01  0.16021221552E+02  0.19360887868E+02  0.00000000000E+00 0. -1.
         -2    1    1    2    0  501 -0.60940753383E+02 -0.21142528463E+03  0.17690013723E+03  0.28232620311E+03  0.25500000000E-02 0.  1.
<mgrwt>
<rscale>  0 0.23194062E+03</rscale>
<asrwt>0</asrwt>
<pdfrwt beam="1">  1       11 0.10000000E+01 0.22919735E+03</pdfrwt>
<pdfrwt beam="2">  1       -2 0.11051606E-01 0.23194062E+03</pdfrwt>
<totfact> 0.44843160E+02</totfact>
</mgrwt>
</event>
<event>
 5    1  0.1851087E-003  0.1542799E+03  0.7818608E-02  0.1466159E+00
         11   -1    0    0    0    0  0.00000000000E+00  0.00000000000E+00  0.10002452273E+04  0.10002452273E+04  0.51100000000E-03 0. -1.
          2   -1    0    0  501    0 -0.00000000000E+00 -0.00000000000E+00 -0.35843668619E+02  0.35843668710E+02  0.25500000000E-02 0. -1.
         11    1    1    2    0    0  0.13144070816E+03 -0.82273084969E+02  0.69428666682E+03  0.71139264544E+03  0.51100000000E-03 0. -1.
         22    1    1    2    0    0 -0.96165513013E+01 -0.10060753781E+02 -0.46226546778E+00  0.13925175580E+02  0.00000000000E+00 0.  1.
          2    1    1    2  501    0 -0.12182415685E+03  0.92333838750E+02  0.27057715732E+03  0.31077107498E+03  0.25500000000E-02 0. -1.
<mgrwt>
<rscale>  0 0.46337792E+02</rscale>
<asrwt>0</asrwt>
<pdfrwt beam="1">  1       11 0.10000000E+01 0.15427993E+03</pdfrwt>
<pdfrwt beam="2">  1        2 0.55157627E-02 0.46337792E+02</pdfrwt>
<totfact> 0.14632712E+03</totfact>
</mgrwt>
</event>
<event>
 5    1  0.1851087E-003  0.3170373E+03  0.7818608E-02  0.1077021E+00
         11   -1    0    0    0    0  0.00000000000E+00  0.00000000000E+00  0.99970627878E+03  0.99970627878E+03  0.51100000000E-03 0. -1.
          2   -1    0    0  501    0 -0.00000000000E+00 -0.00000000000E+00 -0.14302833967E+04  0.14302833967E+04  0.25500000000E-02 0. -1.
         11    1    1    2    0    0 -0.12327636552E+03 -0.28459928630E+03  0.95733805076E+03  0.10063249771E+04  0.51100000000E-03 0. -1.
         22    1    1    2    0    0  0.12701367773E+03  0.24732832942E+03 -0.12636866609E+04  0.12939118030E+04  0.00000000000E+00 0. -1.
          2    1    1    2  501    0 -0.37373122159E+01  0.37270956877E+02 -0.12422850775E+03  0.12975289543E+03  0.25500000000E-02 0. -1.
<mgrwt>
<rscale>  0 0.31703731E+03</rscale>
<asrwt>0</asrwt>
<pdfrwt beam="1">  1       11 0.10000000E+01 0.31015128E+03</pdfrwt>
<pdfrwt beam="2">  1        2 0.21997896E+00 0.31703731E+03</pdfrwt>
<totfact> 0.18459776E+01</totfact>
</mgrwt>
</event>
