<event>
 5    1  0.3241783E+002  0.1599672E+01  0.7818608E-02  0.3353719E+00
         11   -1    0    0    0    0  0.00000000000E+00  0.00000000000E+00  0.39999999674E+01  0.40000000000E+01  0.51100000000E-03 0. -1.
    9000002   -1    0    0    0    0 -0.00000000000E+00 -0.00000000000E+00  0.00000000000E+00  0.93800000000E+00  0.93800000000E+00 0.  1.
         11    1    1    2    0    0 -0.12498237424E+00 -0.12359093287E+00  0.16147850046E+01  0.16243233006E+01  0.51100000000E-03 0. -1.
    9000002    1    1    2    0    0  0.30161171436E+00  0.30263554103E+00  0.12359184873E+00  0.10381121529E+01  0.93800000000E+00 0.  1.
         22    1    1    2    0    0 -0.17662934012E+00 -0.17904460816E+00  0.22616231140E+01  0.22755645465E+01  0.00000000000E+00 0. -1.
</event>
<event>
 5    1  0.3241783E+002  0.1599676E+01  0.7818608E-02  0.3353715E+00
         11   -1    0    0    0    0  0.00000000000E+00  0.00000000000E+00  0.39999999674E+01  0.40000000000E+01  0.51100000000E-03 0. -1.
    9000002   -1    0    0    0    0 -0.00000000000E+00 -0.00000000000E+00  0.00000000000E+00  0.93800000000E+00  0.93800000000E+00 0. -1.
         11    1    1    2    0    0 -0.11971003167E+00  0.17239513202E-01  0.63917287990E+00  0.65051512205E+00  0.51100000000E-03 0. -1.
    9000002    1    1    2    0    0  0.68635201265E+00 -0.93291255851E-01  0.34221925716E+00  0.12152120653E+01  0.93800000000E+00 0. -1.
         22    1    1    2    0    0 -0.56664198099E+00  0.76051742649E-01  0.30186078303E+01  0.30722728126E+01  0.00000000000E+00 0. -1.
</event>
<event>
 5    1  0.3241783E+002  0.1599674E+01  0.7818608E-02  0.3353718E+00
         11   -1    0    0    0    0  0.00000000000E+00  0.00000000000E+00  0.39999999674E+01  0.40000000000E+01  0.51100000000E-03 0. -1.
    9000002   -1    0    0    0    0 -0.00000000000E+00 -0.00000000000E+00  0.00000000000E+00  0.93800000000E+00  0.93800000000E+00 0.  1.
         11    1    1    2    0    0 -0.11416603482E+00 -0.96073696202E-01  0.14483266003E+01  0.14559925278E+01  0.51100000000E-03 0. -1.
    9000002    1    1    2    0    0  0.30285796946E+00  0.25424497319E+00  0.10541166023E+00  0.10233860827E+01  0.93800000000E+00 0.  1.
         22    1    1    2    0    0 -0.18869193464E+00 -0.15817127699E+00  0.24462617068E+01  0.24586213896E+01  0.00000000000E+00 0. -1.
</event>
<event>
 5    1  0.3241783E+002  0.1599675E+01  0.7818608E-02  0.3353716E+00
         11   -1    0    0    0    0  0.00000000000E+00  0.00000000000E+00  0.39999999674E+01  0.40000000000E+01  0.51100000000E-03 0. -1.
    9000002   -1    0    0    0    0 -0.00000000000E+00 -0.00000000000E+00  0.00000000000E+00  0.93800000000E+00  0.93800000000E+00 0.  1.
         11    1    1    2    0    0 -0.12306668987E+00 -0.54629962028E-01  0.15432196433E+01  0.15490826225E+01  0.51100000000E-03 0. -1.
    9000002    1    1    2    0    0  0.31345546897E+00  0.14297868433E+00  0.79541728307E-01  0.10024311057E+01  0.93800000000E+00 0.  1.
         22    1    1    2    0    0 -0.19038877911E+00 -0.88348722299E-01  0.23772385958E+01  0.23864862717E+01  0.00000000000E+00 0.  1.
</event>
<event>
 5    1  0.3241783E+002  0.1538963E+01  0.7818608E-02  0.3422397E+00
         11   -1    0    0    0    0  0.00000000000E+00  0.00000000000E+00  0.39999999674E+01  0.40000000000E+01  0.51100000000E-03 0.  1.
    9000002   -1    0    0    0    0 -0.00000000000E+00 -0.00000000000E+00  0.00000000000E+00  0.93800000000E+00  0.93800000000E+00 0.  1.
         11    1    1    2    0    0 -0.12739711085E+00  0.17733534089E+00  0.62259082156E+00  0.65977074746E+00  0.51100000000E-03 0.  1.
    9000002    1    1    2    0    0 -0.10300495851E+00 -0.82339460032E-01  0.57487950430E-01  0.94896716097E+00  0.93800000000E+00 0.  1.
         22    1    1    2    0    0  0.23040206936E+00 -0.94995880858E-01  0.33199211954E+01  0.33292620916E+01  0.00000000000E+00 0.  1.
</event>
<event>
 5    1  0.3241783E+002  0.1598546E+01  0.7818608E-02  0.3354943E+00
         11   -1    0    0    0    0  0.00000000000E+00  0.00000000000E+00  0.39999999674E+01  0.40000000000E+01  0.51100000000E-03 0.  1.
    9000002   -1    0    0    0    0 -0.00000000000E+00 -0.00000000000E+00  0.00000000000E+00  0.93800000000E+00  0.93800000000E+00 0. -1.
         11    1    1    2    0    0 -0.42657538953E-01  0.17591517439E+00  0.19302942781E+01  0.19387630271E+01  0.51100000000E-03 0.  1.
    9000002    1    1    2    0    0  0.86738267647E-01 -0.43388214202E+00  0.13379405106E+00  0.10457160649E+01  0.93800000000E+00 0. -1.
         22    1    1    2    0    0 -0.44080728695E-01  0.25796696763E+00  0.19359116382E+01  0.19535209080E+01  0.00000000000E+00 0.  1.
</event>
<event>
 5    1  0.3241783E+002  0.1587680E+01  0.7818608E-02  0.3366844E+00
         11   -1    0    0    0    0  0.00000000000E+00  0.00000000000E+00  0.39999999674E+01  0.40000000000E+01  0.51100000000E-03 0. -1.
    9000002   -1    0    0    0    0 -0.00000000000E+00 -0.00000000000E+00  0.00000000000E+00  0.93800000000E+00  0.93800000000E+00 0.  1.
         11    1    1    2    0    0 -0.61335878582E-01 -0.38711665614E-01  0.50070768494E+00  0.50593391855E+00  0.51100000000E-03 0. -1.
    9000002    1    1    2    0    0 -0.51326369954E-01 -0.13206797501E+00  0.22139705643E-01  0.94889963265E+00  0.93800000000E+00 0.  1.
         22    1    1    2    0    0  0.11266224854E+00  0.17077964062E+00  0.34771525768E+01  0.34831664488E+01  0.00000000000E+00 0. -1.
</event>
<event>
 5    1  0.3241783E+002  0.1599664E+01  0.7818608E-02  0.3353728E+00
         11   -1    0    0    0    0  0.00000000000E+00  0.00000000000E+00  0.39999999674E+01  0.40000000000E+01  0.51100000000E-03 0.  1.
    9000002   -1    0    0    0    0 -0.00000000000E+00 -0.00000000000E+00  0.00000000000E+00  0.93800000000E+00  0.93800000000E+00 0.  1.
         11    1    1    2    0    0  0.13552222138E+00  0.24778940990E+00  0.20573847210E+01  0.20766795650E+01  0.51100000000E-03 0.  1.
    9000002    1    1    2    0    0 -0.25087534671E+00 -0.46665133590E+00  0.19316951365E+00  0.10944680762E+01  0.93800000000E+00 0.  1.
         22    1    1    2    0    0  0.11535312532E+00  0.21886192600E+00  0.17494457327E+01  0.17668523588E+01  0.00000000000E+00 0.  1.
</event>
<event>
 5    1  0.3241783E+002  0.1599655E+01  0.7818608E-02  0.3353738E+00
         11   -1    0    0    0    0  0.00000000000E+00  0.00000000000E+00  0.39999999674E+01  0.40000000000E+01  0.51100000000E-03 0. -1.
    9000002   -1    0    0    0    0 -0.00000000000E+00 -0.00000000000E+00  0.00000000000E+00  0.93800000000E+00  0.93800000000E+00 0. -1.
         11    1    1    2    0    0  0.35134063054E-01  0.14834496118E-01  0.59303799025E+00  0.59426322759E+00  0.51100000000E-03 0. -1.
    9000002    1    1    2    0    0 -0.22795328607E+00 -0.72967565885E-01  0.38041805937E-01  0.96880242841E+00  0.93800000000E+00 0. -1.
         22    1    1    2    0    0  0.19281922302E+00  0.58133069767E-01  0.33689201712E+01  0.33749343440E+01  0.00000000000E+00 0. -1.
</event>
<event>
 5    1  0.3241783E+002  0.1599676E+01  0.7818608E-02  0.3353715E+00
         11   -1    0    0    0    0  0.00000000000E+00  0.00000000000E+00  0.39999999674E+01  0.40000000000E+01  0.51100000000E-03 0. -1.
    9000002   -1    0    0    0    0 -0.00000000000E+00 -0.00000000000E+00  0.00000000000E+00  0.93800000000E+00  0.93800000000E+00 0. -1.
         11    1    1    2    0    0  0.61592281025E-02  0.72031170780E-01  0.91217164395E+00  0.91503212775E+00  0.51100000000E-03 0. -1.
    9000002    1    1    2    0    0 -0.25597157516E-01 -0.30727823640E+00  0.63476396785E-01  0.98941820379E+00  0.93800000000E+00 0. -1.
         22    1    1    2    0    0  0.19437929413E-01  0.23524706562E+00  0.30243519266E+01  0.30335496685E+01  0.00000000000E+00 0. -1.
</event>
<event>
 5    1  0.3241783E+002  0.1599677E+01  0.7818608E-02  0.3353715E+00
         11   -1    0    0    0    0  0.00000000000E+00  0.00000000000E+00  0.39999999674E+01  0.40000000000E+01  0.51100000000E-03 0. -1.
    9000002   -1    0    0    0    0 -0.00000000000E+00 -0.00000000000E+00  0.00000000000E+00  0.93800000000E+00  0.93800000000E+00 0. -1.
         11    1    1    2    0    0  0.48324415038E+00 -0.31303531134E+00  0.21174629514E+01  0.21943485654E+01  0.51100000000E-03 0. -1.
    9000002    1    1    2    0    0 -0.76665151253E+00  0.49747057246E+00  0.64323843952E+00  0.14590514735E+01  0.93800000000E+00 0. -1.
         22    1    1    2    0    0  0.28340736215E+00 -0.18443526112E+00  0.12392985765E+01  0.12845999611E+01  0.00000000000E+00 0. -1.
</event>
<event>
 5    1  0.3241783E+002  0.1566917E+01  0.7818608E-02  0.3390072E+00
         11   -1    0    0    0    0  0.00000000000E+00  0.00000000000E+00  0.39999999674E+01  0.40000000000E+01  0.51100000000E-03 0. -1.
    9000002   -1    0    0    0    0 -0.00000000000E+00 -0.00000000000E+00  0.00000000000E+00  0.93800000000E+00  0.93800000000E+00 0.  1.
         11    1    1    2    0    0  0.38120018334E+00 -0.10267110628E+00  0.17988060583E+01  0.18416184274E+01  0.51100000000E-03 0. -1.
    9000002    1    1    2    0    0 -0.60848423356E+00 -0.20121468752E+00  0.32417430361E+00  0.11813862163E+01  0.93800000000E+00 0.  1.
         22    1    1    2    0    0  0.22728405022E+00  0.30388579380E+00  0.18770196055E+01  0.19149953563E+01  0.00000000000E+00 0.  1.
</event>
<event>
 5    1  0.3241783E+002  0.1577176E+01  0.7818608E-02  0.3378514E+00
         11   -1    0    0    0    0  0.00000000000E+00  0.00000000000E+00  0.39999999674E+01  0.40000000000E+01  0.51100000000E-03 0. -1.
    9000002   -1    0    0    0    0 -0.00000000000E+00 -0.00000000000E+00  0.00000000000E+00  0.93800000000E+00  0.93800000000E+00 0.  1.
         11    1    1    2    0    0 -0.27977290041E+00  0.34589384624E+00  0.14729644469E+01  0.15386812378E+01  0.51100000000E-03 0. -1.
    9000002    1    1    2    0    0  0.41116398715E+00 -0.51468708289E+00  0.33121983157E+00  0.11931090455E+01  0.93800000000E+00 0.  1.
         22    1    1    2    0    0 -0.13139108674E+00  0.16879323665E+00  0.21958156889E+01  0.22062097167E+01  0.00000000000E+00 0.  1.
</event>
<event>
 5    1  0.3241783E+002  0.1597344E+01  0.7818608E-02  0.3356251E+00
         11   -1    0    0    0    0  0.00000000000E+00  0.00000000000E+00  0.39999999674E+01  0.40000000000E+01  0.51100000000E-03 0.  1.
    9000002   -1    0    0    0    0 -0.00000000000E+00 -0.00000000000E+00  0.00000000000E+00  0.93800000000E+00  0.93800000000E+00 0.  1.
         11    1    1    2    0    0 -0.10069621347E+00  0.25890610337E+00  0.20582654784E+01  0.20769278126E+01  0.51100000000E-03 0.  1.
    9000002    1    1    2    0    0  0.81538858270E-01 -0.46422370715E+00  0.15342450175E+00  0.10609124909E+01  0.93800000000E+00 0.  1.
         22    1    1    2    0    0  0.19157355198E-01  0.20531760378E+00  0.17883099872E+01  0.18001596965E+01  0.00000000000E+00 0. -1.
</event>
<event>
 5    1  0.3241783E+002  0.1536681E+01  0.7818608E-02  0.3425091E+00
         11   -1    0    0    0    0  0.00000000000E+00  0.00000000000E+00  0.39999999674E+01  0.40000000000E+01  0.51100000000E-03 0.  1.
    9000002   -1    0    0    0    0 -0.00000000000E+00 -0.00000000000E+00  0.00000000000E+00  0.93800000000E+00  0.93800000000E+00 0. -1.
         11    1    1    2    0    0 -0.30943094734E-01 -0.56841679418E-01  0.23935804324E-01  0.69004604777E-01  0.51100000000E-03 0.  1.
    9000002    1    1    2    0    0  0.14284352962E+00 -0.10966233733E+00  0.69901785569E-01  0.95768489693E+00  0.93800000000E+00 0. -1.
         22    1    1    2    0    0 -0.11190043488E+00  0.16650401675E+00  0.39061623775E+01  0.39113104983E+01  0.00000000000E+00 0.  1.
</event>
<event>
 5    1  0.3241783E+002  0.1599563E+01  0.7818608E-02  0.3353838E+00
         11   -1    0    0    0    0  0.00000000000E+00  0.00000000000E+00  0.39999999674E+01  0.40000000000E+01  0.51100000000E-03 0. -1.
    9000002   -1    0    0    0    0 -0.00000000000E+00 -0.00000000000E+00  0.00000000000E+00  0.93800000000E+00  0.93800000000E+00 0. -1.
         11    1    1    2    0    0  0.53598112491E-03 -0.11584761067E-02  0.12299664081E-01  0.12376275699E-01  0.51100000000E-03 0. -1.
    9000002    1    1    2    0    0  0.17668726616E+00  0.12042429725E+00  0.30380084736E-01  0.96254212944E+00  0.93800000000E+00 0. -1.
         22    1    1    2    0    0 -0.17722324728E+00 -0.11926582115E+00  0.39573202185E+01  0.39630815949E+01  0.00000000000E+00 0. -1.
</event>
<event>
 5    1  0.3241783E+002  0.1599673E+01  0.7818608E-02  0.3353719E+00
         11   -1    0    0    0    0  0.00000000000E+00  0.00000000000E+00  0.39999999674E+01  0.40000000000E+01  0.51100000000E-03 0. -1.
    9000002   -1    0    0    0    0 -0.00000000000E+00 -0.00000000000E+00  0.00000000000E+00  0.93800000000E+00  0.93800000000E+00 0. -1.
         11    1    1    2    0    0 -0.29237776920E-01  0.43080704861E-01  0.46296947154E+00  0.46588817052E+00  0.51100000000E-03 0. -1.
    9000002    1    1    2    0    0  0.23355885260E+00 -0.35420311239E+00  0.12181605953E+00  0.10366738806E+01  0.93800000000E+00 0. -1.
         22    1    1    2    0    0 -0.20432107568E+00  0.31112240753E+00  0.34152144363E+01  0.34354379488E+01  0.00000000000E+00 0. -1.
</event>
<event>
 5    1  0.3241783E+002  0.1581514E+01  0.7818608E-02  0.3373675E+00
         11   -1    0    0    0    0  0.00000000000E+00  0.00000000000E+00  0.39999999674E+01  0.40000000000E+01  0.51100000000E-03 0. -1.
    9000002   -1    0    0    0    0 -0.00000000000E+00 -0.00000000000E+00  0.00000000000E+00  0.93800000000E+00  0.93800000000E+00 0. -1.
         11    1    1    2    0    0  0.87086070007E-01 -0.33130205248E-01  0.54207064687E+00  0.55002040091E+00  0.51100000000E-03 0. -1.
    9000002    1    1    2    0    0  0.16026485539E+00  0.68748600073E-01  0.33725533159E-01  0.95466884597E+00  0.93800000000E+00 0. -1.
         22    1    1    2    0    0 -0.24735092540E+00 -0.35618394826E-01  0.34242037873E+01  0.34333107531E+01  0.00000000000E+00 0. -1.
</event>
<event>
 5    1  0.3241783E+002  0.1597460E+01  0.7818608E-02  0.3356125E+00
         11   -1    0    0    0    0  0.00000000000E+00  0.00000000000E+00  0.39999999674E+01  0.40000000000E+01  0.51100000000E-03 0. -1.
    9000002   -1    0    0    0    0 -0.00000000000E+00 -0.00000000000E+00  0.00000000000E+00  0.93800000000E+00  0.93800000000E+00 0. -1.
         11    1    1    2    0    0  0.36609018866E-01  0.11665313081E+00  0.10936681576E+01  0.11004810191E+01  0.51100000000E-03 0. -1.
    9000002    1    1    2    0    0  0.25934659181E-01 -0.32620741978E+00  0.73390746737E-01  0.99614963182E+00  0.93800000000E+00 0. -1.
         22    1    1    2    0    0 -0.62543678047E-01  0.20955428897E+00  0.28329410630E+01  0.28413693491E+01  0.00000000000E+00 0. -1.
</event>
<event>
 5    1  0.3241783E+002  0.1599578E+01  0.7818608E-02  0.3353821E+00
         11   -1    0    0    0    0  0.00000000000E+00  0.00000000000E+00  0.39999999674E+01  0.40000000000E+01  0.51100000000E-03 0. -1.
    9000002   -1    0    0    0    0 -0.00000000000E+00 -0.00000000000E+00  0.00000000000E+00  0.93800000000E+00  0.93800000000E+00 0. -1.
         11    1    1    2    0    0 -0.12883547298E-01  0.30555577459E-01  0.53777068667E+00  0.53879235487E+00  0.51100000000E-03 0. -1.
    9000002    1    1    2    0    0  0.14760593490E+00 -0.19595104871E+00  0.40040865839E-01  0.97037703829E+00  0.93800000000E+00 0. -1.
         22    1    1    2    0    0 -0.13472238760E+00  0.16539547126E+00  0.34221884149E+01  0.34288306068E+01  0.00000000000E+00 0. -1.
</event>
<event>
 5    1  0.3241783E+002  0.1599663E+01  0.7818608E-02  0.3353729E+00
         11   -1    0    0    0    0  0.00000000000E+00  0.00000000000E+00  0.39999999674E+01  0.40000000000E+01  0.51100000000E-03 0. -1.
    9000002   -1    0    0    0    0 -0.00000000000E+00 -0.00000000000E+00  0.00000000000E+00  0.93800000000E+00  0.93800000000E+00 0. -1.
         11    1    1    2    0    0  0.13110663290E+00  0.12713807037E+00  0.73649092472E+00  0.75879653495E+00  0.51100000000E-03 0. -1.
    9000002    1    1    2    0    0 -0.60042509131E+00 -0.60541880748E+00  0.54585999040E+00  0.13801627990E+01  0.93800000000E+00 0. -1.
         22    1    1    2    0    0  0.46931845841E+00  0.47828073711E+00  0.27176490522E+01  0.27990406660E+01  0.00000000000E+00 0. -1.
</event>
<event>
 5    1  0.3241783E+002  0.1599676E+01  0.7818608E-02  0.3353715E+00
         11   -1    0    0    0    0  0.00000000000E+00  0.00000000000E+00  0.39999999674E+01  0.40000000000E+01  0.51100000000E-03 0.  1.
    9000002   -1    0    0    0    0 -0.00000000000E+00 -0.00000000000E+00  0.00000000000E+00  0.93800000000E+00  0.93800000000E+00 0. -1.
         11    1    1    2    0    0 -0.94587862137E-02  0.34468362093E-01  0.57432298003E+00  0.57543434303E+00  0.51100000000E-03 0. -1.
    9000002    1    1    2    0    0  0.65621502069E-01 -0.23413246872E+00  0.39255764361E-01  0.96979854067E+00  0.93800000000E+00 0. -1.
         22    1    1    2    0    0 -0.56162715855E-01  0.19966410663E+00  0.33864212230E+01  0.33927671163E+01  0.00000000000E+00 0.  1.
</event>
<event>
 5    1  0.3241783E+002  0.1599348E+01  0.7818608E-02  0.3354071E+00
         11   -1    0    0    0    0  0.00000000000E+00  0.00000000000E+00  0.39999999674E+01  0.40000000000E+01  0.51100000000E-03 0. -1.
    9000002   -1    0    0    0    0 -0.00000000000E+00 -0.00000000000E+00  0.00000000000E+00  0.93800000000E+00  0.93800000000E+00 0. -1.
         11    1    1    2    0    0  0.34770291815E-02 -0.28639251201E-02  0.24741426353E-01  0.25153351626E-01  0.51100000000E-03 0. -1.
    9000002    1    1    2    0    0 -0.31458627631E+00 -0.34899395570E-01  0.67198415859E-01  0.99224095871E+00  0.93800000000E+00 0. -1.
         22    1    1    2    0    0  0.31110924713E+00  0.37763320690E-01  0.39080601251E+01  0.39206056897E+01  0.00000000000E+00 0. -1.
</event>
<event>
 5    1  0.3241783E+002  0.1599404E+01  0.7818608E-02  0.3354011E+00
         11   -1    0    0    0    0  0.00000000000E+00  0.00000000000E+00  0.39999999674E+01  0.40000000000E+01  0.51100000000E-03 0. -1.
    9000002   -1    0    0    0    0 -0.00000000000E+00 -0.00000000000E+00  0.00000000000E+00  0.93800000000E+00  0.93800000000E+00 0.  1.
         11    1    1    2    0    0  0.17365970054E-01  0.12250824670E-01  0.56221431124E+00  0.56261607914E+00  0.51100000000E-03 0. -1.
    9000002    1    1    2    0    0 -0.21361364211E+00 -0.12151377611E+00  0.40316208618E-01  0.97049769838E+00  0.93800000000E+00 0.  1.
         22    1    1    2    0    0  0.19624767206E+00  0.10926295144E+00  0.33974694475E+01  0.34048862225E+01  0.00000000000E+00 0. -1.
</event>
<event>
 5    1  0.3241783E+002  0.1595914E+01  0.7818608E-02  0.3357811E+00
         11   -1    0    0    0    0  0.00000000000E+00  0.00000000000E+00  0.39999999674E+01  0.40000000000E+01  0.51100000000E-03 0. -1.
    9000002   -1    0    0    0    0 -0.00000000000E+00 -0.00000000000E+00  0.00000000000E+00  0.93800000000E+00  0.93800000000E+00 0. -1.
         11    1    1    2    0    0 -0.15452662889E+00  0.54947689917E+00  0.16080077900E+01  0.17063096599E+01  0.51100000000E-03 0. -1.
    9000002    1    1    2    0    0  0.39519911194E+00 -0.95618504253E+00  0.88740593261E+00  0.16546315188E+01  0.93800000000E+00 0. -1.
         22    1    1    2    0    0 -0.24067248306E+00  0.40670814336E+00  0.15045862448E+01  0.15770588213E+01  0.00000000000E+00 0.  1.
</event>
<event>
 5    1  0.3241783E+002  0.1599328E+01  0.7818608E-02  0.3354093E+00
         11   -1    0    0    0    0  0.00000000000E+00  0.00000000000E+00  0.39999999674E+01  0.40000000000E+01  0.51100000000E-03 0. -1.
    9000002   -1    0    0    0    0 -0.00000000000E+00 -0.00000000000E+00  0.00000000000E+00  0.93800000000E+00  0.93800000000E+00 0.  1.
         11    1    1    2    0    0 -0.11704206233E+00  0.23377503758E+00  0.13051976133E+01  0.13311238423E+01  0.51100000000E-03 0. -1.
    9000002    1    1    2    0    0  0.27002084224E+00 -0.63704687335E+00  0.34179310498E+00  0.12146631223E+01  0.93800000000E+00 0.  1.
         22    1    1    2    0    0 -0.15297877991E+00  0.40327183576E+00  0.23530092491E+01  0.23922130354E+01  0.00000000000E+00 0. -1.
</event>
<event>
 5    1  0.3241783E+002  0.1599157E+01  0.7818608E-02  0.3354279E+00
         11   -1    0    0    0    0  0.00000000000E+00  0.00000000000E+00  0.39999999674E+01  0.40000000000E+01  0.51100000000E-03 0. -1.
    9000002   -1    0    0    0    0 -0.00000000000E+00 -0.00000000000E+00  0.00000000000E+00  0.93800000000E+00  0.93800000000E+00 0. -1.
         11    1    1    2    0    0 -0.11804811004E+00 -0.98206822136E-01  0.14717145132E+01  0.14797039588E+01  0.51100000000E-03 0. -1.
    9000002    1    1    2    0    0  0.24482370110E+00  0.27768652875E+00  0.92528001424E-01  0.10126469690E+01  0.93800000000E+00 0. -1.
         22    1    1    2    0    0 -0.12677559106E+00 -0.17947970662E+00  0.24357574528E+01  0.24456490722E+01  0.00000000000E+00 0.  1.
</event>
<event>
 5    1  0.3241783E+002  0.1510570E+01  0.7818608E-02  0.3456540E+00
         11   -1    0    0    0    0  0.00000000000E+00  0.00000000000E+00  0.39999999674E+01  0.40000000000E+01  0.51100000000E-03 0. -1.
    9000002   -1    0    0    0    0 -0.00000000000E+00 -0.00000000000E+00  0.00000000000E+00  0.93800000000E+00  0.93800000000E+00 0.  1.
         11    1    1    2    0    0 -0.28577874132E+00 -0.43196606498E-01  0.94404914524E+00  0.98730161832E+00  0.51100000000E-03 0. -1.
    9000002    1    1    2    0    0 -0.88614337492E-01  0.68438399792E-01  0.76544478843E-01  0.94775491168E+00  0.93800000000E+00 0.  1.
         22    1    1    2    0    0  0.37439307881E+00 -0.25241793294E-01  0.29794063433E+01  0.30029434700E+01  0.00000000000E+00 0. -1.
</event>
<event>
 5    1  0.3241783E+002  0.1539538E+01  0.7818608E-02  0.3421719E+00
         11   -1    0    0    0    0  0.00000000000E+00  0.00000000000E+00  0.39999999674E+01  0.40000000000E+01  0.51100000000E-03 0. -1.
    9000002   -1    0    0    0    0 -0.00000000000E+00 -0.00000000000E+00  0.00000000000E+00  0.93800000000E+00  0.93800000000E+00 0.  1.
         11    1    1    2    0    0 -0.21653257729E+00 -0.10348890020E+00  0.92011583063E+00  0.95089942286E+00  0.51100000000E-03 0. -1.
    9000002    1    1    2    0    0  0.52194188555E-01 -0.17801223499E+00  0.69033105550E-01  0.95865643418E+00  0.93800000000E+00 0.  1.
         22    1    1    2    0    0  0.16433838873E+00  0.28150113519E+00  0.30108510312E+01  0.30284441430E+01  0.00000000000E+00 0. -1.
</event>
<event>
 5    1  0.3241783E+002  0.1576340E+01  0.7818608E-02  0.3379451E+00
         11   -1    0    0    0    0  0.00000000000E+00  0.00000000000E+00  0.39999999674E+01  0.40000000000E+01  0.51100000000E-03 0. -1.
    9000002   -1    0    0    0    0 -0.00000000000E+00 -0.00000000000E+00  0.00000000000E+00  0.93800000000E+00  0.93800000000E+00 0.  1.
         11    1    1    2    0    0  0.57357672777E-01  0.34866827246E-01  0.22162125369E+01  0.22172288714E+01  0.51100000000E-03 0. -1.
    9000002    1    1    2    0    0 -0.30930226632E+00 -0.30047726262E+00  0.14609795952E+00  0.10426615420E+01  0.93800000000E+00 0.  1.
         22    1    1    2    0    0  0.25194459354E+00  0.26561043537E+00  0.16376894709E+01  0.16781095866E+01  0.00000000000E+00 0.  1.
</event>
<event>
 5    1  0.3241783E+002  0.1599673E+01  0.7818608E-02  0.3353718E+00
         11   -1    0    0    0    0  0.00000000000E+00  0.00000000000E+00  0.39999999674E+01  0.40000000000E+01  0.51100000000E-03 0. -1.
    9000002   -1    0    0    0    0 -0.00000000000E+00 -0.00000000000E+00  0.00000000000E+00  0.93800000000E+00  0.93800000000E+00 0. -1.
         11    1    1    2    0    0 -0.13205209095E-01 -0.35703505438E-01  0.28894751528E+00  0.29144475558E+00  0.51100000000E-03 0. -1.
    9000002    1    1    2    0    0  0.16048133513E+00  0.46705618660E+00  0.16679324594E+00  0.10731075096E+01  0.93800000000E+00 0. -1.
         22    1    1    2    0    0 -0.14727612604E+00 -0.43135268116E+00  0.35442592061E+01  0.35734477348E+01  0.00000000000E+00 0. -1.
</event>
<event>
 5    1  0.3241783E+002  0.1599008E+01  0.7818608E-02  0.3354441E+00
         11   -1    0    0    0    0  0.00000000000E+00  0.00000000000E+00  0.39999999674E+01  0.40000000000E+01  0.51100000000E-03 0.  1.
    9000002   -1    0    0    0    0 -0.00000000000E+00 -0.00000000000E+00  0.00000000000E+00  0.93800000000E+00  0.93800000000E+00 0. -1.
         11    1    1    2    0    0 -0.29002787092E-01  0.19919076462E-02  0.15967089528E+00  0.16229659663E+00  0.51100000000E-03 0.  1.
    9000002    1    1    2    0    0  0.46513062125E+00  0.14266088577E+00  0.16226883728E+00  0.10690527577E+01  0.93800000000E+00 0. -1.
         22    1    1    2    0    0 -0.43612783416E+00 -0.14465279342E+00  0.36780602348E+01  0.37066506457E+01  0.00000000000E+00 0.  1.
</event>
<event>
 5    1  0.3241783E+002  0.1599673E+01  0.7818608E-02  0.3353718E+00
         11   -1    0    0    0    0  0.00000000000E+00  0.00000000000E+00  0.39999999674E+01  0.40000000000E+01  0.51100000000E-03 0. -1.
    9000002   -1    0    0    0    0 -0.00000000000E+00 -0.00000000000E+00  0.00000000000E+00  0.93800000000E+00  0.93800000000E+00 0. -1.
         11    1    1    2    0    0  0.65102598767E-01 -0.23497439275E-01  0.67500646871E+00  0.67854585103E+00  0.51100000000E-03 0. -1.
    9000002    1    1    2    0    0 -0.36595199407E+00  0.13373675690E+00  0.10226535481E+00  0.10208371980E+01  0.93800000000E+00 0. -1.
         22    1    1    2    0    0  0.30084939530E+00 -0.11023931763E+00  0.32227281438E+01  0.32386169509E+01  0.00000000000E+00 0. -1.
</event>
<event>
 5    1  0.3241783E+002  0.1503251E+01  0.7818608E-02  0.3465566E+00
         11   -1    0    0    0    0  0.00000000000E+00  0.00000000000E+00  0.39999999674E+01  0.40000000000E+01  0.51100000000E-03 0. -1.
    9000002   -1    0    0    0    0 -0.00000000000E+00 -0.00000000000E+00  0.00000000000E+00  0.93800000000E+00  0.93800000000E+00 0.  1.
         11    1    1    2    0    0  0.33926299552E-01 -0.35660575025E+00  0.93758754759E+00  0.10036878626E+01  0.51100000000E-03 0. -1.
    9000002    1    1    2    0    0  0.11581977203E+00  0.16461732898E+00  0.10296101847E+00  0.96486167709E+00  0.93800000000E+00 0.  1.
         22    1    1    2    0    0 -0.14974607158E+00  0.19198842127E+00  0.29594514013E+01  0.29694504604E+01  0.00000000000E+00 0. -1.
</event>
<event>
 5    1  0.3241783E+002  0.1598042E+01  0.7818608E-02  0.3355491E+00
         11   -1    0    0    0    0  0.00000000000E+00  0.00000000000E+00  0.39999999674E+01  0.40000000000E+01  0.51100000000E-03 0. -1.
    9000002   -1    0    0    0    0 -0.00000000000E+00 -0.00000000000E+00  0.00000000000E+00  0.93800000000E+00  0.93800000000E+00 0. -1.
         11    1    1    2    0    0 -0.34638204607E+00 -0.12093356470E+00  0.26080201377E+01  0.26336998213E+01  0.51100000000E-03 0. -1.
    9000002    1    1    2    0    0  0.51828646222E+00  0.23804750672E+00  0.22714377497E+00  0.11210378080E+01  0.93800000000E+00 0. -1.
         22    1    1    2    0    0 -0.17190441615E+00 -0.11711394202E+00  0.11648360547E+01  0.11832623708E+01  0.00000000000E+00 0.  1.
</event>
<event>
 5    1  0.3241783E+002  0.1599676E+01  0.7818608E-02  0.3353716E+00
         11   -1    0    0    0    0  0.00000000000E+00  0.00000000000E+00  0.39999999674E+01  0.40000000000E+01  0.51100000000E-03 0. -1.
    9000002   -1    0    0    0    0 -0.00000000000E+00 -0.00000000000E+00  0.00000000000E+00  0.93800000000E+00  0.93800000000E+00 0. -1.
         11    1    1    2    0    0 -0.99611633290E-02 -0.32032728366E-01  0.52067042657E+00  0.52175020335E+00  0.51100000000E-03 0. -1.
    9000002    1    1    2    0    0  0.70361118073E-01  0.23904263371E+00  0.41245719376E-01  0.97140994283E+00  0.93800000000E+00 0. -1.
         22    1    1    2    0    0 -0.60399954744E-01 -0.20700990534E+00  0.34380838214E+01  0.34448398538E+01  0.00000000000E+00 0. -1.
</event>
<event>
 5    1  0.3241783E+002  0.1456943E+01  0.7818608E-02  0.3524947E+00
         11   -1    0    0    0    0  0.00000000000E+00  0.00000000000E+00  0.39999999674E+01  0.40000000000E+01  0.51100000000E-03 0.  1.
    9000002   -1    0    0    0    0 -0.00000000000E+00 -0.00000000000E+00  0.00000000000E+00  0.93800000000E+00  0.93800000000E+00 0. -1.
         11    1    1    2    0    0 -0.26784236636E+00  0.13999155723E+00  0.49196319127E+00  0.57737787626E+00  0.51100000000E-03 0.  1.
    9000002    1    1    2    0    0 -0.22402447244E-02  0.14024247957E+00  0.12657677838E+00  0.95683784028E+00  0.93800000000E+00 0. -1.
         22    1    1    2    0    0  0.27008261108E+00 -0.28023403680E+00  0.33814599977E+01  0.34037842835E+01  0.00000000000E+00 0.  1.
</event>
<event>
 5    1  0.3241783E+002  0.1599675E+01  0.7818608E-02  0.3353716E+00
         11   -1    0    0    0    0  0.00000000000E+00  0.00000000000E+00  0.39999999674E+01  0.40000000000E+01  0.51100000000E-03 0. -1.
    9000002   -1    0    0    0    0 -0.00000000000E+00 -0.00000000000E+00  0.00000000000E+00  0.93800000000E+00  0.93800000000E+00 0. -1.
         11    1    1    2    0    0 -0.31503500817E-03 -0.47598908671E-01  0.72474160805E+00  0.72630325272E+00  0.51100000000E-03 0. -1.
    9000002    1    1    2    0    0  0.62502878301E-02  0.26494620039E+00  0.46713737898E-01  0.97583898698E+00  0.93800000000E+00 0. -1.
         22    1    1    2    0    0 -0.59352528219E-02 -0.21734729172E+00  0.32285446214E+01  0.32358577603E+01  0.00000000000E+00 0. -1.
</event>
<event>
 5    1  0.3241783E+002  0.1594250E+01  0.7818608E-02  0.3359628E+00
         11   -1    0    0    0    0  0.00000000000E+00  0.00000000000E+00  0.39999999674E+01  0.40000000000E+01  0.51100000000E-03 0. -1.
    9000002   -1    0    0    0    0 -0.00000000000E+00 -0.00000000000E+00  0.00000000000E+00  0.93800000000E+00  0.93800000000E+00 0. -1.
         11    1    1    2    0    0  0.20831802706E+00 -0.20870580349E-01  0.12200453995E+01  0.12378784349E+01  0.51100000000E-03 0. -1.
    9000002    1    1    2    0    0 -0.40469289958E+00  0.12359444038E+00  0.12575115137E+00  0.10366818609E+01  0.93800000000E+00 0. -1.
         22    1    1    2    0    0  0.19637487252E+00 -0.10272386003E+00  0.26542034165E+01  0.26634397042E+01  0.00000000000E+00 0. -1.
</event>
<event>
 5    1  0.3241783E+002  0.1599527E+01  0.7818608E-02  0.3353877E+00
         11   -1    0    0    0    0  0.00000000000E+00  0.00000000000E+00  0.39999999674E+01  0.40000000000E+01  0.51100000000E-03 0. -1.
    9000002   -1    0    0    0    0 -0.00000000000E+00 -0.00000000000E+00  0.00000000000E+00  0.93800000000E+00  0.93800000000E+00 0.  1.
         11    1    1    2    0    0  0.43135237971E+00  0.19415442302E+00  0.18194515380E+01  0.18799374925E+01  0.51100000000E-03 0. -1.
    9000002    1    1    2    0    0 -0.78578735680E+00 -0.37470051609E+00  0.57321453287E+00  0.14022414726E+01  0.93800000000E+00 0. -1.
         22    1    1    2    0    0  0.35443497709E+00  0.18054609307E+00  0.16073338965E+01  0.16558210348E+01  0.00000000000E+00 0.  1.
</event>
<event>
 5    1  0.3241783E+002  0.1551061E+01  0.7818608E-02  0.3408255E+00
         11   -1    0    0    0    0  0.00000000000E+00  0.00000000000E+00  0.39999999674E+01  0.40000000000E+01  0.51100000000E-03 0. -1.
    9000002   -1    0    0    0    0 -0.00000000000E+00 -0.00000000000E+00  0.00000000000E+00  0.93800000000E+00  0.93800000000E+00 0. -1.
         11    1    1    2    0    0 -0.35950677048E-01  0.10838303154E+00  0.13571493982E+00  0.17736442348E+00  0.51100000000E-03 0. -1.
    9000002    1    1    2    0    0  0.25389131465E+00 -0.19287413985E+00  0.10743135312E+00  0.99651729996E+00  0.93800000000E+00 0. -1.
         22    1    1    2    0    0 -0.21794063760E+00  0.84491108310E-01  0.37568536744E+01  0.37641182766E+01  0.00000000000E+00 0. -1.
</event>
<event>
 5    1  0.3241783E+002  0.1599647E+01  0.7818608E-02  0.3353747E+00
         11   -1    0    0    0    0  0.00000000000E+00  0.00000000000E+00  0.39999999674E+01  0.40000000000E+01  0.51100000000E-03 0. -1.
    9000002   -1    0    0    0    0 -0.00000000000E+00 -0.00000000000E+00  0.00000000000E+00  0.93800000000E+00  0.93800000000E+00 0.  1.
         11    1    1    2    0    0 -0.52288893063E-01  0.92027363476E-03  0.51208252213E+00  0.51474629268E+00  0.51100000000E-03 0. -1.
    9000002    1    1    2    0    0  0.37979437480E+00 -0.35395717476E-01  0.97937915981E-01  0.10173163025E+01  0.93800000000E+00 0.  1.
         22    1    1    2    0    0 -0.32750548174E+00  0.34475443842E-01  0.33899795293E+01  0.34059374048E+01  0.00000000000E+00 0. -1.
</event>
<event>
 5    1  0.3241783E+002  0.1599238E+01  0.7818608E-02  0.3354191E+00
         11   -1    0    0    0    0  0.00000000000E+00  0.00000000000E+00  0.39999999674E+01  0.40000000000E+01  0.51100000000E-03 0.  1.
    9000002   -1    0    0    0    0 -0.00000000000E+00 -0.00000000000E+00  0.00000000000E+00  0.93800000000E+00  0.93800000000E+00 0.  1.
         11    1    1    2    0    0 -0.37467625647E-03  0.14264877287E-02  0.15476088360E+00  0.15476875481E+00  0.51100000000E-03 0.  1.
    9000002    1    1    2    0    0  0.21286942284E+00 -0.18101092488E+00  0.52331106236E-01  0.98013309851E+00  0.93800000000E+00 0.  1.
         22    1    1    2    0    0 -0.21249474659E+00  0.17958443716E+00  0.37929079775E+01  0.38030981467E+01  0.00000000000E+00 0.  1.
</event>
<event>
 5    1  0.3241783E+002  0.1599677E+01  0.7818608E-02  0.3353714E+00
         11   -1    0    0    0    0  0.00000000000E+00  0.00000000000E+00  0.39999999674E+01  0.40000000000E+01  0.51100000000E-03 0. -1.
    9000002   -1    0    0    0    0 -0.00000000000E+00 -0.00000000000E+00  0.00000000000E+00  0.93800000000E+00  0.93800000000E+00 0. -1.
         11    1    1    2    0    0  0.23218067457E+00  0.39234553087E-01  0.19844111265E+01  0.19983330543E+01  0.51100000000E-03 0. -1.
    9000002    1    1    2    0    0 -0.45236613331E+00 -0.75708402971E-01  0.14306274245E+00  0.10538870097E+01  0.93800000000E+00 0. -1.
         22    1    1    2    0    0  0.22018545874E+00  0.36473849883E-01  0.18725260984E+01  0.18857799361E+01  0.00000000000E+00 0. -1.
</event>
<event>
 5    1  0.3241783E+002  0.1561450E+01  0.7818608E-02  0.3396298E+00
         11   -1    0    0    0    0  0.00000000000E+00  0.00000000000E+00  0.39999999674E+01  0.40000000000E+01  0.51100000000E-03 0.  1.
    9000002   -1    0    0    0    0 -0.00000000000E+00 -0.00000000000E+00  0.00000000000E+00  0.93800000000E+00  0.93800000000E+00 0. -1.
         11    1    1    2    0    0 -0.59189994230E-01  0.25492192920E+00  0.17074500846E+01  0.17273895617E+01  0.51100000000E-03 0.  1.
    9000002    1    1    2    0    0 -0.13582547826E+00 -0.12434223712E+00  0.51485275736E-01  0.95729007417E+00  0.93800000000E+00 0. -1.
         22    1    1    2    0    0  0.19501547249E+00 -0.13057969208E+00  0.22410646070E+01  0.22533203641E+01  0.00000000000E+00 0.  1.
</event>
<event>
 5    1  0.3241783E+002  0.1599677E+01  0.7818608E-02  0.3353714E+00
         11   -1    0    0    0    0  0.00000000000E+00  0.00000000000E+00  0.39999999674E+01  0.40000000000E+01  0.51100000000E-03 0.  1.
    9000002   -1    0    0    0    0 -0.00000000000E+00 -0.00000000000E+00  0.00000000000E+00  0.93800000000E+00  0.93800000000E+00 0. -1.
         11    1    1    2    0    0 -0.63298810495E-01 -0.76852632332E-01  0.99597724751E+00  0.10009415593E+01  0.51100000000E-03 0.  1.
    9000002    1    1    2    0    0  0.24722271232E+00  0.30285403106E+00  0.10297550675E+00  0.10214145038E+01  0.93800000000E+00 0. -1.
         22    1    1    2    0    0 -0.18392390183E+00 -0.22600139873E+00  0.29010472131E+01  0.29156439369E+01  0.00000000000E+00 0. -1.
</event>
<event>
 5    1  0.3241783E+002  0.1599620E+01  0.7818608E-02  0.3353776E+00
         11   -1    0    0    0    0  0.00000000000E+00  0.00000000000E+00  0.39999999674E+01  0.40000000000E+01  0.51100000000E-03 0. -1.
    9000002   -1    0    0    0    0 -0.00000000000E+00 -0.00000000000E+00  0.00000000000E+00  0.93800000000E+00  0.93800000000E+00 0. -1.
         11    1    1    2    0    0  0.92601416352E-01  0.31581337955E-01  0.10401989156E+01  0.10447901456E+01  0.51100000000E-03 0. -1.
    9000002    1    1    2    0    0 -0.37502631950E+00 -0.10746589118E+00  0.10257622703E+00  0.10210580495E+01  0.93800000000E+00 0. -1.
         22    1    1    2    0    0  0.28242490315E+00  0.75884553224E-01  0.28572248247E+01  0.28721518049E+01  0.00000000000E+00 0. -1.
</event>
<event>
 5    1  0.3241783E+002  0.1599653E+01  0.7818608E-02  0.3353741E+00
         11   -1    0    0    0    0  0.00000000000E+00  0.00000000000E+00  0.39999999674E+01  0.40000000000E+01  0.51100000000E-03 0. -1.
    9000002   -1    0    0    0    0 -0.00000000000E+00 -0.00000000000E+00  0.00000000000E+00  0.93800000000E+00  0.93800000000E+00 0.  1.
         11    1    1    2    0    0 -0.17486835179E-01  0.12520490404E-01  0.29033953805E+00  0.29113546771E+00  0.51100000000E-03 0. -1.
    9000002    1    1    2    0    0  0.27669211820E+00 -0.18097127286E+00  0.73160696324E-01  0.99724902475E+00  0.93800000000E+00 0.  1.
         22    1    1    2    0    0 -0.25920528302E+00  0.16845078246E+00  0.36364997330E+01  0.36496155075E+01  0.00000000000E+00 0. -1.
</event>
<event>
 5    1  0.3241783E+002  0.1599642E+01  0.7818608E-02  0.3353752E+00
         11   -1    0    0    0    0  0.00000000000E+00  0.00000000000E+00  0.39999999674E+01  0.40000000000E+01  0.51100000000E-03 0. -1.
    9000002   -1    0    0    0    0 -0.00000000000E+00 -0.00000000000E+00  0.00000000000E+00  0.93800000000E+00  0.93800000000E+00 0.  1.
         11    1    1    2    0    0 -0.11974189716E+00  0.14736489010E+00  0.69292672633E+00  0.71847215810E+00  0.51100000000E-03 0. -1.
    9000002    1    1    2    0    0  0.58664024676E+00 -0.68894101855E+00  0.62810135285E+00  0.14467694411E+01  0.93800000000E+00 0.  1.
         22    1    1    2    0    0 -0.46689834960E+00  0.54157612845E+00  0.26789718882E+01  0.27727584008E+01  0.00000000000E+00 0. -1.
</event>
<event>
 5    1  0.3241783E+002  0.1599675E+01  0.7818608E-02  0.3353716E+00
         11   -1    0    0    0    0  0.00000000000E+00  0.00000000000E+00  0.39999999674E+01  0.40000000000E+01  0.51100000000E-03 0. -1.
    9000002   -1    0    0    0    0 -0.00000000000E+00 -0.00000000000E+00  0.00000000000E+00  0.93800000000E+00  0.93800000000E+00 0.  1.
         11    1    1    2    0    0  0.21486094247E+00 -0.17791846955E+00  0.22271892234E+01  0.22445917901E+01  0.51100000000E-03 0. -1.
    9000002    1    1    2    0    0 -0.36978181895E+00  0.30450424513E+00  0.15654287724E+00  0.10648056637E+01  0.93800000000E+00 0.  1.
         22    1    1    2    0    0  0.15492087648E+00 -0.12658577557E+00  0.16162678667E+01  0.16286025462E+01  0.00000000000E+00 0. -1.
</event>
<event>
 5    1  0.3241783E+002  0.1599668E+01  0.7818608E-02  0.3353724E+00
         11   -1    0    0    0    0  0.00000000000E+00  0.00000000000E+00  0.39999999674E+01  0.40000000000E+01  0.51100000000E-03 0. -1.
    9000002   -1    0    0    0    0 -0.00000000000E+00 -0.00000000000E+00  0.00000000000E+00  0.93800000000E+00  0.93800000000E+00 0. -1.
         11    1    1    2    0    0  0.81130920914E-04 -0.66342895304E-02  0.98290786609E-01  0.98515786719E-01  0.51100000000E-03 0. -1.
    9000002    1    1    2    0    0  0.35365449933E-01  0.25607979751E+00  0.44429097842E-01  0.97398435433E+00  0.93800000000E+00 0. -1.
         22    1    1    2    0    0 -0.35446580854E-01 -0.24944550798E+00  0.38572800829E+01  0.38654998590E+01  0.00000000000E+00 0. -1.
</event>
<event>
 5    1  0.3241783E+002  0.1531026E+01  0.7818608E-02  0.3431805E+00
         11   -1    0    0    0    0  0.00000000000E+00  0.00000000000E+00  0.39999999674E+01  0.40000000000E+01  0.51100000000E-03 0.  1.
    9000002   -1    0    0    0    0 -0.00000000000E+00 -0.00000000000E+00  0.00000000000E+00  0.93800000000E+00  0.93800000000E+00 0. -1.
         11    1    1    2    0    0 -0.45364155580E-01 -0.27304067508E+00  0.91253975253E+00  0.95359224930E+00  0.51100000000E-03 0.  1.
    9000002    1    1    2    0    0 -0.15549465032E+00  0.77160574643E-01  0.72778333099E-01  0.95669902599E+00  0.93800000000E+00 0. -1.
         22    1    1    2    0    0  0.20085880590E+00  0.19588010044E+00  0.30146818817E+01  0.30277087247E+01  0.00000000000E+00 0.  1.
</event>
<event>
 5    1  0.3241783E+002  0.1599677E+01  0.7818608E-02  0.3353714E+00
         11   -1    0    0    0    0  0.00000000000E+00  0.00000000000E+00  0.39999999674E+01  0.40000000000E+01  0.51100000000E-03 0. -1.
    9000002   -1    0    0    0    0 -0.00000000000E+00 -0.00000000000E+00  0.00000000000E+00  0.93800000000E+00  0.93800000000E+00 0. -1.
         11    1    1    2    0    0 -0.51794911961E+00 -0.65584719724E+00  0.16722488976E+01  0.18694446965E+01  0.51100000000E-03 0.  1.
    9000002    1    1    2    0    0  0.76418564256E+00  0.96800591651E+00  0.15317716065E+01  0.21788032048E+01  0.93800000000E+00 0. -1.
         22    1    1    2    0    0 -0.24623652294E+00 -0.31215871927E+00  0.79597946325E+00  0.88975209871E+00  0.00000000000E+00 0. -1.
</event>
<event>
 5    1  0.3241783E+002  0.1599677E+01  0.7818608E-02  0.3353714E+00
         11   -1    0    0    0    0  0.00000000000E+00  0.00000000000E+00  0.39999999674E+01  0.40000000000E+01  0.51100000000E-03 0.  1.
    9000002   -1    0    0    0    0 -0.00000000000E+00 -0.00000000000E+00  0.00000000000E+00  0.93800000000E+00  0.93800000000E+00 0.  1.
         11    1    1    2    0    0 -0.37765459605E-01  0.14526088195E+00  0.13722289713E+01  0.13804128240E+01  0.51100000000E-03 0.  1.
    9000002    1    1    2    0    0  0.10576448949E+00 -0.40996813276E+00  0.12129057468E+00  0.10362506457E+01  0.93800000000E+00 0.  1.
         22    1    1    2    0    0 -0.67999029884E-01  0.26470725080E+00  0.25064804213E+01  0.25213365303E+01  0.00000000000E+00 0. -1.
</event>
<event>
 5    1  0.3241783E+002  0.1599340E+01  0.7818608E-02  0.3354080E+00
         11   -1    0    0    0    0  0.00000000000E+00  0.00000000000E+00  0.39999999674E+01  0.40000000000E+01  0.51100000000E-03 0.  1.
    9000002   -1    0    0    0    0 -0.00000000000E+00 -0.00000000000E+00  0.00000000000E+00  0.93800000000E+00  0.93800000000E+00 0. -1.
         11    1    1    2    0    0 -0.53599322043E-01 -0.67416645911E-01  0.78987251159E+00  0.79455442681E+00  0.51100000000E-03 0.  1.
    9000002    1    1    2    0    0  0.29845161085E+00  0.25184032276E+00  0.10301710474E+00  0.10212509173E+01  0.93800000000E+00 0. -1.
         22    1    1    2    0    0 -0.24485228881E+00 -0.18442367685E+00  0.31071103510E+01  0.31221946559E+01  0.00000000000E+00 0.  1.
</event>
<event>
 5    1  0.3241783E+002  0.1596019E+01  0.7818608E-02  0.3357696E+00
         11   -1    0    0    0    0  0.00000000000E+00  0.00000000000E+00  0.39999999674E+01  0.40000000000E+01  0.51100000000E-03 0.  1.
    9000002   -1    0    0    0    0 -0.00000000000E+00 -0.00000000000E+00  0.00000000000E+00  0.93800000000E+00  0.93800000000E+00 0. -1.
         11    1    1    2    0    0  0.77428201940E-01  0.84962564649E-01  0.10061451087E+01  0.10126904782E+01  0.51100000000E-03 0.  1.
    9000002    1    1    2    0    0 -0.55160850334E-01 -0.30953574373E+00  0.68929076593E-01  0.99169063405E+00  0.93800000000E+00 0. -1.
         22    1    1    2    0    0 -0.22267351606E-01  0.22457317908E+00  0.29249257821E+01  0.29336188877E+01  0.00000000000E+00 0.  1.
</event>
<event>
 5    1  0.3241783E+002  0.1590852E+01  0.7818608E-02  0.3363352E+00
         11   -1    0    0    0    0  0.00000000000E+00  0.00000000000E+00  0.39999999674E+01  0.40000000000E+01  0.51100000000E-03 0.  1.
    9000002   -1    0    0    0    0 -0.00000000000E+00 -0.00000000000E+00  0.00000000000E+00  0.93800000000E+00  0.93800000000E+00 0.  1.
         11    1    1    2    0    0  0.65096802788E-01 -0.17229795109E-01  0.24363302958E+00  0.25276822149E+00  0.51100000000E-03 0.  1.
    9000002    1    1    2    0    0 -0.25005304823E+00 -0.10515744361E+00  0.55805226144E-01  0.97803008039E+00  0.93800000000E+00 0.  1.
         22    1    1    2    0    0  0.18495624544E+00  0.12238723872E+00  0.37005617116E+01  0.37072016981E+01  0.00000000000E+00 0.  1.
</event>
<event>
 5    1  0.3241783E+002  0.1596529E+01  0.7818608E-02  0.3357139E+00
         11   -1    0    0    0    0  0.00000000000E+00  0.00000000000E+00  0.39999999674E+01  0.40000000000E+01  0.51100000000E-03 0. -1.
    9000002   -1    0    0    0    0 -0.00000000000E+00 -0.00000000000E+00  0.00000000000E+00  0.93800000000E+00  0.93800000000E+00 0. -1.
         11    1    1    2    0    0  0.13308241073E-01 -0.93475668167E-02  0.78129343577E-01  0.79805649766E-01  0.51100000000E-03 0. -1.
    9000002    1    1    2    0    0  0.21263578741E+00  0.12156374857E+00  0.42240916652E-01  0.97037107237E+00  0.93800000000E+00 0. -1.
         22    1    1    2    0    0 -0.22594402848E+00 -0.11221618175E+00  0.38796297071E+01  0.38878232779E+01  0.00000000000E+00 0. -1.
</event>
<event>
 5    1  0.3241783E+002  0.1598829E+01  0.7818608E-02  0.3354635E+00
         11   -1    0    0    0    0  0.00000000000E+00  0.00000000000E+00  0.39999999674E+01  0.40000000000E+01  0.51100000000E-03 0.  1.
    9000002   -1    0    0    0    0 -0.00000000000E+00 -0.00000000000E+00  0.00000000000E+00  0.93800000000E+00  0.93800000000E+00 0. -1.
         11    1    1    2    0    0  0.17442398611E+00  0.18957037686E+00  0.18343041009E+01  0.18523046322E+01  0.51100000000E-03 0.  1.
    9000002    1    1    2    0    0 -0.29707837078E+00 -0.37024903270E+00  0.15437183147E+00  0.10625509715E+01  0.93800000000E+00 0. -1.
         22    1    1    2    0    0  0.12265438467E+00  0.18067865584E+00  0.20113240350E+01  0.20231443963E+01  0.00000000000E+00 0.  1.
</event>
<event>
 5    1  0.3241783E+002  0.1599377E+01  0.7818608E-02  0.3354040E+00
         11   -1    0    0    0    0  0.00000000000E+00  0.00000000000E+00  0.39999999674E+01  0.40000000000E+01  0.51100000000E-03 0. -1.
    9000002   -1    0    0    0    0 -0.00000000000E+00 -0.00000000000E+00  0.00000000000E+00  0.93800000000E+00  0.93800000000E+00 0. -1.
         11    1    1    2    0    0  0.72603759688E-01 -0.20594271703E-01  0.60736468823E+00  0.61203558359E+00  0.51100000000E-03 0. -1.
    9000002    1    1    2    0    0 -0.36821493102E+00  0.13441908962E+00  0.10378376613E+00  0.10218932416E+01  0.93800000000E+00 0. -1.
         22    1    1    2    0    0  0.29561117133E+00 -0.11382481792E+00  0.32888515130E+01  0.33040711748E+01  0.00000000000E+00 0. -1.
</event>
<event>
 5    1  0.3241783E+002  0.1599674E+01  0.7818608E-02  0.3353717E+00
         11   -1    0    0    0    0  0.00000000000E+00  0.00000000000E+00  0.39999999674E+01  0.40000000000E+01  0.51100000000E-03 0. -1.
    9000002   -1    0    0    0    0 -0.00000000000E+00 -0.00000000000E+00  0.00000000000E+00  0.93800000000E+00  0.93800000000E+00 0. -1.
         11    1    1    2    0    0 -0.67892221100E-01  0.38807480700E-01  0.95517350951E+00  0.95836948441E+00  0.51100000000E-03 0. -1.
    9000002    1    1    2    0    0  0.27211601089E+00 -0.16041690557E+00  0.66668713071E-01  0.99200273401E+00  0.93800000000E+00 0. -1.
         22    1    1    2    0    0 -0.20422378979E+00  0.12160942487E+00  0.29781577448E+01  0.29876277816E+01  0.00000000000E+00 0. -1.
</event>
<event>
 5    1  0.3241783E+002  0.1599677E+01  0.7818608E-02  0.3353714E+00
         11   -1    0    0    0    0  0.00000000000E+00  0.00000000000E+00  0.39999999674E+01  0.40000000000E+01  0.51100000000E-03 0. -1.
    9000002   -1    0    0    0    0 -0.00000000000E+00 -0.00000000000E+00  0.00000000000E+00  0.93800000000E+00  0.93800000000E+00 0.  1.
         11    1    1    2    0    0 -0.17302118390E+00  0.61969660000E+00  0.23175146455E+01  0.24051683100E+01  0.51100000000E-03 0. -1.
    9000002    1    1    2    0    0  0.24847020446E+00 -0.89257360966E+00  0.66491716671E+00  0.14766123153E+01  0.93800000000E+00 0.  1.
         22    1    1    2    0    0 -0.75449020565E-01  0.27287700967E+00  0.10175681551E+01  0.10562193747E+01  0.00000000000E+00 0. -1.
</event>
<event>
 5    1  0.3241783E+002  0.1599654E+01  0.7818608E-02  0.3353739E+00
         11   -1    0    0    0    0  0.00000000000E+00  0.00000000000E+00  0.39999999674E+01  0.40000000000E+01  0.51100000000E-03 0.  1.
    9000002   -1    0    0    0    0 -0.00000000000E+00 -0.00000000000E+00  0.00000000000E+00  0.93800000000E+00  0.93800000000E+00 0.  1.
         11    1    1    2    0    0 -0.42796919149E-01  0.76051274982E-01  0.11755788197E+01  0.11788134692E+01  0.51100000000E-03 0.  1.
    9000002    1    1    2    0    0  0.12815702320E+00 -0.26387287561E+00  0.57389953643E-01  0.98447484674E+00  0.93800000000E+00 0.  1.
         22    1    1    2    0    0 -0.85360104054E-01  0.18782160062E+00  0.27670311940E+01  0.27747116841E+01  0.00000000000E+00 0.  1.
</event>
<event>
 5    1  0.3241783E+002  0.1599619E+01  0.7818608E-02  0.3353777E+00
         11   -1    0    0    0    0  0.00000000000E+00  0.00000000000E+00  0.39999999674E+01  0.40000000000E+01  0.51100000000E-03 0. -1.
    9000002   -1    0    0    0    0 -0.00000000000E+00 -0.00000000000E+00  0.00000000000E+00  0.93800000000E+00  0.93800000000E+00 0. -1.
         11    1    1    2    0    0  0.11572923839E+00 -0.71574081116E-01  0.15553704732E+01  0.15613115242E+01  0.51100000000E-03 0. -1.
    9000002    1    1    2    0    0 -0.31038253645E+00  0.16792440970E+00  0.83576261238E-01  0.10056664048E+01  0.93800000000E+00 0. -1.
         22    1    1    2    0    0  0.19465329806E+00 -0.96350328584E-01  0.23610532329E+01  0.23710220709E+01  0.00000000000E+00 0. -1.
</event>
<event>
 5    1  0.3241783E+002  0.1599675E+01  0.7818608E-02  0.3353717E+00
         11   -1    0    0    0    0  0.00000000000E+00  0.00000000000E+00  0.39999999674E+01  0.40000000000E+01  0.51100000000E-03 0. -1.
    9000002   -1    0    0    0    0 -0.00000000000E+00 -0.00000000000E+00  0.00000000000E+00  0.93800000000E+00  0.93800000000E+00 0. -1.
         11    1    1    2    0    0  0.28530269109E+00  0.73697380719E-01  0.18235087231E+01  0.18471635699E+01  0.51100000000E-03 0. -1.
    9000002    1    1    2    0    0 -0.58472750267E+00 -0.14771563145E+00  0.25394239318E+00  0.11437031517E+01  0.93800000000E+00 0. -1.
         22    1    1    2    0    0  0.29942481158E+00  0.74018250731E-01  0.19225488511E+01  0.19471332784E+01  0.00000000000E+00 0. -1.
</event>
<event>
 5    1  0.3241783E+002  0.1599570E+01  0.7818608E-02  0.3353831E+00
         11   -1    0    0    0    0  0.00000000000E+00  0.00000000000E+00  0.39999999674E+01  0.40000000000E+01  0.51100000000E-03 0.  1.
    9000002   -1    0    0    0    0 -0.00000000000E+00 -0.00000000000E+00  0.00000000000E+00  0.93800000000E+00  0.93800000000E+00 0. -1.
         11    1    1    2    0    0  0.44213705790E-01  0.15488345966E-01  0.74929054286E+00  0.75075383408E+00  0.51100000000E-03 0.  1.
    9000002    1    1    2    0    0 -0.25524091967E+00 -0.35060901694E-01  0.44202237208E-01  0.97374279544E+00  0.93800000000E+00 0. -1.
         22    1    1    2    0    0  0.21102721388E+00  0.19572555729E-01  0.32065071873E+01  0.32135033705E+01  0.00000000000E+00 0.  1.
</event>
<event>
 5    1  0.3241783E+002  0.1599677E+01  0.7818608E-02  0.3353714E+00
         11   -1    0    0    0    0  0.00000000000E+00  0.00000000000E+00  0.39999999674E+01  0.40000000000E+01  0.51100000000E-03 0. -1.
    9000002   -1    0    0    0    0 -0.00000000000E+00 -0.00000000000E+00  0.00000000000E+00  0.93800000000E+00  0.93800000000E+00 0.  1.
         11    1    1    2    0    0 -0.56901102475E-01 -0.67783699304E-01  0.99334453862E+00  0.99727929833E+00  0.51100000000E-03 0.  1.
    9000002    1    1    2    0    0  0.22653396787E+00  0.26773975625E+00  0.82481051421E-01  0.10048130869E+01  0.93800000000E+00 0.  1.
         22    1    1    2    0    0 -0.16963286540E+00 -0.19995605695E+00  0.29241743773E+01  0.29359076148E+01  0.00000000000E+00 0. -1.
</event>
<event>
 5    1  0.3241783E+002  0.1589227E+01  0.7818608E-02  0.3365140E+00
         11   -1    0    0    0    0  0.00000000000E+00  0.00000000000E+00  0.39999999674E+01  0.40000000000E+01  0.51100000000E-03 0. -1.
    9000002   -1    0    0    0    0 -0.00000000000E+00 -0.00000000000E+00  0.00000000000E+00  0.93800000000E+00  0.93800000000E+00 0. -1.
         11    1    1    2    0    0 -0.87377394380E-01 -0.38846656333E-01  0.10554106760E+01  0.10597338476E+01  0.51100000000E-03 0. -1.
    9000002    1    1    2    0    0 -0.80086243626E-01  0.15147442310E+00  0.27204215342E-01  0.95390899807E+00  0.93800000000E+00 0. -1.
         22    1    1    2    0    0  0.16746363801E+00 -0.11262776676E+00  0.29173850760E+01  0.29243571543E+01  0.00000000000E+00 0. -1.
</event>
<event>
 5    1  0.3241783E+002  0.1599624E+01  0.7818608E-02  0.3353771E+00
         11   -1    0    0    0    0  0.00000000000E+00  0.00000000000E+00  0.39999999674E+01  0.40000000000E+01  0.51100000000E-03 0.  1.
    9000002   -1    0    0    0    0 -0.00000000000E+00 -0.00000000000E+00  0.00000000000E+00  0.93800000000E+00  0.93800000000E+00 0.  1.
         11    1    1    2    0    0 -0.35101755273E+00 -0.57634077755E-01  0.20134104919E+01  0.20445921548E+01  0.51100000000E-03 0.  1.
    9000002    1    1    2    0    0  0.65637126907E+00  0.96658704699E-01  0.31167851484E+00  0.11904426255E+01  0.93800000000E+00 0.  1.
         22    1    1    2    0    0 -0.30535371634E+00 -0.39024626944E-01  0.16749109606E+01  0.17029652197E+01  0.00000000000E+00 0. -1.
</event>
<event>
 5    1  0.3241783E+002  0.1562166E+01  0.7818608E-02  0.3395479E+00
         11   -1    0    0    0    0  0.00000000000E+00  0.00000000000E+00  0.39999999674E+01  0.40000000000E+01  0.51100000000E-03 0. -1.
    9000002   -1    0    0    0    0 -0.00000000000E+00 -0.00000000000E+00  0.00000000000E+00  0.93800000000E+00  0.93800000000E+00 0.  1.
         11    1    1    2    0    0 -0.14977051202E+00  0.16046269044E+00  0.17901941816E+01  0.18036005517E+01  0.51100000000E-03 0. -1.
    9000002    1    1    2    0    0  0.67184337878E-01  0.84960282447E-01  0.35679574366E-01  0.94490688265E+00  0.93800000000E+00 0.  1.
         22    1    1    2    0    0  0.82586174140E-01 -0.24542297289E+00  0.21741262114E+01  0.21894925657E+01  0.00000000000E+00 0.  1.
</event>
<event>
 5    1  0.3241783E+002  0.1599637E+01  0.7818608E-02  0.3353757E+00
         11   -1    0    0    0    0  0.00000000000E+00  0.00000000000E+00  0.39999999674E+01  0.40000000000E+01  0.51100000000E-03 0. -1.
    9000002   -1    0    0    0    0 -0.00000000000E+00 -0.00000000000E+00  0.00000000000E+00  0.93800000000E+00  0.93800000000E+00 0. -1.
         11    1    1    2    0    0  0.69617469052E-01 -0.11305899261E+00  0.12928799566E+01  0.12996798726E+01  0.51100000000E-03 0. -1.
    9000002    1    1    2    0    0 -0.18994177961E+00  0.33310090786E+00  0.99004823911E-01  0.10181748620E+01  0.93800000000E+00 0. -1.
         22    1    1    2    0    0  0.12032431056E+00 -0.22004191524E+00  0.26081151868E+01  0.26201452654E+01  0.00000000000E+00 0. -1.
</event>
<event>
 5    1  0.3241783E+002  0.1599494E+01  0.7818608E-02  0.3353913E+00
         11   -1    0    0    0    0  0.00000000000E+00  0.00000000000E+00  0.39999999674E+01  0.40000000000E+01  0.51100000000E-03 0.  1.
    9000002   -1    0    0    0    0 -0.00000000000E+00 -0.00000000000E+00  0.00000000000E+00  0.93800000000E+00  0.93800000000E+00 0. -1.
         11    1    1    2    0    0  0.19193045634E-02 -0.80297839469E-03  0.68655483245E-01  0.68688900158E-01  0.51100000000E-03 0.  1.
    9000002    1    1    2    0    0 -0.21593149570E+00 -0.17277154558E+00  0.51053154139E-01  0.97924810050E+00  0.93800000000E+00 0. -1.
         22    1    1    2    0    0  0.21401219113E+00  0.17357452397E+00  0.38802913300E+01  0.38900629993E+01  0.00000000000E+00 0.  1.
</event>
<event>
 5    1  0.3241783E+002  0.1568807E+01  0.7818608E-02  0.3387931E+00
         11   -1    0    0    0    0  0.00000000000E+00  0.00000000000E+00  0.39999999674E+01  0.40000000000E+01  0.51100000000E-03 0.  1.
    9000002   -1    0    0    0    0 -0.00000000000E+00 -0.00000000000E+00  0.00000000000E+00  0.93800000000E+00  0.93800000000E+00 0.  1.
         11    1    1    2    0    0  0.90346779029E-01  0.16814997199E+00  0.15844216548E+01  0.15958788159E+01  0.51100000000E-03 0.  1.
    9000002    1    1    2    0    0 -0.18110281302E+00  0.95541981249E-01  0.51305942182E-01  0.96145868282E+00  0.93800000000E+00 0.  1.
         22    1    1    2    0    0  0.90756033987E-01 -0.26369195324E+00  0.23642723704E+01  0.23806625013E+01  0.00000000000E+00 0.  1.
</event>
<event>
 5    1  0.3241783E+002  0.1599677E+01  0.7818608E-02  0.3353714E+00
         11   -1    0    0    0    0  0.00000000000E+00  0.00000000000E+00  0.39999999674E+01  0.40000000000E+01  0.51100000000E-03 0. -1.
    9000002   -1    0    0    0    0 -0.00000000000E+00 -0.00000000000E+00  0.00000000000E+00  0.93800000000E+00  0.93800000000E+00 0. -1.
         11    1    1    2    0    0  0.62153798297E-01  0.25568288643E+00  0.16629615661E+01  0.16836502798E+01  0.51100000000E-03 0.  1.
    9000002    1    1    2    0    0 -0.13988699093E+00 -0.57674661598E+00  0.24539287130E+00  0.11367790861E+01  0.93800000000E+00 0. -1.
         22    1    1    2    0    0  0.77733192631E-01  0.32106372955E+00  0.20916455299E+01  0.21175706341E+01  0.00000000000E+00 0. -1.
</event>
<event>
 5    1  0.3241783E+002  0.1599640E+01  0.7818608E-02  0.3353754E+00
         11   -1    0    0    0    0  0.00000000000E+00  0.00000000000E+00  0.39999999674E+01  0.40000000000E+01  0.51100000000E-03 0.  1.
    9000002   -1    0    0    0    0 -0.00000000000E+00 -0.00000000000E+00  0.00000000000E+00  0.93800000000E+00  0.93800000000E+00 0.  1.
         11    1    1    2    0    0 -0.29600578385E-02 -0.11775838574E-02  0.21849002598E-01  0.22085938551E-01  0.51100000000E-03 0. -1.
    9000002    1    1    2    0    0  0.64539802022E+00  0.27603071936E+00  0.35236936474E+00  0.12234131484E+01  0.93800000000E+00 0.  1.
         22    1    1    2    0    0 -0.64243796238E+00 -0.27485313550E+00  0.36257816000E+01  0.36925009130E+01  0.00000000000E+00 0.  1.
</event>
<event>
 5    1  0.3241783E+002  0.1599674E+01  0.7818608E-02  0.3353717E+00
         11   -1    0    0    0    0  0.00000000000E+00  0.00000000000E+00  0.39999999674E+01  0.40000000000E+01  0.51100000000E-03 0.  1.
    9000002   -1    0    0    0    0 -0.00000000000E+00 -0.00000000000E+00  0.00000000000E+00  0.93800000000E+00  0.93800000000E+00 0.  1.
         11    1    1    2    0    0 -0.39732747941E-02 -0.20135558141E-01  0.37917195949E+00  0.37972735429E+00  0.51100000000E-03 0. -1.
    9000002    1    1    2    0    0  0.51910438418E-01  0.21466185866E+00  0.32334485727E-01  0.96419081418E+00  0.93800000000E+00 0.  1.
         22    1    1    2    0    0 -0.47937163624E-01 -0.19452630052E+00  0.35884935221E+01  0.35940818315E+01  0.00000000000E+00 0.  1.
</event>
<event>
 5    1  0.3241783E+002  0.1599580E+01  0.7818608E-02  0.3353819E+00
         11   -1    0    0    0    0  0.00000000000E+00  0.00000000000E+00  0.39999999674E+01  0.40000000000E+01  0.51100000000E-03 0. -1.
    9000002   -1    0    0    0    0 -0.00000000000E+00 -0.00000000000E+00  0.00000000000E+00  0.93800000000E+00  0.93800000000E+00 0. -1.
         11    1    1    2    0    0 -0.14524275184E+00  0.27816712181E+00  0.16706945610E+01  0.16999096982E+01  0.51100000000E-03 0. -1.
    9000002    1    1    2    0    0  0.33362623509E+00 -0.58984992828E+00  0.32638843937E+00  0.12023322403E+01  0.93800000000E+00 0. -1.
         22    1    1    2    0    0 -0.18838348325E+00  0.31168280646E+00  0.20029169670E+01  0.20357580616E+01  0.00000000000E+00 0.  1.
</event>
<event>
 5    1  0.3241783E+002  0.1599676E+01  0.7818608E-02  0.3353715E+00
         11   -1    0    0    0    0  0.00000000000E+00  0.00000000000E+00  0.39999999674E+01  0.40000000000E+01  0.51100000000E-03 0.  1.
    9000002   -1    0    0    0    0 -0.00000000000E+00 -0.00000000000E+00  0.00000000000E+00  0.93800000000E+00  0.93800000000E+00 0.  1.
         11    1    1    2    0    0 -0.10658388825E+00  0.72898817933E-01  0.13674047803E+01  0.13734884263E+01  0.51100000000E-03 0.  1.
    9000002    1    1    2    0    0  0.30637670930E+00 -0.20580900064E+00  0.91538723725E-01  0.10121498756E+01  0.93800000000E+00 0.  1.
         22    1    1    2    0    0 -0.19979282105E+00  0.13291018270E+00  0.25410564634E+01  0.25523616981E+01  0.00000000000E+00 0.  1.
</event>
<event>
 5    1  0.3241783E+002  0.1599674E+01  0.7818608E-02  0.3353717E+00
         11   -1    0    0    0    0  0.00000000000E+00  0.00000000000E+00  0.39999999674E+01  0.40000000000E+01  0.51100000000E-03 0. -1.
    9000002   -1    0    0    0    0 -0.00000000000E+00 -0.00000000000E+00  0.00000000000E+00  0.93800000000E+00  0.93800000000E+00 0. -1.
         11    1    1    2    0    0 -0.47828215053E+00 -0.28010035977E+00  0.15518742139E+01  0.16478846634E+01  0.51100000000E-03 0. -1.
    9000002    1    1    2    0    0  0.93256224518E+00  0.54315257835E+00  0.98670368746E+00  0.17372723538E+01  0.93800000000E+00 0. -1.
         22    1    1    2    0    0 -0.45428009465E+00 -0.26305221858E+00  0.14614220660E+01  0.15528429828E+01  0.00000000000E+00 0. -1.
</event>
<event>
 5    1  0.3241783E+002  0.1599612E+01  0.7818608E-02  0.3353785E+00
         11   -1    0    0    0    0  0.00000000000E+00  0.00000000000E+00  0.39999999674E+01  0.40000000000E+01  0.51100000000E-03 0.  1.
    9000002   -1    0    0    0    0 -0.00000000000E+00 -0.00000000000E+00  0.00000000000E+00  0.93800000000E+00  0.93800000000E+00 0.  1.
         11    1    1    2    0    0  0.85191100204E-01 -0.74110944860E-01  0.14958179406E+01  0.15000738409E+01  0.51100000000E-03 0.  1.
    9000002    1    1    2    0    0 -0.23976361629E+00  0.21393651001E+00  0.69076933491E-01  0.99391702106E+00  0.93800000000E+00 0.  1.
         22    1    1    2    0    0  0.15457251609E+00 -0.13982556515E+00  0.24351050933E+01  0.24440091380E+01  0.00000000000E+00 0.  1.
</event>
<event>
 5    1  0.3241783E+002  0.1599539E+01  0.7818608E-02  0.3353864E+00
         11   -1    0    0    0    0  0.00000000000E+00  0.00000000000E+00  0.39999999674E+01  0.40000000000E+01  0.51100000000E-03 0. -1.
    9000002   -1    0    0    0    0 -0.00000000000E+00 -0.00000000000E+00  0.00000000000E+00  0.93800000000E+00  0.93800000000E+00 0. -1.
         11    1    1    2    0    0 -0.32015826154E-03 -0.95803321248E-03  0.11170415355E-01  0.11227627940E-01  0.51100000000E-03 0. -1.
    9000002    1    1    2    0    0 -0.26237844859E+00  0.95161495107E-02  0.45942761554E-01  0.97513473157E+00  0.93800000000E+00 0. -1.
         22    1    1    2    0    0  0.26269860685E+00 -0.85581162982E-02  0.39428867905E+01  0.39516376405E+01  0.00000000000E+00 0. -1.
</event>
<event>
 5    1  0.3241783E+002  0.1599673E+01  0.7818608E-02  0.3353718E+00
         11   -1    0    0    0    0  0.00000000000E+00  0.00000000000E+00  0.39999999674E+01  0.40000000000E+01  0.51100000000E-03 0.  1.
    9000002   -1    0    0    0    0 -0.00000000000E+00 -0.00000000000E+00  0.00000000000E+00  0.93800000000E+00  0.93800000000E+00 0.  1.
         11    1    1    2    0    0  0.35439095778E+00  0.41825425977E-01  0.22788669070E+01  0.23066375871E+01  0.51100000000E-03 0.  1.
    9000002    1    1    2    0    0 -0.58405470875E+00 -0.72676566563E-01  0.24110523952E+00  0.11333038086E+01  0.93800000000E+00 0.  1.
         22    1    1    2    0    0  0.22966375097E+00  0.30851140586E-01  0.14800278208E+01  0.14980586042E+01  0.00000000000E+00 0. -1.
</event>
<event>
 5    1  0.3241783E+002  0.1599671E+01  0.7818608E-02  0.3353721E+00
         11   -1    0    0    0    0  0.00000000000E+00  0.00000000000E+00  0.39999999674E+01  0.40000000000E+01  0.51100000000E-03 0.  1.
    9000002   -1    0    0    0    0 -0.00000000000E+00 -0.00000000000E+00  0.00000000000E+00  0.93800000000E+00  0.93800000000E+00 0.  1.
         11    1    1    2    0    0  0.75966557835E-01  0.84304890652E-01  0.92214691184E+00  0.92910355754E+00  0.51100000000E-03 0.  1.
    9000002    1    1    2    0    0 -0.31307289173E+00 -0.36160992967E+00  0.15606192697E+00  0.10644133134E+01  0.93800000000E+00 0.  1.
         22    1    1    2    0    0  0.23710633389E+00  0.27730503901E+00  0.29217911286E+01  0.29444831290E+01  0.00000000000E+00 0.  1.
</event>
<event>
 5    1  0.3241783E+002  0.1586282E+01  0.7818608E-02  0.3368388E+00
         11   -1    0    0    0    0  0.00000000000E+00  0.00000000000E+00  0.39999999674E+01  0.40000000000E+01  0.51100000000E-03 0. -1.
    9000002   -1    0    0    0    0 -0.00000000000E+00 -0.00000000000E+00  0.00000000000E+00  0.93800000000E+00  0.93800000000E+00 0. -1.
         11    1    1    2    0    0  0.65368987621E-01  0.13296694747E+00  0.11307523084E+01  0.11404185012E+01  0.51100000000E-03 0. -1.
    9000002    1    1    2    0    0 -0.31407099289E+00 -0.32299489189E-01  0.77249287570E-01  0.99272115824E+00  0.93800000000E+00 0. -1.
         22    1    1    2    0    0  0.24870200527E+00 -0.10066745828E+00  0.27919983714E+01  0.28048603406E+01  0.00000000000E+00 0. -1.
</event>
<event>
 5    1  0.3241783E+002  0.1599419E+01  0.7818608E-02  0.3353994E+00
         11   -1    0    0    0    0  0.00000000000E+00  0.00000000000E+00  0.39999999674E+01  0.40000000000E+01  0.51100000000E-03 0. -1.
    9000002   -1    0    0    0    0 -0.00000000000E+00 -0.00000000000E+00  0.00000000000E+00  0.93800000000E+00  0.93800000000E+00 0.  1.
         11    1    1    2    0    0  0.36727742571E-01  0.21302730690E-01  0.66572131949E+00  0.66707411114E+00  0.51100000000E-03 0. -1.
    9000002    1    1    2    0    0 -0.19957781010E+00 -0.21004838027E+00  0.56153408432E-01  0.98333556308E+00  0.93800000000E+00 0.  1.
         22    1    1    2    0    0  0.16285006753E+00  0.18874564958E+00  0.32781252394E+01  0.32875903258E+01  0.00000000000E+00 0. -1.
</event>
<event>
 5    1  0.3241783E+002  0.1599675E+01  0.7818608E-02  0.3353717E+00
         11   -1    0    0    0    0  0.00000000000E+00  0.00000000000E+00  0.39999999674E+01  0.40000000000E+01  0.51100000000E-03 0. -1.
    9000002   -1    0    0    0    0 -0.00000000000E+00 -0.00000000000E+00  0.00000000000E+00  0.93800000000E+00  0.93800000000E+00 0.  1.
         11    1    1    2    0    0  0.78460542859E-02  0.11403830527E-01  0.24097529120E+00  0.24137307225E+00  0.51100000000E-03 0. -1.
    9000002    1    1    2    0    0 -0.12964181553E+00 -0.20006769177E+00  0.37723426445E-01  0.96855621341E+00  0.93800000000E+00 0.  1.
         22    1    1    2    0    0  0.12179576125E+00  0.18866386125E+00  0.37213012497E+01  0.37280707143E+01  0.00000000000E+00 0. -1.
</event>
<event>
 5    1  0.3241783E+002  0.1599055E+01  0.7818608E-02  0.3354390E+00
         11   -1    0    0    0    0  0.00000000000E+00  0.00000000000E+00  0.39999999674E+01  0.40000000000E+01  0.51100000000E-03 0.  1.
    9000002   -1    0    0    0    0 -0.00000000000E+00 -0.00000000000E+00  0.00000000000E+00  0.93800000000E+00  0.93800000000E+00 0. -1.
         11    1    1    2    0    0 -0.10048704846E+00  0.32660538145E-01  0.12063027604E+01  0.12109215369E+01  0.51100000000E-03 0.  1.
    9000002    1    1    2    0    0  0.31939065236E+00 -0.16548631906E-01  0.68858196410E-01  0.99341315536E+00  0.93800000000E+00 0. -1.
         22    1    1    2    0    0 -0.21890360390E+00 -0.16111906239E-01  0.27248390105E+01  0.27336653077E+01  0.00000000000E+00 0.  1.
</event>
<event>
 5    1  0.3241783E+002  0.1464811E+01  0.7818608E-02  0.3514571E+00
         11   -1    0    0    0    0  0.00000000000E+00  0.00000000000E+00  0.39999999674E+01  0.40000000000E+01  0.51100000000E-03 0. -1.
    9000002   -1    0    0    0    0 -0.00000000000E+00 -0.00000000000E+00  0.00000000000E+00  0.93800000000E+00  0.93800000000E+00 0. -1.
         11    1    1    2    0    0 -0.60651172106E-01 -0.21355062008E+00  0.17652298334E+00  0.28362485220E+00  0.51100000000E-03 0. -1.
    9000002    1    1    2    0    0  0.59526083791E-01 -0.21384625162E+00  0.17342364094E+00  0.97938416018E+00  0.93800000000E+00 0. -1.
         22    1    1    2    0    0  0.11250883150E-02  0.42739687170E+00  0.36500533431E+01  0.36749909876E+01  0.00000000000E+00 0. -1.
</event>
<event>
 5    1  0.3241783E+002  0.1599114E+01  0.7818608E-02  0.3354326E+00
         11   -1    0    0    0    0  0.00000000000E+00  0.00000000000E+00  0.39999999674E+01  0.40000000000E+01  0.51100000000E-03 0. -1.
    9000002   -1    0    0    0    0 -0.00000000000E+00 -0.00000000000E+00  0.00000000000E+00  0.93800000000E+00  0.93800000000E+00 0.  1.
         11    1    1    2    0    0  0.65777674866E-02  0.87073987111E-01  0.92365537520E+00  0.92777403473E+00  0.51100000000E-03 0. -1.
    9000002    1    1    2    0    0  0.68668115943E-01 -0.33413814911E+00  0.78399113282E-01  0.10011763250E+01  0.93800000000E+00 0.  1.
         22    1    1    2    0    0 -0.75245883429E-01  0.24706416200E+00  0.29979454789E+01  0.30090496402E+01  0.00000000000E+00 0. -1.
</event>
<event>
 5    1  0.3241783E+002  0.1599676E+01  0.7818608E-02  0.3353715E+00
         11   -1    0    0    0    0  0.00000000000E+00  0.00000000000E+00  0.39999999674E+01  0.40000000000E+01  0.51100000000E-03 0.  1.
    9000002   -1    0    0    0    0 -0.00000000000E+00 -0.00000000000E+00  0.00000000000E+00  0.93800000000E+00  0.93800000000E+00 0.  1.
         11    1    1    2    0    0  0.31775225499E-01 -0.19411154425E-01  0.35860714502E+00  0.36053543994E+00  0.51100000000E-03 0.  1.
    9000002    1    1    2    0    0 -0.34671472041E+00  0.20366810116E+00  0.10909503575E+00  0.10263710438E+01  0.93800000000E+00 0.  1.
         22    1    1    2    0    0  0.31493949491E+00 -0.18425694674E+00  0.35322977866E+01  0.35510935162E+01  0.00000000000E+00 0.  1.
</event>
<event>
 5    1  0.3241783E+002  0.1599655E+01  0.7818608E-02  0.3353738E+00
         11   -1    0    0    0    0  0.00000000000E+00  0.00000000000E+00  0.39999999674E+01  0.40000000000E+01  0.51100000000E-03 0. -1.
    9000002   -1    0    0    0    0 -0.00000000000E+00 -0.00000000000E+00  0.00000000000E+00  0.93800000000E+00  0.93800000000E+00 0.  1.
         11    1    1    2    0    0  0.17192740575E-01  0.24833071424E-01  0.55960000941E+00  0.56041476017E+00  0.51100000000E-03 0. -1.
    9000002    1    1    2    0    0 -0.14458807489E+00 -0.19158669042E+00  0.38258707075E-01  0.96897827634E+00  0.93800000000E+00 0.  1.
         22    1    1    2    0    0  0.12739533431E+00  0.16675361900E+00  0.34021412509E+01  0.34086069635E+01  0.00000000000E+00 0. -1.
</event>
<event>
 5    1  0.3241783E+002  0.1599664E+01  0.7818608E-02  0.3353729E+00
         11   -1    0    0    0    0  0.00000000000E+00  0.00000000000E+00  0.39999999674E+01  0.40000000000E+01  0.51100000000E-03 0.  1.
    9000002   -1    0    0    0    0 -0.00000000000E+00 -0.00000000000E+00  0.00000000000E+00  0.93800000000E+00  0.93800000000E+00 0.  1.
         11    1    1    2    0    0 -0.86619879690E-01  0.20830060460E+00  0.14461602403E+01  0.14636501792E+01  0.51100000000E-03 0.  1.
    9000002    1    1    2    0    0  0.23556362341E+00 -0.54431719629E+00  0.24508514198E+00  0.11365219565E+01  0.93800000000E+00 0.  1.
         22    1    1    2    0    0 -0.14894374372E+00  0.33601659168E+00  0.23087545851E+01  0.23378278643E+01  0.00000000000E+00 0.  1.
</event>
<event>
 5    1  0.3241783E+002  0.1598161E+01  0.7818608E-02  0.3355362E+00
         11   -1    0    0    0    0  0.00000000000E+00  0.00000000000E+00  0.39999999674E+01  0.40000000000E+01  0.51100000000E-03 0.  1.
    9000002   -1    0    0    0    0 -0.00000000000E+00 -0.00000000000E+00  0.00000000000E+00  0.93800000000E+00  0.93800000000E+00 0.  1.
         11    1    1    2    0    0 -0.11179154368E+00 -0.26497163990E+00  0.16355461124E+01  0.16606380298E+01  0.51100000000E-03 0.  1.
    9000002    1    1    2    0    0  0.24665069855E+00  0.50465585783E+00  0.21986679061E+00  0.11152127634E+01  0.93800000000E+00 0.  1.
         22    1    1    2    0    0 -0.13485915487E+00 -0.23968421793E+00  0.21445870644E+01  0.21621492068E+01  0.00000000000E+00 0.  1.
</event>
<event>
 5    1  0.3241783E+002  0.1596200E+01  0.7818608E-02  0.3357499E+00
         11   -1    0    0    0    0  0.00000000000E+00  0.00000000000E+00  0.39999999674E+01  0.40000000000E+01  0.51100000000E-03 0. -1.
    9000002   -1    0    0    0    0 -0.00000000000E+00 -0.00000000000E+00  0.00000000000E+00  0.93800000000E+00  0.93800000000E+00 0. -1.
         11    1    1    2    0    0  0.89213540260E-01  0.30615634737E-01  0.12499141893E+01  0.12534680350E+01  0.51100000000E-03 0. -1.
    9000002    1    1    2    0    0 -0.47471532477E+00 -0.13379599392E+00  0.16945419560E+00  0.10732263191E+01  0.93800000000E+00 0. -1.
         22    1    1    2    0    0  0.38550178451E+00  0.10318035918E+00  0.25806315824E+01  0.26113056460E+01  0.00000000000E+00 0. -1.
</event>
<event>
 5    1  0.3241783E+002  0.1573570E+01  0.7818608E-02  0.3382559E+00
         11   -1    0    0    0    0  0.00000000000E+00  0.00000000000E+00  0.39999999674E+01  0.40000000000E+01  0.51100000000E-03 0. -1.
    9000002   -1    0    0    0    0 -0.00000000000E+00 -0.00000000000E+00  0.00000000000E+00  0.93800000000E+00  0.93800000000E+00 0.  1.
         11    1    1    2    0    0  0.89102545036E-01  0.76725566663E-01  0.48164815192E+00  0.49579358556E+00  0.51100000000E-03 0. -1.
    9000002    1    1    2    0    0  0.20601931939E+00 -0.15841819697E+00  0.65215419418E-01  0.97551900854E+00  0.93800000000E+00 0.  1.
         22    1    1    2    0    0 -0.29512186442E+00  0.81692630310E-01  0.34531363960E+01  0.34666874059E+01  0.00000000000E+00 0. -1.
</event>
<event>
 5    1  0.3241783E+002  0.1599619E+01  0.7818608E-02  0.3353777E+00
         11   -1    0    0    0    0  0.00000000000E+00  0.00000000000E+00  0.39999999674E+01  0.40000000000E+01  0.51100000000E-03 0.  1.
    9000002   -1    0    0    0    0 -0.00000000000E+00 -0.00000000000E+00  0.00000000000E+00  0.93800000000E+00  0.93800000000E+00 0. -1.
         11    1    1    2    0    0  0.74772276813E-03 -0.80661698602E-02  0.17121540397E+00  0.17140769488E+00  0.51100000000E-03 0.  1.
    9000002    1    1    2    0    0  0.66696858243E-01  0.20258608078E+00  0.30183466363E-01  0.96241603928E+00  0.93800000000E+00 0. -1.
         22    1    1    2    0    0 -0.67444581011E-01 -0.19451991092E+00  0.37986010970E+01  0.38041762658E+01  0.00000000000E+00 0.  1.
</event>
<event>
 5    1  0.3241783E+002  0.1599574E+01  0.7818608E-02  0.3353826E+00
         11   -1    0    0    0    0  0.00000000000E+00  0.00000000000E+00  0.39999999674E+01  0.40000000000E+01  0.51100000000E-03 0.  1.
    9000002   -1    0    0    0    0 -0.00000000000E+00 -0.00000000000E+00  0.00000000000E+00  0.93800000000E+00  0.93800000000E+00 0. -1.
         11    1    1    2    0    0  0.86910568650E-01 -0.71358440459E-01  0.14454083743E+01  0.14497762254E+01  0.51100000000E-03 0.  1.
    9000002    1    1    2    0    0 -0.26696118214E+00  0.18455188317E+00  0.70515210137E-01  0.99505982996E+00  0.93800000000E+00 0. -1.
         22    1    1    2    0    0  0.18005061349E+00 -0.11319344271E+00  0.24840763829E+01  0.24931639447E+01  0.00000000000E+00 0. -1.
</event>
<event>
 5    1  0.3241783E+002  0.1599676E+01  0.7818608E-02  0.3353715E+00
         11   -1    0    0    0    0  0.00000000000E+00  0.00000000000E+00  0.39999999674E+01  0.40000000000E+01  0.51100000000E-03 0.  1.
    9000002   -1    0    0    0    0 -0.00000000000E+00 -0.00000000000E+00  0.00000000000E+00  0.93800000000E+00  0.93800000000E+00 0. -1.
         11    1    1    2    0    0  0.28466861202E-01 -0.16243703807E-01  0.52625860354E+00  0.52727848337E+00  0.51100000000E-03 0.  1.
    9000002    1    1    2    0    0 -0.21724123679E+00  0.11724057139E+00  0.40472428376E-01  0.97078376789E+00  0.93800000000E+00 0. -1.
         22    1    1    2    0    0  0.18877437559E+00 -0.10099686758E+00  0.34332689354E+01  0.34399377487E+01  0.00000000000E+00 0.  1.
</event>
<event>
 5    1  0.3241783E+002  0.1599677E+01  0.7818608E-02  0.3353715E+00
         11   -1    0    0    0    0  0.00000000000E+00  0.00000000000E+00  0.39999999674E+01  0.40000000000E+01  0.51100000000E-03 0. -1.
    9000002   -1    0    0    0    0 -0.00000000000E+00 -0.00000000000E+00  0.00000000000E+00  0.93800000000E+00  0.93800000000E+00 0. -1.
         11    1    1    2    0    0 -0.71135939240E-01  0.38262094291E-01  0.97163930566E+00  0.97499103131E+00  0.51100000000E-03 0. -1.
    9000002    1    1    2    0    0  0.28880264210E+00 -0.15239306556E+00  0.71319411565E-01  0.99577159579E+00  0.93800000000E+00 0. -1.
         22    1    1    2    0    0 -0.21766670286E+00  0.11413097127E+00  0.29570412501E+01  0.29672373729E+01  0.00000000000E+00 0. -1.
</event>
<event>
 5    1  0.3241783E+002  0.1599675E+01  0.7818608E-02  0.3353716E+00
         11   -1    0    0    0    0  0.00000000000E+00  0.00000000000E+00  0.39999999674E+01  0.40000000000E+01  0.51100000000E-03 0. -1.
    9000002   -1    0    0    0    0 -0.00000000000E+00 -0.00000000000E+00  0.00000000000E+00  0.93800000000E+00  0.93800000000E+00 0. -1.
         11    1    1    2    0    0 -0.15475962524E+00 -0.23830312711E+00  0.15159458189E+01  0.15423459109E+01  0.51100000000E-03 0. -1.
    9000002    1    1    2    0    0  0.37766713510E+00  0.57693568133E+00  0.33887885755E+00  0.12125057218E+01  0.93800000000E+00 0. -1.
         22    1    1    2    0    0 -0.22290750986E+00 -0.33863255422E+00  0.21451752909E+01  0.21831483673E+01  0.00000000000E+00 0. -1.
</event>
<event>
 5    1  0.3241783E+002  0.1599636E+01  0.7818608E-02  0.3353759E+00
         11   -1    0    0    0    0  0.00000000000E+00  0.00000000000E+00  0.39999999674E+01  0.40000000000E+01  0.51100000000E-03 0. -1.
    9000002   -1    0    0    0    0 -0.00000000000E+00 -0.00000000000E+00  0.00000000000E+00  0.93800000000E+00  0.93800000000E+00 0. -1.
         11    1    1    2    0    0  0.55783357877E+00 -0.84298618862E-01  0.19656149647E+01  0.20449760412E+01  0.51100000000E-03 0. -1.
    9000002    1    1    2    0    0 -0.94283523900E+00  0.13227643484E+00  0.71085832235E+00  0.15138027935E+01  0.93800000000E+00 0. -1.
         22    1    1    2    0    0  0.38500166022E+00 -0.47977815980E-01  0.13235266803E+01  0.13792211653E+01  0.00000000000E+00 0. -1.
</event>
<event>
 5    1  0.3241783E+002  0.1599677E+01  0.7818608E-02  0.3353714E+00
         11   -1    0    0    0    0  0.00000000000E+00  0.00000000000E+00  0.39999999674E+01  0.40000000000E+01  0.51100000000E-03 0. -1.
    9000002   -1    0    0    0    0 -0.00000000000E+00 -0.00000000000E+00  0.00000000000E+00  0.93800000000E+00  0.93800000000E+00 0. -1.
         11    1    1    2    0    0  0.62015319673E-01 -0.21488207950E-01  0.97075181933E+00  0.97296813864E+00  0.51100000000E-03 0. -1.
    9000002    1    1    2    0    0 -0.25287098730E+00  0.87359676862E-01  0.47613192293E-01  0.97656872029E+00  0.93800000000E+00 0. -1.
         22    1    1    2    0    0  0.19085566763E+00 -0.65871468912E-01  0.29816349557E+01  0.29884631411E+01  0.00000000000E+00 0. -1.
</event>
<event>
 5    1  0.3241783E+002  0.1586496E+01  0.7818608E-02  0.3368152E+00
         11   -1    0    0    0    0  0.00000000000E+00  0.00000000000E+00  0.39999999674E+01  0.40000000000E+01  0.51100000000E-03 0. -1.
    9000002   -1    0    0    0    0 -0.00000000000E+00 -0.00000000000E+00  0.00000000000E+00  0.93800000000E+00  0.93800000000E+00 0.  1.
         11    1    1    2    0    0  0.10778411889E+00 -0.14949452136E+00  0.74012933144E+00  0.76273043507E+00  0.51100000000E-03 0. -1.
    9000002    1    1    2    0    0 -0.39684629877E+00  0.22895183436E+00  0.15428765906E+00  0.10552509697E+01  0.93800000000E+00 0.  1.
         22    1    1    2    0    0  0.28906217989E+00 -0.79457313002E-01  0.31055829769E+01  0.31200185952E+01  0.00000000000E+00 0. -1.
</event>
<event>
 5    1  0.3241783E+002  0.1599675E+01  0.7818608E-02  0.3353716E+00
         11   -1    0    0    0    0  0.00000000000E+00  0.00000000000E+00  0.39999999674E+01  0.40000000000E+01  0.51100000000E-03 0. -1.
    9000002   -1    0    0    0    0 -0.00000000000E+00 -0.00000000000E+00  0.00000000000E+00  0.93800000000E+00  0.93800000000E+00 0.  1.
         11    1    1    2    0    0  0.86598309809E-03  0.57817600126E-01  0.59451123587E+00  0.59731691380E+00  0.51100000000E-03 0. -1.
    9000002    1    1    2    0    0 -0.12713968830E-01 -0.38231782164E+00  0.98487609771E-01  0.10177781541E+01  0.93800000000E+00 0.  1.
         22    1    1    2    0    0  0.11847985731E-01  0.32450022152E+00  0.33070011217E+01  0.33229049321E+01  0.00000000000E+00 0. -1.
</event>
<event>
 5    1  0.3241783E+002  0.1599664E+01  0.7818608E-02  0.3353728E+00
         11   -1    0    0    0    0  0.00000000000E+00  0.00000000000E+00  0.39999999674E+01  0.40000000000E+01  0.51100000000E-03 0. -1.
    9000002   -1    0    0    0    0 -0.00000000000E+00 -0.00000000000E+00  0.00000000000E+00  0.93800000000E+00  0.93800000000E+00 0. -1.
         11    1    1    2    0    0 -0.32438607703E-01 -0.69588247836E-02  0.43026453471E+00  0.43154202514E+00  0.51100000000E-03 0. -1.
    9000002    1    1    2    0    0  0.28896321758E+00  0.41085728680E-01  0.56797267811E-01  0.98400086781E+00  0.93800000000E+00 0. -1.
         22    1    1    2    0    0 -0.25652460988E+00 -0.34126903896E-01  0.35129381648E+01  0.35224571071E+01  0.00000000000E+00 0. -1.
</event>
<event>
 5    1  0.3241783E+002  0.1599546E+01  0.7818608E-02  0.3353856E+00
         11   -1    0    0    0    0  0.00000000000E+00  0.00000000000E+00  0.39999999674E+01  0.40000000000E+01  0.51100000000E-03 0. -1.
    9000002   -1    0    0    0    0 -0.00000000000E+00 -0.00000000000E+00  0.00000000000E+00  0.93800000000E+00  0.93800000000E+00 0.  1.
         11    1    1    2    0    0  0.32292656987E-01 -0.15040358855E+00  0.12500312495E+01  0.12594611709E+01  0.51100000000E-03 0. -1.
    9000002    1    1    2    0    0 -0.10275452625E+00  0.42564724632E+00  0.13010569349E+00  0.10433146996E+01  0.93800000000E+00 0.  1.
         22    1    1    2    0    0  0.70461869266E-01 -0.27524365777E+00  0.26198630244E+01  0.26352241295E+01  0.00000000000E+00 0.  1.
</event>
<event>
 5    1  0.3241783E+002  0.1599667E+01  0.7818608E-02  0.3353725E+00
         11   -1    0    0    0    0  0.00000000000E+00  0.00000000000E+00  0.39999999674E+01  0.40000000000E+01  0.51100000000E-03 0. -1.
    9000002   -1    0    0    0    0 -0.00000000000E+00 -0.00000000000E+00  0.00000000000E+00  0.93800000000E+00  0.93800000000E+00 0.  1.
         11    1    1    2    0    0  0.89962391423E-02 -0.20198044335E-01  0.41365550343E+00  0.41424633970E+00  0.51100000000E-03 0. -1.
    9000002    1    1    2    0    0 -0.86634148309E-01  0.21517363775E+00  0.35702114416E-01  0.96691458310E+00  0.93800000000E+00 0.  1.
         22    1    1    2    0    0  0.77637909167E-01 -0.19497559341E+00  0.35506423495E+01  0.35568390772E+01  0.00000000000E+00 0. -1.
</event>
<event>
 5    1  0.3379393E+002  0.1599416E+01  0.7818608E-02  0.3353998E+00
         11   -1    0    0    0    0  0.00000000000E+00  0.00000000000E+00  0.39999999674E+01  0.40000000000E+01  0.51100000000E-03 0. -1.
    9000002   -1    0    0    0    0 -0.00000000000E+00 -0.00000000000E+00  0.00000000000E+00  0.93800000000E+00  0.93800000000E+00 0. -1.
         11    1    1    2    0    0  0.81654310598E-02 -0.24053518968E-02  0.68889304017E-01  0.69415108666E-01  0.51100000000E-03 0. -1.
    9000002    1    1    2    0    0 -0.17942997443E+00  0.11335839394E+00  0.30040066904E-01  0.96218067265E+00  0.93800000000E+00 0. -1.
         22    1    1    2    0    0  0.17126454337E+00 -0.11095304205E+00  0.39010705964E+01  0.39064042187E+01  0.00000000000E+00 0. -1.
</event>
<event>
 5    1  0.3241783E+002  0.1585915E+01  0.7818608E-02  0.3368794E+00
         11   -1    0    0    0    0  0.00000000000E+00  0.00000000000E+00  0.39999999674E+01  0.40000000000E+01  0.51100000000E-03 0. -1.
    9000002   -1    0    0    0    0 -0.00000000000E+00 -0.00000000000E+00  0.00000000000E+00  0.93800000000E+00  0.93800000000E+00 0.  1.
         11    1    1    2    0    0  0.56699710254E-01  0.36679209475E-01  0.18057119536E+01  0.18069743059E+01  0.51100000000E-03 0. -1.
    9000002    1    1    2    0    0  0.18228435173E+00 -0.11503090726E+00  0.41231001096E-01  0.96332948152E+00  0.93800000000E+00 0.  1.
         22    1    1    2    0    0 -0.23898406198E+00  0.78351697782E-01  0.21530570127E+01  0.21676962126E+01  0.00000000000E+00 0.  1.
</event>
<event>
 5    1  0.3241783E+002  0.1547584E+01  0.7818608E-02  0.3412296E+00
         11   -1    0    0    0    0  0.00000000000E+00  0.00000000000E+00  0.39999999674E+01  0.40000000000E+01  0.51100000000E-03 0.  1.
    9000002   -1    0    0    0    0 -0.00000000000E+00 -0.00000000000E+00  0.00000000000E+00  0.93800000000E+00  0.93800000000E+00 0. -1.
         11    1    1    2    0    0  0.21199694438E+00  0.14594587666E-01  0.87898089595E+00  0.90430270539E+00  0.51100000000E-03 0.  1.
    9000002    1    1    2    0    0  0.76007420482E-01 -0.43234541424E-01  0.43997374767E-01  0.94309390971E+00  0.93800000000E+00 0. -1.
         22    1    1    2    0    0 -0.28800436487E+00  0.28639953758E-01  0.30770216966E+01  0.30906033849E+01  0.00000000000E+00 0.  1.
</event>
<event>
 5    1  0.3241783E+002  0.1550824E+01  0.7818608E-02  0.3408530E+00
         11   -1    0    0    0    0  0.00000000000E+00  0.00000000000E+00  0.39999999674E+01  0.40000000000E+01  0.51100000000E-03 0. -1.
    9000002   -1    0    0    0    0 -0.00000000000E+00 -0.00000000000E+00  0.00000000000E+00  0.93800000000E+00  0.93800000000E+00 0.  1.
         11    1    1    2    0    0  0.72652364026E-02 -0.12821519738E+00  0.21131528123E+00  0.24727783908E+00  0.51100000000E-03 0. -1.
    9000002    1    1    2    0    0 -0.39414266028E+00  0.64441446123E-01  0.14939477926E+00  0.10303707763E+01  0.93800000000E+00 0.  1.
         22    1    1    2    0    0  0.38687742387E+00  0.63773751258E-01  0.36392899069E+01  0.36603513846E+01  0.00000000000E+00 0. -1.
</event>
<event>
 5    1  0.3241783E+002  0.1599663E+01  0.7818608E-02  0.3353729E+00
         11   -1    0    0    0    0  0.00000000000E+00  0.00000000000E+00  0.39999999674E+01  0.40000000000E+01  0.51100000000E-03 0. -1.
    9000002   -1    0    0    0    0 -0.00000000000E+00 -0.00000000000E+00  0.00000000000E+00  0.93800000000E+00  0.93800000000E+00 0. -1.
         11    1    1    2    0    0 -0.19159647790E-01  0.62051189734E-01  0.23141721196E+00  0.24035729521E+00  0.51100000000E-03 0. -1.
    9000002    1    1    2    0    0  0.26187908742E+00 -0.87227111724E+00  0.63789077082E+00  0.14547117219E+01  0.93800000000E+00 0. -1.
         22    1    1    2    0    0 -0.24271943963E+00  0.81021992751E+00  0.31306919846E+01  0.32429309829E+01  0.00000000000E+00 0. -1.
</event>
<event>
 5    1  0.3241783E+002  0.1599664E+01  0.7818608E-02  0.3353728E+00
         11   -1    0    0    0    0  0.00000000000E+00  0.00000000000E+00  0.39999999674E+01  0.40000000000E+01  0.51100000000E-03 0.  1.
    9000002   -1    0    0    0    0 -0.00000000000E+00 -0.00000000000E+00  0.00000000000E+00  0.93800000000E+00  0.93800000000E+00 0. -1.
         11    1    1    2    0    0  0.38433290472E-01 -0.27431829905E-01  0.74258104646E+00  0.74408097327E+00  0.51100000000E-03 0.  1.
    9000002    1    1    2    0    0 -0.22187242797E+00  0.15091413295E+00  0.47910370533E-01  0.97680184962E+00  0.93800000000E+00 0. -1.
         22    1    1    2    0    0  0.18343913750E+00 -0.12348230305E+00  0.32095085504E+01  0.32171171771E+01  0.00000000000E+00 0.  1.
</event>
<event>
 5    1  0.3241783E+002  0.1598772E+01  0.7818608E-02  0.3354697E+00
         11   -1    0    0    0    0  0.00000000000E+00  0.00000000000E+00  0.39999999674E+01  0.40000000000E+01  0.51100000000E-03 0.  1.
    9000002   -1    0    0    0    0 -0.00000000000E+00 -0.00000000000E+00  0.00000000000E+00  0.93800000000E+00  0.93800000000E+00 0.  1.
         11    1    1    2    0    0 -0.10205503802E-01  0.10820845383E-01  0.11867840000E+00  0.11960797110E+00  0.51100000000E-03 0.  1.
    9000002    1    1    2    0    0 -0.26242384211E-02 -0.57687985387E+00  0.23195647465E+00  0.11253644115E+01  0.93800000000E+00 0.  1.
         22    1    1    2    0    0  0.12829742223E-01  0.56605900849E+00  0.36493650927E+01  0.36930276175E+01  0.00000000000E+00 0.  1.
</event>
<event>
 5    1  0.3241783E+002  0.1599676E+01  0.7818608E-02  0.3353715E+00
         11   -1    0    0    0    0  0.00000000000E+00  0.00000000000E+00  0.39999999674E+01  0.40000000000E+01  0.51100000000E-03 0. -1.
    9000002   -1    0    0    0    0 -0.00000000000E+00 -0.00000000000E+00  0.00000000000E+00  0.93800000000E+00  0.93800000000E+00 0.  1.
         11    1    1    2    0    0  0.27175414473E-01 -0.12825637466E+00  0.11466446629E+01  0.11541154382E+01  0.51100000000E-03 0. -1.
    9000002    1    1    2    0    0 -0.89046628911E-01  0.43465490367E+00  0.13357753663E+00  0.10462032048E+01  0.93800000000E+00 0.  1.
         22    1    1    2    0    0  0.61871214437E-01 -0.30639852901E+00  0.27197777679E+01  0.27376813570E+01  0.00000000000E+00 0. -1.
</event>
<event>
 5    1  0.3241783E+002  0.1534296E+01  0.7818608E-02  0.3427916E+00
         11   -1    0    0    0    0  0.00000000000E+00  0.00000000000E+00  0.39999999674E+01  0.40000000000E+01  0.51100000000E-03 0. -1.
    9000002   -1    0    0    0    0 -0.00000000000E+00 -0.00000000000E+00  0.00000000000E+00  0.93800000000E+00  0.93800000000E+00 0. -1.
         11    1    1    2    0    0 -0.17269647452E-01 -0.26812762038E+00  0.23116545855E+01  0.23272167594E+01  0.51100000000E-03 0. -1.
    9000002    1    1    2    0    0 -0.11488992709E+00 -0.39425361385E-01  0.59287401586E-01  0.94768826650E+00  0.93800000000E+00 0. -1.
         22    1    1    2    0    0  0.13215957454E+00  0.30755298176E+00  0.16290579803E+01  0.16630949741E+01  0.00000000000E+00 0. -1.
</event>
<event>
 5    1  0.3241783E+002  0.1599677E+01  0.7818608E-02  0.3353714E+00
         11   -1    0    0    0    0  0.00000000000E+00  0.00000000000E+00  0.39999999674E+01  0.40000000000E+01  0.51100000000E-03 0. -1.
    9000002   -1    0    0    0    0 -0.00000000000E+00 -0.00000000000E+00  0.00000000000E+00  0.93800000000E+00  0.93800000000E+00 0. -1.
         11    1    1    2    0    0 -0.62623928232E-01  0.45481250932E-01  0.10158980810E+01  0.10188422216E+01  0.51100000000E-03 0.  1.
    9000002    1    1    2    0    0  0.24263091531E+00 -0.17518061138E+00  0.59741241243E-01  0.98639293569E+00  0.93800000000E+00 0. -1.
         22    1    1    2    0    0 -0.18000698708E+00  0.12969936044E+00  0.29243606452E+01  0.29327648427E+01  0.00000000000E+00 0. -1.
</event>
<event>
 5    1  0.3241783E+002  0.1599650E+01  0.7818608E-02  0.3353743E+00
         11   -1    0    0    0    0  0.00000000000E+00  0.00000000000E+00  0.39999999674E+01  0.40000000000E+01  0.51100000000E-03 0. -1.
    9000002   -1    0    0    0    0 -0.00000000000E+00 -0.00000000000E+00  0.00000000000E+00  0.93800000000E+00  0.93800000000E+00 0. -1.
         11    1    1    2    0    0 -0.55987165619E-01  0.34703227671E-01  0.80879939507E+00  0.81147741762E+00  0.51100000000E-03 0. -1.
    9000002    1    1    2    0    0  0.25654484744E+00 -0.15067646222E+00  0.59059290720E-01  0.98582486012E+00  0.93800000000E+00 0. -1.
         22    1    1    2    0    0 -0.20055768182E+00  0.11597323455E+00  0.31321412816E+01  0.31406977223E+01  0.00000000000E+00 0. -1.
</event>
<event>
 5    1  0.3241783E+002  0.1589929E+01  0.7818608E-02  0.3364367E+00
         11   -1    0    0    0    0  0.00000000000E+00  0.00000000000E+00  0.39999999674E+01  0.40000000000E+01  0.51100000000E-03 0. -1.
    9000002   -1    0    0    0    0 -0.00000000000E+00 -0.00000000000E+00  0.00000000000E+00  0.93800000000E+00  0.93800000000E+00 0.  1.
         11    1    1    2    0    0 -0.17855016149E+00  0.77363516707E-01  0.92253545960E+00  0.94283466696E+00  0.51100000000E-03 0. -1.
    9000002    1    1    2    0    0  0.41099919519E+00 -0.62515122333E-01  0.12506558407E+00  0.10335927047E+01  0.93800000000E+00 0.  1.
         22    1    1    2    0    0 -0.23244903369E+00 -0.14848394374E-01  0.29523989237E+01  0.29615726283E+01  0.00000000000E+00 0. -1.
</event>
<event>
 5    1  0.3241783E+002  0.1599214E+01  0.7818608E-02  0.3354217E+00
         11   -1    0    0    0    0  0.00000000000E+00  0.00000000000E+00  0.39999999674E+01  0.40000000000E+01  0.51100000000E-03 0.  1.
    9000002   -1    0    0    0    0 -0.00000000000E+00 -0.00000000000E+00  0.00000000000E+00  0.93800000000E+00  0.93800000000E+00 0.  1.
         11    1    1    2    0    0 -0.10096778150E+00  0.27002860586E+00  0.14990133426E+01  0.15264832798E+01  0.51100000000E-03 0.  1.
    9000002    1    1    2    0    0  0.30421713437E+00 -0.63677618970E+00  0.35700536558E+00  0.12269184209E+01  0.93800000000E+00 0.  1.
         22    1    1    2    0    0 -0.20324935287E+00  0.36674758384E+00  0.21439812591E+01  0.21845982993E+01  0.00000000000E+00 0.  1.
</event>
<event>
 5    1  0.3241783E+002  0.1595036E+01  0.7818608E-02  0.3358769E+00
         11   -1    0    0    0    0  0.00000000000E+00  0.00000000000E+00  0.39999999674E+01  0.40000000000E+01  0.51100000000E-03 0. -1.
    9000002   -1    0    0    0    0 -0.00000000000E+00 -0.00000000000E+00  0.00000000000E+00  0.93800000000E+00  0.93800000000E+00 0. -1.
         11    1    1    2    0    0  0.34918232276E+00 -0.15681310200E+00  0.23115326997E+01  0.23430113800E+01  0.51100000000E-03 0. -1.
    9000002    1    1    2    0    0 -0.47214804901E+00  0.34264678684E+00  0.24116791218E+00  0.11306354685E+01  0.93800000000E+00 0. -1.
         22    1    1    2    0    0  0.12296572626E+00 -0.18583368484E+00  0.14472993554E+01  0.14643531516E+01  0.00000000000E+00 0.  1.
</event>
<event>
 5    1  0.3241783E+002  0.1599677E+01  0.7818608E-02  0.3353714E+00
         11   -1    0    0    0    0  0.00000000000E+00  0.00000000000E+00  0.39999999674E+01  0.40000000000E+01  0.51100000000E-03 0.  1.
    9000002   -1    0    0    0    0 -0.00000000000E+00 -0.00000000000E+00  0.00000000000E+00  0.93800000000E+00  0.93800000000E+00 0. -1.
         11    1    1    2    0    0 -0.15752454222E+00 -0.63868810996E-01  0.17658602029E+01  0.17740224699E+01  0.51100000000E-03 0.  1.
    9000002    1    1    2    0    0  0.34991686736E+00  0.14102932681E+00  0.95734846516E-01  0.10155492336E+01  0.93800000000E+00 0. -1.
         22    1    1    2    0    0 -0.19239232514E+00 -0.77160515813E-01  0.21384049179E+01  0.21484282965E+01  0.00000000000E+00 0. -1.
</event>
<event>
 5    1  0.3241783E+002  0.1599663E+01  0.7818608E-02  0.3353729E+00
         11   -1    0    0    0    0  0.00000000000E+00  0.00000000000E+00  0.39999999674E+01  0.40000000000E+01  0.51100000000E-03 0.  1.
    9000002   -1    0    0    0    0 -0.00000000000E+00 -0.00000000000E+00  0.00000000000E+00  0.93800000000E+00  0.93800000000E+00 0.  1.
         11    1    1    2    0    0  0.34769837835E-01 -0.23497754682E-01  0.67804155228E+00  0.67933915966E+00  0.51100000000E-03 0.  1.
    9000002    1    1    2    0    0 -0.22188573515E+00  0.14204546145E+00  0.46168229688E-01  0.97539002354E+00  0.93800000000E+00 0.  1.
         22    1    1    2    0    0  0.18711589731E+00 -0.11854770677E+00  0.32757901854E+01  0.32832708168E+01  0.00000000000E+00 0.  1.
</event>
<event>
 5    1  0.3241783E+002  0.1589446E+01  0.7818608E-02  0.3364899E+00
         11   -1    0    0    0    0  0.00000000000E+00  0.00000000000E+00  0.39999999674E+01  0.40000000000E+01  0.51100000000E-03 0.  1.
    9000002   -1    0    0    0    0 -0.00000000000E+00 -0.00000000000E+00  0.00000000000E+00  0.93800000000E+00  0.93800000000E+00 0. -1.
         11    1    1    2    0    0 -0.28523817855E-01  0.69659748046E-01  0.22788783170E+00  0.23999836175E+00  0.51100000000E-03 0.  1.
    9000002    1    1    2    0    0  0.57418097163E-01 -0.30138214982E+00  0.70914479970E-01  0.98944474408E+00  0.93800000000E+00 0. -1.
         22    1    1    2    0    0 -0.28894279309E-01  0.23172240178E+00  0.37011976557E+01  0.37085568942E+01  0.00000000000E+00 0.  1.
</event>
<event>
 5    1  0.3241783E+002  0.1599555E+01  0.7818608E-02  0.3353847E+00
         11   -1    0    0    0    0  0.00000000000E+00  0.00000000000E+00  0.39999999674E+01  0.40000000000E+01  0.51100000000E-03 0.  1.
    9000002   -1    0    0    0    0 -0.00000000000E+00 -0.00000000000E+00  0.00000000000E+00  0.93800000000E+00  0.93800000000E+00 0.  1.
         11    1    1    2    0    0 -0.12028568409E-01 -0.60780735370E-01  0.59308150254E+00  0.59630941132E+00  0.51100000000E-03 0.  1.
    9000002    1    1    2    0    0  0.13804523993E+00  0.41575618848E+00  0.13022111019E+00  0.10434132614E+01  0.93800000000E+00 0.  1.
         22    1    1    2    0    0 -0.12601667152E+00 -0.35497545311E+00  0.32766973546E+01  0.32982773273E+01  0.00000000000E+00 0. -1.
</event>
<event>
 5    1  0.3241783E+002  0.1599278E+01  0.7818608E-02  0.3354147E+00
         11   -1    0    0    0    0  0.00000000000E+00  0.00000000000E+00  0.39999999674E+01  0.40000000000E+01  0.51100000000E-03 0.  1.
    9000002   -1    0    0    0    0 -0.00000000000E+00 -0.00000000000E+00  0.00000000000E+00  0.93800000000E+00  0.93800000000E+00 0. -1.
         11    1    1    2    0    0 -0.15580192470E+00  0.12075997570E+00  0.15057685646E+01  0.15186166214E+01  0.51100000000E-03 0.  1.
    9000002    1    1    2    0    0  0.35198434866E+00 -0.27290056172E+00  0.13498054895E+00  0.10471062252E+01  0.93800000000E+00 0. -1.
         22    1    1    2    0    0 -0.19618242396E+00  0.15214058602E+00  0.23592508538E+01  0.23722771534E+01  0.00000000000E+00 0.  1.
</event>
<event>
 5    1  0.3241783E+002  0.1599597E+01  0.7818608E-02  0.3353801E+00
         11   -1    0    0    0    0  0.00000000000E+00  0.00000000000E+00  0.39999999674E+01  0.40000000000E+01  0.51100000000E-03 0. -1.
    9000002   -1    0    0    0    0 -0.00000000000E+00 -0.00000000000E+00  0.00000000000E+00  0.93800000000E+00  0.93800000000E+00 0. -1.
         11    1    1    2    0    0 -0.17493964762E-01  0.40757445794E-01  0.33348582864E+00  0.33642275074E+00  0.51100000000E-03 0. -1.
    9000002    1    1    2    0    0  0.19150528179E+00 -0.40273452228E+00  0.13505787252E+00  0.10473557167E+01  0.93800000000E+00 0. -1.
         22    1    1    2    0    0 -0.17401131703E+00  0.36197707649E+00  0.35314562662E+01  0.35542215326E+01  0.00000000000E+00 0. -1.
</event>
<event>
 5    1  0.3241783E+002  0.1599669E+01  0.7818608E-02  0.3353722E+00
         11   -1    0    0    0    0  0.00000000000E+00  0.00000000000E+00  0.39999999674E+01  0.40000000000E+01  0.51100000000E-03 0.  1.
    9000002   -1    0    0    0    0 -0.00000000000E+00 -0.00000000000E+00  0.00000000000E+00  0.93800000000E+00  0.93800000000E+00 0.  1.
         11    1    1    2    0    0  0.57080874624E+00  0.24728133151E+00  0.20342897367E+01  0.21272765866E+01  0.51100000000E-03 0.  1.
    9000002    1    1    2    0    0 -0.90327457619E+00 -0.38817658186E+00  0.77033362135E+00  0.15619999702E+01  0.93800000000E+00 0.  1.
         22    1    1    2    0    0  0.33246582995E+00  0.14089525035E+00  0.11953766093E+01  0.12487234432E+01  0.00000000000E+00 0.  1.
</event>
<event>
 5    1  0.3241783E+002  0.1536079E+01  0.7818608E-02  0.3425804E+00
         11   -1    0    0    0    0  0.00000000000E+00  0.00000000000E+00  0.39999999674E+01  0.40000000000E+01  0.51100000000E-03 0.  1.
    9000002   -1    0    0    0    0 -0.00000000000E+00 -0.00000000000E+00  0.00000000000E+00  0.93800000000E+00  0.93800000000E+00 0. -1.
         11    1    1    2    0    0  0.11116871744E+00 -0.34180860058E+00  0.16723305188E+01  0.17105207477E+01  0.51100000000E-03 0.  1.
    9000002    1    1    2    0    0  0.22922253375E-01  0.15697553103E+00  0.65239724378E-01  0.95355491120E+00  0.93800000000E+00 0. -1.
         22    1    1    2    0    0 -0.13409097082E+00  0.18483306955E+00  0.22624297242E+01  0.22739243411E+01  0.00000000000E+00 0.  1.
</event>
<event>
 5    1  0.3241783E+002  0.1599608E+01  0.7818608E-02  0.3353789E+00
         11   -1    0    0    0    0  0.00000000000E+00  0.00000000000E+00  0.39999999674E+01  0.40000000000E+01  0.51100000000E-03 0.  1.
    9000002   -1    0    0    0    0 -0.00000000000E+00 -0.00000000000E+00  0.00000000000E+00  0.93800000000E+00  0.93800000000E+00 0. -1.
         11    1    1    2    0    0  0.18541753008E-01 -0.55374854299E-03  0.20481090660E+00  0.20564987679E+00  0.51100000000E-03 0.  1.
    9000002    1    1    2    0    0 -0.31006615697E+00 -0.60933505201E-01  0.66770609626E-01  0.99204648483E+00  0.93800000000E+00 0. -1.
         22    1    1    2    0    0  0.29152440397E+00  0.61487253744E-01  0.37284184511E+01  0.37403036384E+01  0.00000000000E+00 0.  1.
</event>
<event>
 5    1  0.3241783E+002  0.1599322E+01  0.7818608E-02  0.3354100E+00
         11   -1    0    0    0    0  0.00000000000E+00  0.00000000000E+00  0.39999999674E+01  0.40000000000E+01  0.51100000000E-03 0. -1.
    9000002   -1    0    0    0    0 -0.00000000000E+00 -0.00000000000E+00  0.00000000000E+00  0.93800000000E+00  0.93800000000E+00 0.  1.
         11    1    1    2    0    0  0.11619454241E+00 -0.22475235993E+00  0.19978195767E+01  0.20137770774E+01  0.51100000000E-03 0. -1.
    9000002    1    1    2    0    0 -0.26154565387E+00  0.41111432754E+00  0.16250288963E+00  0.10694261585E+01  0.93800000000E+00 0.  1.
         22    1    1    2    0    0  0.14535111146E+00 -0.18636196761E+00  0.18396775010E+01  0.18547967641E+01  0.00000000000E+00 0. -1.
</event>
<event>
 5    1  0.3241783E+002  0.1599660E+01  0.7818608E-02  0.3353732E+00
         11   -1    0    0    0    0  0.00000000000E+00  0.00000000000E+00  0.39999999674E+01  0.40000000000E+01  0.51100000000E-03 0. -1.
    9000002   -1    0    0    0    0 -0.00000000000E+00 -0.00000000000E+00  0.00000000000E+00  0.93800000000E+00  0.93800000000E+00 0. -1.
         11    1    1    2    0    0  0.21599960079E+00 -0.18061959645E+00  0.21683573319E+01  0.21865619237E+01  0.51100000000E-03 0. -1.
    9000002    1    1    2    0    0 -0.37592243747E+00  0.32556373903E+00  0.16923572938E+00  0.10750786758E+01  0.93800000000E+00 0. -1.
         22    1    1    2    0    0  0.15992283669E+00 -0.14494414258E+00  0.16624069061E+01  0.16763594005E+01  0.00000000000E+00 0. -1.
</event>
<event>
 5    1  0.3241783E+002  0.1591289E+01  0.7818608E-02  0.3362873E+00
         11   -1    0    0    0    0  0.00000000000E+00  0.00000000000E+00  0.39999999674E+01  0.40000000000E+01  0.51100000000E-03 0.  1.
    9000002   -1    0    0    0    0 -0.00000000000E+00 -0.00000000000E+00  0.00000000000E+00  0.93800000000E+00  0.93800000000E+00 0.  1.
         11    1    1    2    0    0 -0.30736447585E-01  0.17287390756E-01  0.30871499203E+00  0.31072301253E+00  0.51100000000E-03 0.  1.
    9000002    1    1    2    0    0 -0.28813439162E+00  0.10891847058E+00  0.69969612562E-01  0.98975977265E+00  0.93800000000E+00 0.  1.
         22    1    1    2    0    0  0.31887083921E+00 -0.12620586133E+00  0.36213153628E+01  0.36375172148E+01  0.00000000000E+00 0.  1.
</event>
<event>
 5    1  0.3241783E+002  0.1599677E+01  0.7818608E-02  0.3353714E+00
         11   -1    0    0    0    0  0.00000000000E+00  0.00000000000E+00  0.39999999674E+01  0.40000000000E+01  0.51100000000E-03 0.  1.
    9000002   -1    0    0    0    0 -0.00000000000E+00 -0.00000000000E+00  0.00000000000E+00  0.93800000000E+00  0.93800000000E+00 0.  1.
         11    1    1    2    0    0  0.32107900624E+00 -0.21398381849E+00  0.22973998129E+01  0.23295765633E+01  0.51100000000E-03 0.  1.
    9000002    1    1    2    0    0 -0.52090830413E+00  0.34695410367E+00  0.27486673530E+00  0.11606542696E+01  0.93800000000E+00 0.  1.
         22    1    1    2    0    0  0.19982929789E+00 -0.13297028518E+00  0.14277334191E+01  0.14477691671E+01  0.00000000000E+00 0.  1.
</event>
<event>
 5    1  0.3241783E+002  0.1599671E+01  0.7818608E-02  0.3353721E+00
         11   -1    0    0    0    0  0.00000000000E+00  0.00000000000E+00  0.39999999674E+01  0.40000000000E+01  0.51100000000E-03 0. -1.
    9000002   -1    0    0    0    0 -0.00000000000E+00 -0.00000000000E+00  0.00000000000E+00  0.93800000000E+00  0.93800000000E+00 0. -1.
         11    1    1    2    0    0  0.14337030568E+00  0.15217480227E+00  0.17225227837E+01  0.17351648960E+01  0.51100000000E-03 0. -1.
    9000002    1    1    2    0    0 -0.31636117937E+00 -0.34545401287E+00  0.14944965214E+00  0.10590571606E+01  0.93800000000E+00 0. -1.
         22    1    1    2    0    0  0.17299087369E+00  0.19327921060E+00  0.21280275315E+01  0.21437779434E+01  0.00000000000E+00 0. -1.
</event>
<event>
 5    1  0.3241783E+002  0.1598224E+01  0.7818608E-02  0.3355293E+00
         11   -1    0    0    0    0  0.00000000000E+00  0.00000000000E+00  0.39999999674E+01  0.40000000000E+01  0.51100000000E-03 0.  1.
    9000002   -1    0    0    0    0 -0.00000000000E+00 -0.00000000000E+00  0.00000000000E+00  0.93800000000E+00  0.93800000000E+00 0.  1.
         11    1    1    2    0    0  0.39857949988E+00  0.92248238103E-01  0.21862313488E+01  0.22241814509E+01  0.51100000000E-03 0.  1.
    9000002    1    1    2    0    0 -0.61937537441E+00 -0.10664762685E+00  0.27882321091E+00  0.11630072888E+01  0.93800000000E+00 0.  1.
         22    1    1    2    0    0  0.22079587454E+00  0.14399388752E-01  0.15349454077E+01  0.15508112603E+01  0.00000000000E+00 0. -1.
</event>
<event>
 5    1  0.3241783E+002  0.1596323E+01  0.7818608E-02  0.3357364E+00
         11   -1    0    0    0    0  0.00000000000E+00  0.00000000000E+00  0.39999999674E+01  0.40000000000E+01  0.51100000000E-03 0. -1.
    9000002   -1    0    0    0    0 -0.00000000000E+00 -0.00000000000E+00  0.00000000000E+00  0.93800000000E+00  0.93800000000E+00 0. -1.
         11    1    1    2    0    0 -0.88077341295E-02 -0.93077868387E-02  0.47359897508E-01  0.49065589666E-01  0.51100000000E-03 0. -1.
    9000002    1    1    2    0    0  0.77072381662E-01 -0.31369712704E+00  0.72428931355E-01  0.99470397085E+00  0.93800000000E+00 0. -1.
         22    1    1    2    0    0 -0.68264647533E-01  0.32300491387E+00  0.38802111385E+01  0.38942304395E+01  0.00000000000E+00 0. -1.
</event>
<event>
 5    1  0.3241783E+002  0.1535262E+01  0.7818608E-02  0.3426771E+00
         11   -1    0    0    0    0  0.00000000000E+00  0.00000000000E+00  0.39999999674E+01  0.40000000000E+01  0.51100000000E-03 0. -1.
    9000002   -1    0    0    0    0 -0.00000000000E+00 -0.00000000000E+00  0.00000000000E+00  0.93800000000E+00  0.93800000000E+00 0.  1.
         11    1    1    2    0    0 -0.10988874846E+00  0.42630310182E-01  0.13662007148E+00  0.18043886898E+00  0.51100000000E-03 0. -1.
    9000002    1    1    2    0    0 -0.16765265626E+00 -0.29881332162E+00  0.13222214604E+00  0.10073348551E+01  0.93800000000E+00 0.  1.
         22    1    1    2    0    0  0.27754140472E+00  0.25618301144E+00  0.37311577498E+01  0.37502262760E+01  0.00000000000E+00 0. -1.
</event>
<event>
 5    1  0.3241783E+002  0.1462907E+01  0.7818608E-02  0.3517070E+00
         11   -1    0    0    0    0  0.00000000000E+00  0.00000000000E+00  0.39999999674E+01  0.40000000000E+01  0.51100000000E-03 0.  1.
    9000002   -1    0    0    0    0 -0.00000000000E+00 -0.00000000000E+00  0.00000000000E+00  0.93800000000E+00  0.93800000000E+00 0. -1.
         11    1    1    2    0    0 -0.42567241981E+00 -0.30313282639E+00  0.14230414113E+01  0.15159596429E+01  0.51100000000E-03 0.  1.
    9000002    1    1    2    0    0  0.19944989509E+00  0.13830124948E+00  0.15171519601E+00  0.98069821911E+00  0.93800000000E+00 0. -1.
         22    1    1    2    0    0  0.22622252472E+00  0.16483157691E+00  0.24252433600E+01  0.24413421380E+01  0.00000000000E+00 0. -1.
</event>
<event>
 5    1  0.3241783E+002  0.1599674E+01  0.7818608E-02  0.3353717E+00
         11   -1    0    0    0    0  0.00000000000E+00  0.00000000000E+00  0.39999999674E+01  0.40000000000E+01  0.51100000000E-03 0.  1.
    9000002   -1    0    0    0    0 -0.00000000000E+00 -0.00000000000E+00  0.00000000000E+00  0.93800000000E+00  0.93800000000E+00 0.  1.
         11    1    1    2    0    0 -0.21742954790E+00  0.91656391623E-01  0.17191631602E+01  0.17352805925E+01  0.51100000000E-03 0.  1.
    9000002    1    1    2    0    0  0.47903699761E+00 -0.20625569155E+00  0.18690751898E+00  0.10894017973E+01  0.93800000000E+00 0.  1.
         22    1    1    2    0    0 -0.26160744971E+00  0.11459929993E+00  0.20939292882E+01  0.21133176101E+01  0.00000000000E+00 0.  1.
</event>
<event>
 5    1  0.3241783E+002  0.1599667E+01  0.7818608E-02  0.3353725E+00
         11   -1    0    0    0    0  0.00000000000E+00  0.00000000000E+00  0.39999999674E+01  0.40000000000E+01  0.51100000000E-03 0.  1.
    9000002   -1    0    0    0    0 -0.00000000000E+00 -0.00000000000E+00  0.00000000000E+00  0.93800000000E+00  0.93800000000E+00 0. -1.
         11    1    1    2    0    0  0.13296866704E+00  0.24569671153E-02  0.11402951808E+01  0.11480244177E+01  0.51100000000E-03 0.  1.
    9000002    1    1    2    0    0 -0.45779629370E+00  0.18369097701E-03  0.14251571552E+00  0.10534382798E+01  0.93800000000E+00 0. -1.
         22    1    1    2    0    0  0.32482762666E+00 -0.26406580923E-02  0.27171890710E+01  0.27365373025E+01  0.00000000000E+00 0.  1.
</event>
<event>
 5    1  0.3241783E+002  0.1598434E+01  0.7818608E-02  0.3355065E+00
         11   -1    0    0    0    0  0.00000000000E+00  0.00000000000E+00  0.39999999674E+01  0.40000000000E+01  0.51100000000E-03 0. -1.
    9000002   -1    0    0    0    0 -0.00000000000E+00 -0.00000000000E+00  0.00000000000E+00  0.93800000000E+00  0.93800000000E+00 0. -1.
         11    1    1    2    0    0  0.28505342156E+00  0.50194648331E+00  0.24427517877E+01  0.25100283430E+01  0.51100000000E-03 0. -1.
    9000002    1    1    2    0    0 -0.43505623986E+00 -0.67274297852E+00  0.47460633924E+00  0.13217232026E+01  0.93800000000E+00 0. -1.
         22    1    1    2    0    0  0.15000281830E+00  0.17079649522E+00  0.10826418404E+01  0.11062484544E+01  0.00000000000E+00 0. -1.
</event>
<event>
 5    1  0.3241783E+002  0.1599638E+01  0.7818608E-02  0.3353756E+00
         11   -1    0    0    0    0  0.00000000000E+00  0.00000000000E+00  0.39999999674E+01  0.40000000000E+01  0.51100000000E-03 0. -1.
    9000002   -1    0    0    0    0 -0.00000000000E+00 -0.00000000000E+00  0.00000000000E+00  0.93800000000E+00  0.93800000000E+00 0. -1.
         11    1    1    2    0    0  0.48212695393E-01  0.55754086488E+00  0.19721459525E+01  0.20500088290E+01  0.51100000000E-03 0. -1.
    9000002    1    1    2    0    0 -0.82045738761E-01 -0.92761645295E+00  0.67326582619E+00  0.14833525069E+01  0.93800000000E+00 0. -1.
         22    1    1    2    0    0  0.33833043368E-01  0.37007558807E+00  0.13545881887E+01  0.14046386641E+01  0.00000000000E+00 0.  1.
</event>
<event>
 5    1  0.3241783E+002  0.1576485E+01  0.7818608E-02  0.3379288E+00
         11   -1    0    0    0    0  0.00000000000E+00  0.00000000000E+00  0.39999999674E+01  0.40000000000E+01  0.51100000000E-03 0.  1.
    9000002   -1    0    0    0    0 -0.00000000000E+00 -0.00000000000E+00  0.00000000000E+00  0.93800000000E+00  0.93800000000E+00 0.  1.
         11    1    1    2    0    0 -0.16136313845E+00  0.11038991469E+00  0.14935876421E+01  0.15063294133E+01  0.51100000000E-03 0.  1.
    9000002    1    1    2    0    0 -0.31216358450E-01 -0.18665572225E+00  0.41216105186E-01  0.95778786117E+00  0.93800000000E+00 0.  1.
         22    1    1    2    0    0  0.19257949690E+00  0.76265807554E-01  0.24651962201E+01  0.24738827255E+01  0.00000000000E+00 0. -1.
</event>
<event>
 5    1  0.3241783E+002  0.1598664E+01  0.7818608E-02  0.3354815E+00
         11   -1    0    0    0    0  0.00000000000E+00  0.00000000000E+00  0.39999999674E+01  0.40000000000E+01  0.51100000000E-03 0. -1.
    9000002   -1    0    0    0    0 -0.00000000000E+00 -0.00000000000E+00  0.00000000000E+00  0.93800000000E+00  0.93800000000E+00 0. -1.
         11    1    1    2    0    0 -0.11572422399E-01 -0.17966026472E-01  0.63505531919E+00  0.63541499716E+00  0.51100000000E-03 0. -1.
    9000002    1    1    2    0    0  0.76776323641E-01  0.28639189090E+00  0.59421857972E-01  0.98554039808E+00  0.93800000000E+00 0. -1.
         22    1    1    2    0    0 -0.65203901242E-01 -0.26842586442E+00  0.33055227902E+01  0.33170446048E+01  0.00000000000E+00 0. -1.
</event>
<event>
 5    1  0.3241783E+002  0.1599603E+01  0.7818608E-02  0.3353795E+00
         11   -1    0    0    0    0  0.00000000000E+00  0.00000000000E+00  0.39999999674E+01  0.40000000000E+01  0.51100000000E-03 0.  1.
    9000002   -1    0    0    0    0 -0.00000000000E+00 -0.00000000000E+00  0.00000000000E+00  0.93800000000E+00  0.93800000000E+00 0. -1.
         11    1    1    2    0    0  0.19461733118E+00  0.72145405415E-01  0.18196098398E+01  0.18314095924E+01  0.51100000000E-03 0.  1.
    9000002    1    1    2    0    0 -0.43441332951E+00 -0.15399014427E+00  0.14457788726E+00  0.10550709317E+01  0.93800000000E+00 0. -1.
         22    1    1    2    0    0  0.23979599834E+00  0.81844738854E-01  0.20358122403E+01  0.20515194759E+01  0.00000000000E+00 0.  1.
</event>
<event>
 5    1  0.3241783E+002  0.1599676E+01  0.7818608E-02  0.3353715E+00
         11   -1    0    0    0    0  0.00000000000E+00  0.00000000000E+00  0.39999999674E+01  0.40000000000E+01  0.51100000000E-03 0. -1.
    9000002   -1    0    0    0    0 -0.00000000000E+00 -0.00000000000E+00  0.00000000000E+00  0.93800000000E+00  0.93800000000E+00 0. -1.
         11    1    1    2    0    0 -0.67326912377E-01  0.93247808663E-01  0.12564095577E+01  0.12616629124E+01  0.51100000000E-03 0. -1.
    9000002    1    1    2    0    0  0.21198566391E+00 -0.29223835028E+00  0.87503946296E-01  0.10088816163E+01  0.93800000000E+00 0. -1.
         22    1    1    2    0    0 -0.14465875154E+00  0.19899054162E+00  0.26560864634E+01  0.26674554713E+01  0.00000000000E+00 0.  1.
</event>
<event>
 5    1  0.3241783E+002  0.1599668E+01  0.7818608E-02  0.3353724E+00
         11   -1    0    0    0    0  0.00000000000E+00  0.00000000000E+00  0.39999999674E+01  0.40000000000E+01  0.51100000000E-03 0.  1.
    9000002   -1    0    0    0    0 -0.00000000000E+00 -0.00000000000E+00  0.00000000000E+00  0.93800000000E+00  0.93800000000E+00 0. -1.
         11    1    1    2    0    0  0.16269662977E-01 -0.37811662734E-01  0.58685972010E+00  0.58830180687E+00  0.51100000000E-03 0.  1.
    9000002    1    1    2    0    0 -0.12690317139E+00  0.25377335088E+00  0.53634505035E-01  0.98144077185E+00  0.93800000000E+00 0. -1.
         22    1    1    2    0    0  0.11063350842E+00 -0.21596168814E+00  0.33595057422E+01  0.33682574213E+01  0.00000000000E+00 0.  1.
</event>
<event>
 5    1  0.3241783E+002  0.1583029E+01  0.7818608E-02  0.3371992E+00
         11   -1    0    0    0    0  0.00000000000E+00  0.00000000000E+00  0.39999999674E+01  0.40000000000E+01  0.51100000000E-03 0. -1.
    9000002   -1    0    0    0    0 -0.00000000000E+00 -0.00000000000E+00  0.00000000000E+00  0.93800000000E+00  0.93800000000E+00 0.  1.
         11    1    1    2    0    0 -0.38390848439E-01  0.77415556493E-01  0.82246239798E+00  0.82698953007E+00  0.51100000000E-03 0. -1.
    9000002    1    1    2    0    0  0.20186488602E+00  0.23331870058E+00  0.76758076241E-01  0.99041549388E+00  0.93800000000E+00 0.  1.
         22    1    1    2    0    0 -0.16347403758E+00 -0.31073425707E+00  0.31007794931E+01  0.31205949761E+01  0.00000000000E+00 0. -1.
</event>
<event>
 5    1  0.3241783E+002  0.1599625E+01  0.7818608E-02  0.3353770E+00
         11   -1    0    0    0    0  0.00000000000E+00  0.00000000000E+00  0.39999999674E+01  0.40000000000E+01  0.51100000000E-03 0. -1.
    9000002   -1    0    0    0    0 -0.00000000000E+00 -0.00000000000E+00  0.00000000000E+00  0.93800000000E+00  0.93800000000E+00 0.  1.
         11    1    1    2    0    0 -0.47723411814E-01  0.10713506801E+00  0.12366632984E+01  0.12422124704E+01  0.51100000000E-03 0. -1.
    9000002    1    1    2    0    0  0.13624007045E+00 -0.31888584700E+00  0.80641397048E-01  0.10032928661E+01  0.93800000000E+00 0.  1.
         22    1    1    2    0    0 -0.88516658632E-01  0.21175077899E+00  0.26826952719E+01  0.26924946635E+01  0.00000000000E+00 0.  1.
</event>
<event>
 5    1  0.3241783E+002  0.1598972E+01  0.7818608E-02  0.3354480E+00
         11   -1    0    0    0    0  0.00000000000E+00  0.00000000000E+00  0.39999999674E+01  0.40000000000E+01  0.51100000000E-03 0. -1.
    9000002   -1    0    0    0    0 -0.00000000000E+00 -0.00000000000E+00  0.00000000000E+00  0.93800000000E+00  0.93800000000E+00 0. -1.
         11    1    1    2    0    0 -0.21480282710E-01  0.36950710167E-01  0.54812166683E+00  0.54978575854E+00  0.51100000000E-03 0. -1.
    9000002    1    1    2    0    0 -0.19687436341E-02 -0.23995807820E+00  0.38760502476E-01  0.96898407200E+00  0.93800000000E+00 0. -1.
         22    1    1    2    0    0  0.23449026344E-01  0.20300736803E+00  0.34131177981E+01  0.34192301695E+01  0.00000000000E+00 0. -1.
</event>
<event>
 5    1  0.3241783E+002  0.1599676E+01  0.7818608E-02  0.3353715E+00
         11   -1    0    0    0    0  0.00000000000E+00  0.00000000000E+00  0.39999999674E+01  0.40000000000E+01  0.51100000000E-03 0. -1.
    9000002   -1    0    0    0    0 -0.00000000000E+00 -0.00000000000E+00  0.00000000000E+00  0.93800000000E+00  0.93800000000E+00 0.  1.
         11    1    1    2    0    0  0.17572474055E+00 -0.31566235338E+00  0.22065595031E+01  0.22359398488E+01  0.51100000000E-03 0. -1.
    9000002    1    1    2    0    0 -0.29705470830E+00  0.53635275780E+00  0.26302458464E+00  0.11510611246E+01  0.93800000000E+00 0.  1.
         22    1    1    2    0    0  0.12132996776E+00 -0.22069040441E+00  0.15304158796E+01  0.15509990265E+01  0.00000000000E+00 0. -1.
</event>
<event>
 5    1  0.3241783E+002  0.1556409E+01  0.7818608E-02  0.3402079E+00
         11   -1    0    0    0    0  0.00000000000E+00  0.00000000000E+00  0.39999999674E+01  0.40000000000E+01  0.51100000000E-03 0. -1.
    9000002   -1    0    0    0    0 -0.00000000000E+00 -0.00000000000E+00  0.00000000000E+00  0.93800000000E+00  0.93800000000E+00 0.  1.
         11    1    1    2    0    0  0.93806350324E-01 -0.22050405686E+00  0.82858219953E+00  0.86253718352E+00  0.51100000000E-03 0. -1.
    9000002    1    1    2    0    0  0.11867899187E+00  0.24713777408E+00  0.84241642296E-01  0.98086820561E+00  0.93800000000E+00 0.  1.
         22    1    1    2    0    0 -0.21248534219E+00 -0.26633717214E-01  0.30871761255E+01  0.30945946109E+01  0.00000000000E+00 0. -1.
</event>
<event>
 5    1  0.3241783E+002  0.1598270E+01  0.7818608E-02  0.3355243E+00
         11   -1    0    0    0    0  0.00000000000E+00  0.00000000000E+00  0.39999999674E+01  0.40000000000E+01  0.51100000000E-03 0.  1.
    9000002   -1    0    0    0    0 -0.00000000000E+00 -0.00000000000E+00  0.00000000000E+00  0.93800000000E+00  0.93800000000E+00 0.  1.
         11    1    1    2    0    0  0.39138322342E-01  0.63638251635E-02  0.84640427702E+00  0.84733273737E+00  0.51100000000E-03 0.  1.
    9000002    1    1    2    0    0 -0.31398553876E+00 -0.13950871386E+00  0.80227513183E-01  0.10021626882E+01  0.93800000000E+00 0.  1.
         22    1    1    2    0    0  0.27484721642E+00  0.13314488870E+00  0.30733681772E+01  0.30885045744E+01  0.00000000000E+00 0.  1.
</event>
<event>
 5    1  0.3241783E+002  0.1599361E+01  0.7818608E-02  0.3354057E+00
         11   -1    0    0    0    0  0.00000000000E+00  0.00000000000E+00  0.39999999674E+01  0.40000000000E+01  0.51100000000E-03 0.  1.
    9000002   -1    0    0    0    0 -0.00000000000E+00 -0.00000000000E+00  0.00000000000E+00  0.93800000000E+00  0.93800000000E+00 0.  1.
         11    1    1    2    0    0  0.12330741128E+00  0.14263744689E+00  0.18506818486E+01  0.18602617356E+01  0.51100000000E-03 0.  1.
    9000002    1    1    2    0    0 -0.26399644083E+00 -0.34302807611E+00  0.12720900545E+00  0.10408595068E+01  0.93800000000E+00 0.  1.
         22    1    1    2    0    0  0.14068902955E+00  0.20039062922E+00  0.20221091133E+01  0.20368787576E+01  0.00000000000E+00 0.  1.
</event>
<event>
 5    1  0.3241783E+002  0.1597656E+01  0.7818608E-02  0.3355911E+00
         11   -1    0    0    0    0  0.00000000000E+00  0.00000000000E+00  0.39999999674E+01  0.40000000000E+01  0.51100000000E-03 0.  1.
    9000002   -1    0    0    0    0 -0.00000000000E+00 -0.00000000000E+00  0.00000000000E+00  0.93800000000E+00  0.93800000000E+00 0.  1.
         11    1    1    2    0    0  0.17384096954E+00  0.56182985262E+00  0.18589060516E+01  0.19497193223E+01  0.51100000000E-03 0.  1.
    9000002    1    1    2    0    0 -0.21500381767E+00 -0.94839300418E+00  0.75300472842E+00  0.15467824841E+01  0.93800000000E+00 0.  1.
         22    1    1    2    0    0  0.41162848124E-01  0.38656315156E+00  0.13880891873E+01  0.14414981936E+01  0.00000000000E+00 0.  1.
</event>
<event>
 5    1  0.3241783E+002  0.1593231E+01  0.7818608E-02  0.3360743E+00
         11   -1    0    0    0    0  0.00000000000E+00  0.00000000000E+00  0.39999999674E+01  0.40000000000E+01  0.51100000000E-03 0.  1.
    9000002   -1    0    0    0    0 -0.00000000000E+00 -0.00000000000E+00  0.00000000000E+00  0.93800000000E+00  0.93800000000E+00 0.  1.
         11    1    1    2    0    0  0.23330903290E-01 -0.29080310138E-01  0.57406000899E+00  0.57526963290E+00  0.51100000000E-03 0.  1.
    9000002    1    1    2    0    0  0.87091289283E-01 -0.19773216426E+00  0.35810850688E-01  0.96322859098E+00  0.93800000000E+00 0.  1.
         22    1    1    2    0    0 -0.11042219257E+00  0.22681247439E+00  0.33901291077E+01  0.33995017761E+01  0.00000000000E+00 0.  1.
</event>
<event>
 5    1  0.3241783E+002  0.1599674E+01  0.7818608E-02  0.3353717E+00
         11   -1    0    0    0    0  0.00000000000E+00  0.00000000000E+00  0.39999999674E+01  0.40000000000E+01  0.51100000000E-03 0. -1.
    9000002   -1    0    0    0    0 -0.00000000000E+00 -0.00000000000E+00  0.00000000000E+00  0.93800000000E+00  0.93800000000E+00 0.  1.
         11    1    1    2    0    0  0.71940193396E-01  0.71338882887E-01  0.11253996511E+01  0.11299510005E+01  0.51100000000E-03 0. -1.
    9000002    1    1    2    0    0 -0.24785135589E+00 -0.25435708314E+00  0.84620898426E-01  0.10065448409E+01  0.93800000000E+00 0.  1.
         22    1    1    2    0    0  0.17591116249E+00  0.18301820026E+00  0.27899794178E+01  0.28015041586E+01  0.00000000000E+00 0. -1.
</event>
<event>
 5    1  0.3241783E+002  0.1599495E+01  0.7818608E-02  0.3353911E+00
         11   -1    0    0    0    0  0.00000000000E+00  0.00000000000E+00  0.39999999674E+01  0.40000000000E+01  0.51100000000E-03 0.  1.
    9000002   -1    0    0    0    0 -0.00000000000E+00 -0.00000000000E+00  0.00000000000E+00  0.93800000000E+00  0.93800000000E+00 0. -1.
         11    1    1    2    0    0 -0.28588902900E-01  0.51666074928E-02  0.45114594982E+00  0.45208068789E+00  0.51100000000E-03 0.  1.
    9000002    1    1    2    0    0  0.31447495501E+00 -0.10669812822E+00  0.73946076629E-01  0.99779306980E+00  0.93800000000E+00 0. -1.
         22    1    1    2    0    0 -0.28588605211E+00  0.10153152073E+00  0.34749079409E+01  0.34881262423E+01  0.00000000000E+00 0.  1.
</event>
<event>
 5    1  0.3241783E+002  0.1598762E+01  0.7818608E-02  0.3354709E+00
         11   -1    0    0    0    0  0.00000000000E+00  0.00000000000E+00  0.39999999674E+01  0.40000000000E+01  0.51100000000E-03 0. -1.
    9000002   -1    0    0    0    0 -0.00000000000E+00 -0.00000000000E+00  0.00000000000E+00  0.93800000000E+00  0.93800000000E+00 0.  1.
         11    1    1    2    0    0  0.55423526977E-02 -0.10965462449E-01  0.19283142912E+00  0.19322313583E+00  0.51100000000E-03 0. -1.
    9000002    1    1    2    0    0 -0.26880478104E+00 -0.56600781039E-01  0.50934772671E-01  0.97872264191E+00  0.93800000000E+00 0.  1.
         22    1    1    2    0    0  0.26326242834E+00  0.67566243487E-01  0.37562337656E+01  0.37660542223E+01  0.00000000000E+00 0. -1.
</event>
<event>
 5    1  0.3241783E+002  0.1597801E+01  0.7818608E-02  0.3355753E+00
         11   -1    0    0    0    0  0.00000000000E+00  0.00000000000E+00  0.39999999674E+01  0.40000000000E+01  0.51100000000E-03 0.  1.
    9000002   -1    0    0    0    0 -0.00000000000E+00 -0.00000000000E+00  0.00000000000E+00  0.93800000000E+00  0.93800000000E+00 0. -1.
         11    1    1    2    0    0 -0.11487326763E-01  0.77622440876E-01  0.49774185238E+00  0.50388928818E+00  0.51100000000E-03 0.  1.
    9000002    1    1    2    0    0  0.46037948062E-02 -0.34958918330E+00  0.83466880275E-01  0.10045120766E+01  0.93800000000E+00 0. -1.
         22    1    1    2    0    0  0.68835319571E-02  0.27196674243E+00  0.34187912347E+01  0.34295986352E+01  0.00000000000E+00 0.  1.
</event>
<event>
 5    1  0.3241783E+002  0.1599677E+01  0.7818608E-02  0.3353714E+00
         11   -1    0    0    0    0  0.00000000000E+00  0.00000000000E+00  0.39999999674E+01  0.40000000000E+01  0.51100000000E-03 0. -1.
    9000002   -1    0    0    0    0 -0.00000000000E+00 -0.00000000000E+00  0.00000000000E+00  0.93800000000E+00  0.93800000000E+00 0.  1.
         11    1    1    2    0    0  0.23436018357E-01 -0.23312928600E-01  0.49997764921E+00  0.50106950658E+00  0.51100000000E-03 0. -1.
    9000002    1    1    2    0    0 -0.18633103304E+00  0.18655837336E+00  0.46233706532E-01  0.97545109368E+00  0.93800000000E+00 0.  1.
         22    1    1    2    0    0  0.16289501469E+00 -0.16324544476E+00  0.34537886116E+01  0.34614793997E+01  0.00000000000E+00 0. -1.
</event>
<event>
 5    1  0.3241783E+002  0.1596746E+01  0.7818608E-02  0.3356903E+00
         11   -1    0    0    0    0  0.00000000000E+00  0.00000000000E+00  0.39999999674E+01  0.40000000000E+01  0.51100000000E-03 0.  1.
    9000002   -1    0    0    0    0 -0.00000000000E+00 -0.00000000000E+00  0.00000000000E+00  0.93800000000E+00  0.93800000000E+00 0. -1.
         11    1    1    2    0    0 -0.14563221070E-01 -0.24924473349E-01  0.31206394753E+00  0.31339668991E+00  0.51100000000E-03 0.  1.
    9000002    1    1    2    0    0  0.35202144762E+00 -0.96296775990E-01  0.91843933897E-01  0.10106787209E+01  0.93800000000E+00 0. -1.
         22    1    1    2    0    0 -0.33745822655E+00  0.12122124934E+00  0.35960920859E+01  0.36139245892E+01  0.00000000000E+00 0.  1.
</event>
<event>
 5    1  0.3241783E+002  0.1588637E+01  0.7818608E-02  0.3365790E+00
         11   -1    0    0    0    0  0.00000000000E+00  0.00000000000E+00  0.39999999674E+01  0.40000000000E+01  0.51100000000E-03 0.  1.
    9000002   -1    0    0    0    0 -0.00000000000E+00 -0.00000000000E+00  0.00000000000E+00  0.93800000000E+00  0.93800000000E+00 0. -1.
         11    1    1    2    0    0  0.21152783555E+00 -0.68994713385E-01  0.12156409115E+01  0.12358346906E+01  0.51100000000E-03 0.  1.
    9000002    1    1    2    0    0 -0.42461492217E+00 -0.61453238386E-01  0.13408753531E+00  0.10401431631E+01  0.93800000000E+00 0. -1.
         22    1    1    2    0    0  0.21308708663E+00  0.13044795177E+00  0.26502715206E+01  0.26620221463E+01  0.00000000000E+00 0.  1.
</event>
<event>
 5    1  0.3241783E+002  0.1599676E+01  0.7818608E-02  0.3353715E+00
         11   -1    0    0    0    0  0.00000000000E+00  0.00000000000E+00  0.39999999674E+01  0.40000000000E+01  0.51100000000E-03 0. -1.
    9000002   -1    0    0    0    0 -0.00000000000E+00 -0.00000000000E+00  0.00000000000E+00  0.93800000000E+00  0.93800000000E+00 0.  1.
         11    1    1    2    0    0  0.14805107357E-01 -0.65060420680E-03  0.19833348700E+00  0.19888702239E+00  0.51100000000E-03 0.  1.
    9000002    1    1    2    0    0 -0.28915024374E+00  0.12556396311E-01  0.55827845441E-01  0.98322239339E+00  0.93800000000E+00 0.  1.
         22    1    1    2    0    0  0.27434513638E+00 -0.11905792104E-01  0.37458386349E+01  0.37558905842E+01  0.00000000000E+00 0. -1.
</event>
<event>
 5    1  0.3241783E+002  0.1599637E+01  0.7818608E-02  0.3353757E+00
         11   -1    0    0    0    0  0.00000000000E+00  0.00000000000E+00  0.39999999674E+01  0.40000000000E+01  0.51100000000E-03 0.  1.
    9000002   -1    0    0    0    0 -0.00000000000E+00 -0.00000000000E+00  0.00000000000E+00  0.93800000000E+00  0.93800000000E+00 0. -1.
         11    1    1    2    0    0 -0.71214336319E-01  0.17926040323E-01  0.76107678913E+00  0.76461164305E+00  0.51100000000E-03 0.  1.
    9000002    1    1    2    0    0  0.35424540488E+00 -0.63589931626E-01  0.86982371257E-01  0.10084361255E+01  0.93800000000E+00 0. -1.
         22    1    1    2    0    0 -0.28303106856E+00  0.45663891303E-01  0.31519408070E+01  0.31649522315E+01  0.00000000000E+00 0.  1.
</event>
<event>
 5    1  0.3241783E+002  0.1555096E+01  0.7818608E-02  0.3403590E+00
         11   -1    0    0    0    0  0.00000000000E+00  0.00000000000E+00  0.39999999674E+01  0.40000000000E+01  0.51100000000E-03 0.  1.
    9000002   -1    0    0    0    0 -0.00000000000E+00 -0.00000000000E+00  0.00000000000E+00  0.93800000000E+00  0.93800000000E+00 0.  1.
         11    1    1    2    0    0 -0.68025313399E-01  0.37462726353E-01  0.70464636913E-01  0.10486384174E+00  0.51100000000E-03 0.  1.
    9000002    1    1    2    0    0 -0.65452884996E-01 -0.36843459750E+00  0.13154779359E+00  0.10184188504E+01  0.93800000000E+00 0.  1.
         22    1    1    2    0    0  0.13347819839E+00  0.33097187115E+00  0.37979875369E+01  0.38147173079E+01  0.00000000000E+00 0.  1.
</event>
<event>
 5    1  0.3241783E+002  0.1389368E+01  0.7818608E-02  0.3624067E+00
         11   -1    0    0    0    0  0.00000000000E+00  0.00000000000E+00  0.39999999674E+01  0.40000000000E+01  0.51100000000E-03 0. -1.
    9000002   -1    0    0    0    0 -0.00000000000E+00 -0.00000000000E+00  0.00000000000E+00  0.93800000000E+00  0.93800000000E+00 0.  1.
         11    1    1    2    0    0  0.28128480504E+00 -0.61535386341E+00  0.16429565037E+01  0.17768195893E+01  0.51100000000E-03 0. -1.
    9000002    1    1    2    0    0 -0.12089915393E+00  0.26142198209E+00  0.24184951376E+00  0.10105905429E+01  0.93800000000E+00 0.  1.
         22    1    1    2    0    0 -0.16038565111E+00  0.35393188132E+00  0.21151939499E+01  0.21505898678E+01  0.00000000000E+00 0. -1.
</event>
<event>
 5    1  0.3241783E+002  0.1599643E+01  0.7818608E-02  0.3353751E+00
         11   -1    0    0    0    0  0.00000000000E+00  0.00000000000E+00  0.39999999674E+01  0.40000000000E+01  0.51100000000E-03 0. -1.
    9000002   -1    0    0    0    0 -0.00000000000E+00 -0.00000000000E+00  0.00000000000E+00  0.93800000000E+00  0.93800000000E+00 0. -1.
         11    1    1    2    0    0 -0.17619445161E-01 -0.56778228117E-01  0.73657308030E+00  0.73896845385E+00  0.51100000000E-03 0. -1.
    9000002    1    1    2    0    0  0.95613613069E-01  0.27478445693E+00  0.56449556700E-01  0.98370677197E+00  0.93800000000E+00 0. -1.
         22    1    1    2    0    0 -0.77994167908E-01 -0.21800622881E+00  0.32069773304E+01  0.32153247742E+01  0.00000000000E+00 0. -1.
</event>
<event>
 5    1  0.3241783E+002  0.1598102E+01  0.7818608E-02  0.3355426E+00
         11   -1    0    0    0    0  0.00000000000E+00  0.00000000000E+00  0.39999999674E+01  0.40000000000E+01  0.51100000000E-03 0.  1.
    9000002   -1    0    0    0    0 -0.00000000000E+00 -0.00000000000E+00  0.00000000000E+00  0.93800000000E+00  0.93800000000E+00 0. -1.
         11    1    1    2    0    0  0.33899146445E+00  0.57780062606E-01  0.11172214481E+01  0.11689472930E+01  0.51100000000E-03 0.  1.
    9000002    1    1    2    0    0 -0.90049644155E+00 -0.10405517417E+00  0.63321591679E+00  0.14500095578E+01  0.93800000000E+00 0. -1.
         22    1    1    2    0    0  0.56150497711E+00  0.46275111565E-01  0.22495626025E+01  0.23190431492E+01  0.00000000000E+00 0.  1.
</event>
<event>
 5    1  0.6279427E+002  0.1532914E+01  0.7818608E-02  0.3429558E+00
         11   -1    0    0    0    0  0.00000000000E+00  0.00000000000E+00  0.39999999674E+01  0.40000000000E+01  0.51100000000E-03 0.  1.
    9000002   -1    0    0    0    0 -0.00000000000E+00 -0.00000000000E+00  0.00000000000E+00  0.93800000000E+00  0.93800000000E+00 0.  1.
         11    1    1    2    0    0 -0.10118194646E+00  0.28116780975E-01  0.10191856125E+00  0.14634204423E+00  0.51100000000E-03 0.  1.
    9000002    1    1    2    0    0 -0.96121092983E-01  0.39843845278E-01  0.57598338111E-01  0.94550957958E+00  0.93800000000E+00 0.  1.
         22    1    1    2    0    0  0.19730303944E+00 -0.67960626253E-01  0.38404830680E+01  0.38461483762E+01  0.00000000000E+00 0.  1.
</event>
<event>
 5    1  0.3241783E+002  0.1599676E+01  0.7818608E-02  0.3353715E+00
         11   -1    0    0    0    0  0.00000000000E+00  0.00000000000E+00  0.39999999674E+01  0.40000000000E+01  0.51100000000E-03 0. -1.
    9000002   -1    0    0    0    0 -0.00000000000E+00 -0.00000000000E+00  0.00000000000E+00  0.93800000000E+00  0.93800000000E+00 0.  1.
         11    1    1    2    0    0  0.32140828672E+00  0.55276850642E-01  0.23458120582E+01  0.23683735539E+01  0.51100000000E-03 0. -1.
    9000002    1    1    2    0    0 -0.52202758628E+00 -0.87978079872E-01  0.19283427240E+00  0.10942038201E+01  0.93800000000E+00 0.  1.
         22    1    1    2    0    0  0.20061929956E+00  0.32701229230E-01  0.14613536367E+01  0.14754226260E+01  0.00000000000E+00 0. -1.
</event>
<event>
 5    1  0.3241783E+002  0.1598301E+01  0.7818608E-02  0.3355210E+00
         11   -1    0    0    0    0  0.00000000000E+00  0.00000000000E+00  0.39999999674E+01  0.40000000000E+01  0.51100000000E-03 0. -1.
    9000002   -1    0    0    0    0 -0.00000000000E+00 -0.00000000000E+00  0.00000000000E+00  0.93800000000E+00  0.93800000000E+00 0.  1.
         11    1    1    2    0    0  0.17001934127E-01 -0.41287729141E-01  0.35946397972E+00  0.36222694016E+00  0.51100000000E-03 0. -1.
    9000002    1    1    2    0    0  0.67993373070E-01  0.32850874450E+00  0.76441228174E-01  0.99911378499E+00  0.93800000000E+00 0.  1.
         22    1    1    2    0    0 -0.84995307197E-01 -0.28722101536E+00  0.35640947595E+01  0.35766592748E+01  0.00000000000E+00 0. -1.
</event>
<event>
 5    1  0.3241783E+002  0.1599664E+01  0.7818608E-02  0.3353729E+00
         11   -1    0    0    0    0  0.00000000000E+00  0.00000000000E+00  0.39999999674E+01  0.40000000000E+01  0.51100000000E-03 0.  1.
    9000002   -1    0    0    0    0 -0.00000000000E+00 -0.00000000000E+00  0.00000000000E+00  0.93800000000E+00  0.93800000000E+00 0. -1.
         11    1    1    2    0    0  0.28629204228E-01 -0.31776953814E+00  0.22623263859E+01  0.22847139970E+01  0.51100000000E-03 0.  1.
    9000002    1    1    2    0    0 -0.54565308056E-01  0.53080614978E+00  0.19607823160E+00  0.10968241493E+01  0.93800000000E+00 0. -1.
         22    1    1    2    0    0  0.25936103828E-01 -0.21303661164E+00  0.15415953499E+01  0.15564618537E+01  0.00000000000E+00 0.  1.
</event>
<event>
 5    1  0.3241783E+002  0.1599675E+01  0.7818608E-02  0.3353716E+00
         11   -1    0    0    0    0  0.00000000000E+00  0.00000000000E+00  0.39999999674E+01  0.40000000000E+01  0.51100000000E-03 0.  1.
    9000002   -1    0    0    0    0 -0.00000000000E+00 -0.00000000000E+00  0.00000000000E+00  0.93800000000E+00  0.93800000000E+00 0. -1.
         11    1    1    2    0    0  0.15060952550E+00  0.34752957311E-01  0.14850917146E+01  0.14931137462E+01  0.51100000000E-03 0.  1.
    9000002    1    1    2    0    0 -0.39801427022E+00 -0.90419159166E-01  0.11248931520E+00  0.10291204155E+01  0.93800000000E+00 0. -1.
         22    1    1    2    0    0  0.24740474471E+00  0.55666201854E-01  0.24024189375E+01  0.24157658382E+01  0.00000000000E+00 0.  1.
</event>
<event>
 5    1  0.3241783E+002  0.1599408E+01  0.7818608E-02  0.3354006E+00
         11   -1    0    0    0    0  0.00000000000E+00  0.00000000000E+00  0.39999999674E+01  0.40000000000E+01  0.51100000000E-03 0. -1.
    9000002   -1    0    0    0    0 -0.00000000000E+00 -0.00000000000E+00  0.00000000000E+00  0.93800000000E+00  0.93800000000E+00 0.  1.
         11    1    1    2    0    0 -0.36266277145E-01 -0.70632585745E-01  0.88383129115E+00  0.88739067911E+00  0.51100000000E-03 0. -1.
    9000002    1    1    2    0    0  0.15179860687E+00  0.24232759964E+00  0.54686418103E-01  0.98214056373E+00  0.93800000000E+00 0.  1.
         22    1    1    2    0    0 -0.11553232972E+00 -0.17169501390E+00  0.30614822581E+01  0.30684687572E+01  0.00000000000E+00 0. -1.
</event>
<event>
 5    1  0.3241783E+002  0.1490385E+01  0.7818608E-02  0.3481663E+00
         11   -1    0    0    0    0  0.00000000000E+00  0.00000000000E+00  0.39999999674E+01  0.40000000000E+01  0.51100000000E-03 0. -1.
    9000002   -1    0    0    0    0 -0.00000000000E+00 -0.00000000000E+00  0.00000000000E+00  0.93800000000E+00  0.93800000000E+00 0.  1.
         11    1    1    2    0    0 -0.30646651193E+00  0.34000434048E-01  0.22624525448E+01  0.22833680236E+01  0.51100000000E-03 0. -1.
    9000002    1    1    2    0    0 -0.14596377097E+00  0.17003563624E-01  0.99679191051E-01  0.95465935534E+00  0.93800000000E+00 0.  1.
         22    1    1    2    0    0  0.45243028291E+00 -0.51003997671E-01  0.16378682315E+01  0.16999726210E+01  0.00000000000E+00 0.  1.
</event>
<event>
 5    1  0.3241783E+002  0.1599675E+01  0.7818608E-02  0.3353716E+00
         11   -1    0    0    0    0  0.00000000000E+00  0.00000000000E+00  0.39999999674E+01  0.40000000000E+01  0.51100000000E-03 0.  1.
    9000002   -1    0    0    0    0 -0.00000000000E+00 -0.00000000000E+00  0.00000000000E+00  0.93800000000E+00  0.93800000000E+00 0.  1.
         11    1    1    2    0    0 -0.12946671956E-01  0.38212910327E-02  0.16596119133E+00  0.16651004993E+00  0.51100000000E-03 0.  1.
    9000002    1    1    2    0    0  0.30441839295E+00 -0.78341324323E-01  0.66007954485E-01  0.99146808881E+00  0.93800000000E+00 0.  1.
         22    1    1    2    0    0 -0.29147172100E+00  0.74520033290E-01  0.37680308215E+01  0.37800218613E+01  0.00000000000E+00 0.  1.
</event>
<event>
 5    1  0.3241783E+002  0.1599609E+01  0.7818608E-02  0.3353788E+00
         11   -1    0    0    0    0  0.00000000000E+00  0.00000000000E+00  0.39999999674E+01  0.40000000000E+01  0.51100000000E-03 0. -1.
    9000002   -1    0    0    0    0 -0.00000000000E+00 -0.00000000000E+00  0.00000000000E+00  0.93800000000E+00  0.93800000000E+00 0.  1.
         11    1    1    2    0    0  0.90211091990E-01 -0.32397806533E-01  0.77071944096E+00  0.77665718099E+00  0.51100000000E-03 0. -1.
    9000002    1    1    2    0    0 -0.42680271799E+00  0.19350000442E+00  0.14963074801E+00  0.10591676791E+01  0.93800000000E+00 0.  1.
         22    1    1    2    0    0  0.33659162600E+00 -0.16110219789E+00  0.30796497784E+01  0.31021751399E+01  0.00000000000E+00 0. -1.
</event>
<event>
 5    1  0.3241783E+002  0.1599675E+01  0.7818608E-02  0.3353716E+00
         11   -1    0    0    0    0  0.00000000000E+00  0.00000000000E+00  0.39999999674E+01  0.40000000000E+01  0.51100000000E-03 0. -1.
    9000002   -1    0    0    0    0 -0.00000000000E+00 -0.00000000000E+00  0.00000000000E+00  0.93800000000E+00  0.93800000000E+00 0. -1.
         11    1    1    2    0    0 -0.32790885178E+00 -0.67373043539E-01  0.14523353220E+01  0.14904165494E+01  0.51100000000E-03 0. -1.
    9000002    1    1    2    0    0  0.79422022233E+00  0.15890951814E+00  0.48490828021E+00  0.13307960162E+01  0.93800000000E+00 0. -1.
         22    1    1    2    0    0 -0.46631137055E+00 -0.91536474600E-01  0.20627563652E+01  0.21167874344E+01  0.00000000000E+00 0.  1.
</event>
<event>
 5    1  0.3241783E+002  0.1599365E+01  0.7818608E-02  0.3354053E+00
         11   -1    0    0    0    0  0.00000000000E+00  0.00000000000E+00  0.39999999674E+01  0.40000000000E+01  0.51100000000E-03 0. -1.
    9000002   -1    0    0    0    0 -0.00000000000E+00 -0.00000000000E+00  0.00000000000E+00  0.93800000000E+00  0.93800000000E+00 0.  1.
         11    1    1    2    0    0  0.11106521185E+00  0.72610419434E-01  0.10246305537E+01  0.10331871984E+01  0.51100000000E-03 0. -1.
    9000002    1    1    2    0    0 -0.43734419509E+00 -0.20488446938E+00  0.15950154617E+00  0.10670203063E+01  0.93800000000E+00 0.  1.
         22    1    1    2    0    0  0.32627898324E+00  0.13227404995E+00  0.28158678675E+01  0.28377924953E+01  0.00000000000E+00 0. -1.
</event>
<event>
 5    1  0.3241783E+002  0.1599497E+01  0.7818608E-02  0.3353909E+00
         11   -1    0    0    0    0  0.00000000000E+00  0.00000000000E+00  0.39999999674E+01  0.40000000000E+01  0.51100000000E-03 0.  1.
    9000002   -1    0    0    0    0 -0.00000000000E+00 -0.00000000000E+00  0.00000000000E+00  0.93800000000E+00  0.93800000000E+00 0.  1.
         11    1    1    2    0    0 -0.54888001511E-01  0.10996877667E+00  0.12632719730E+01  0.12692368430E+01  0.51100000000E-03 0.  1.
    9000002    1    1    2    0    0  0.21109373474E+00 -0.31853727679E+00  0.98425722737E-01  0.10176237932E+01  0.93800000000E+00 0.  1.
         22    1    1    2    0    0 -0.15620573323E+00  0.20856850011E+00  0.26383022716E+01  0.26511393639E+01  0.00000000000E+00 0.  1.
</event>
<event>
 5    1  0.3241783E+002  0.1564266E+01  0.7818608E-02  0.3393085E+00
         11   -1    0    0    0    0  0.00000000000E+00  0.00000000000E+00  0.39999999674E+01  0.40000000000E+01  0.51100000000E-03 0.  1.
    9000002   -1    0    0    0    0 -0.00000000000E+00 -0.00000000000E+00  0.00000000000E+00  0.93800000000E+00  0.93800000000E+00 0.  1.
         11    1    1    2    0    0  0.15951548311E+00  0.31933560312E-01  0.21317245623E+01  0.21379230136E+01  0.51100000000E-03 0.  1.
    9000002    1    1    2    0    0  0.43384464624E-01  0.18645854798E+00  0.51192475111E-01  0.95870416260E+00  0.93800000000E+00 0.  1.
         22    1    1    2    0    0 -0.20289994773E+00 -0.21839210829E+00  0.18170829300E+01  0.18413728238E+01  0.00000000000E+00 0.  1.
</event>
<event>
 5    1  0.3241783E+002  0.1599672E+01  0.7818608E-02  0.3353719E+00
         11   -1    0    0    0    0  0.00000000000E+00  0.00000000000E+00  0.39999999674E+01  0.40000000000E+01  0.51100000000E-03 0.  1.
    9000002   -1    0    0    0    0 -0.00000000000E+00 -0.00000000000E+00  0.00000000000E+00  0.93800000000E+00  0.93800000000E+00 0. -1.
         11    1    1    2    0    0 -0.69456740493E-02  0.18678108090E-01  0.30129843800E+00  0.30195715586E+00  0.51100000000E-03 0. -1.
    9000002    1    1    2    0    0  0.10207824856E+00 -0.23231113783E+00  0.42788460879E-01  0.97265784630E+00  0.93800000000E+00 0. -1.
         22    1    1    2    0    0 -0.95132574507E-01  0.21363302974E+00  0.36559130685E+01  0.36633849978E+01  0.00000000000E+00 0.  1.
</event>
<event>
 5    1  0.3241783E+002  0.1598990E+01  0.7818608E-02  0.3354460E+00
         11   -1    0    0    0    0  0.00000000000E+00  0.00000000000E+00  0.39999999674E+01  0.40000000000E+01  0.51100000000E-03 0.  1.
    9000002   -1    0    0    0    0 -0.00000000000E+00 -0.00000000000E+00  0.00000000000E+00  0.93800000000E+00  0.93800000000E+00 0. -1.
         11    1    1    2    0    0 -0.18214256853E+00  0.22068065857E+00  0.12438534701E+01  0.12763414843E+01  0.51100000000E-03 0.  1.
    9000002    1    1    2    0    0  0.50994426555E+00 -0.55050671001E+00  0.40908444577E+00  0.12689739460E+01  0.93800000000E+00 0. -1.
         22    1    1    2    0    0 -0.32780169702E+00  0.32982605144E+00  0.23470620515E+01  0.23926845698E+01  0.00000000000E+00 0.  1.
</event>
<event>
 5    1  0.3241783E+002  0.1597440E+01  0.7818608E-02  0.3356146E+00
         11   -1    0    0    0    0  0.00000000000E+00  0.00000000000E+00  0.39999999674E+01  0.40000000000E+01  0.51100000000E-03 0. -1.
    9000002   -1    0    0    0    0 -0.00000000000E+00 -0.00000000000E+00  0.00000000000E+00  0.93800000000E+00  0.93800000000E+00 0. -1.
         11    1    1    2    0    0  0.33935185729E-01  0.28060429303E-01  0.43865027924E+00  0.44085520653E+00  0.51100000000E-03 0. -1.
    9000002    1    1    2    0    0  0.15443749057E-01 -0.23127120478E+00  0.37339333870E-01  0.96693490236E+00  0.93800000000E+00 0. -1.
         22    1    1    2    0    0 -0.49378934786E-01  0.20321077548E+00  0.35240103542E+01  0.35302098911E+01  0.00000000000E+00 0. -1.
</event>
<event>
 5    1  0.3241783E+002  0.1599666E+01  0.7818608E-02  0.3353726E+00
         11   -1    0    0    0    0  0.00000000000E+00  0.00000000000E+00  0.39999999674E+01  0.40000000000E+01  0.51100000000E-03 0. -1.
    9000002   -1    0    0    0    0 -0.00000000000E+00 -0.00000000000E+00  0.00000000000E+00  0.93800000000E+00  0.93800000000E+00 0. -1.
         11    1    1    2    0    0  0.38049907067E-02 -0.11012871919E-01  0.17814413931E+00  0.17852550740E+00  0.51100000000E-03 0. -1.
    9000002    1    1    2    0    0 -0.77585222086E-01  0.21123850632E+00  0.33587593759E-01  0.96520117058E+00  0.93800000000E+00 0. -1.
         22    1    1    2    0    0  0.73780231379E-01 -0.20022563440E+00  0.37882682343E+01  0.37942733220E+01  0.00000000000E+00 0. -1.
</event>
<event>
 5    1  0.3241783E+002  0.1521914E+01  0.7818608E-02  0.3442735E+00
         11   -1    0    0    0    0  0.00000000000E+00  0.00000000000E+00  0.39999999674E+01  0.40000000000E+01  0.51100000000E-03 0. -1.
    9000002   -1    0    0    0    0 -0.00000000000E+00 -0.00000000000E+00  0.00000000000E+00  0.93800000000E+00  0.93800000000E+00 0.  1.
         11    1    1    2    0    0 -0.21208344165E+00 -0.21519576992E+00  0.21878679158E+01  0.22086319032E+01  0.51100000000E-03 0. -1.
    9000002    1    1    2    0    0  0.80318603567E-01 -0.13157995307E+00  0.75522349130E-01  0.95357851661E+00  0.93800000000E+00 0.  1.
         22    1    1    2    0    0  0.13176483809E+00  0.34677572299E+00  0.17366097024E+01  0.17757895802E+01  0.00000000000E+00 0. -1.
</event>
<event>
 5    1  0.3241783E+002  0.1599677E+01  0.7818608E-02  0.3353714E+00
         11   -1    0    0    0    0  0.00000000000E+00  0.00000000000E+00  0.39999999674E+01  0.40000000000E+01  0.51100000000E-03 0. -1.
    9000002   -1    0    0    0    0 -0.00000000000E+00 -0.00000000000E+00  0.00000000000E+00  0.93800000000E+00  0.93800000000E+00 0. -1.
         11    1    1    2    0    0  0.10657963167E+00 -0.13237321702E+00  0.17862717203E+01  0.17943379855E+01  0.51100000000E-03 0. -1.
    9000002    1    1    2    0    0 -0.23320414109E+00  0.28921804654E+00  0.92778981430E-01  0.10131550667E+01  0.93800000000E+00 0. -1.
         22    1    1    2    0    0  0.12662450942E+00 -0.15684482951E+00  0.21209492656E+01  0.21305069477E+01  0.00000000000E+00 0. -1.
</event>
<event>
 5    1  0.3241783E+002  0.1589204E+01  0.7818608E-02  0.3365165E+00
         11   -1    0    0    0    0  0.00000000000E+00  0.00000000000E+00  0.39999999674E+01  0.40000000000E+01  0.51100000000E-03 0.  1.
    9000002   -1    0    0    0    0 -0.00000000000E+00 -0.00000000000E+00  0.00000000000E+00  0.93800000000E+00  0.93800000000E+00 0. -1.
         11    1    1    2    0    0 -0.21926241517E+00 -0.12325746293E+00  0.11446805055E+01  0.11719906696E+01  0.51100000000E-03 0.  1.
    9000002    1    1    2    0    0  0.35649962480E+00  0.35116043449E+00  0.18092672584E+00  0.10784174115E+01  0.93800000000E+00 0. -1.
         22    1    1    2    0    0 -0.13723720964E+00 -0.22790297156E+00  0.26743927360E+01  0.26875919189E+01  0.00000000000E+00 0.  1.
</event>
<event>
 5    1  0.3241783E+002  0.1599676E+01  0.7818608E-02  0.3353715E+00
         11   -1    0    0    0    0  0.00000000000E+00  0.00000000000E+00  0.39999999674E+01  0.40000000000E+01  0.51100000000E-03 0. -1.
    9000002   -1    0    0    0    0 -0.00000000000E+00 -0.00000000000E+00  0.00000000000E+00  0.93800000000E+00  0.93800000000E+00 0.  1.
         11    1    1    2    0    0 -0.73440212015E-01  0.89379237506E-01  0.99933835801E+00  0.10060116936E+01  0.51100000000E-03 0. -1.
    9000002    1    1    2    0    0  0.28185495884E+00 -0.34407873906E+00  0.13426247349E+00  0.10467582377E+01  0.93800000000E+00 0.  1.
         22    1    1    2    0    0 -0.20841474682E+00  0.25469950155E+00  0.28663991359E+01  0.28852300686E+01  0.00000000000E+00 0. -1.
</event>
<event>
 5    1  0.3241783E+002  0.1597527E+01  0.7818608E-02  0.3356052E+00
         11   -1    0    0    0    0  0.00000000000E+00  0.00000000000E+00  0.39999999674E+01  0.40000000000E+01  0.51100000000E-03 0. -1.
    9000002   -1    0    0    0    0 -0.00000000000E+00 -0.00000000000E+00  0.00000000000E+00  0.93800000000E+00  0.93800000000E+00 0.  1.
         11    1    1    2    0    0  0.21346487733E+00 -0.11832779622E-01  0.21570940723E+01  0.21676628812E+01  0.51100000000E-03 0. -1.
    9000002    1    1    2    0    0 -0.45305971854E+00  0.90004883508E-01  0.14704929542E+00  0.10558558059E+01  0.93800000000E+00 0.  1.
         22    1    1    2    0    0  0.23959484122E+00 -0.78172103886E-01  0.16958565996E+01  0.17144813129E+01  0.00000000000E+00 0. -1.
</event>
<event>
 5    1  0.3241783E+002  0.1178803E+01  0.7818608E-02  0.4043746E+00
         11   -1    0    0    0    0  0.00000000000E+00  0.00000000000E+00  0.39999999674E+01  0.40000000000E+01  0.51100000000E-03 0.  1.
    9000002   -1    0    0    0    0 -0.00000000000E+00 -0.00000000000E+00  0.00000000000E+00  0.93800000000E+00  0.93800000000E+00 0. -1.
         11    1    1    2    0    0  0.28643381994E+00  0.44624151229E+00  0.21931601619E+01  0.22563527156E+01  0.51100000000E-03 0.  1.
    9000002    1    1    2    0    0 -0.56751448746E+00 -0.36916460164E+00  0.20150258036E+01  0.23234733021E+01  0.93800000000E+00 0. -1.
         22    1    1    2    0    0  0.28108066752E+00 -0.77076910649E-01 -0.20818599806E+00  0.35817398230E+00  0.00000000000E+00 0. -1.
</event>
<event>
 5    1  0.3241783E+002  0.1514448E+01  0.7818608E-02  0.3451796E+00
         11   -1    0    0    0    0  0.00000000000E+00  0.00000000000E+00  0.39999999674E+01  0.40000000000E+01  0.51100000000E-03 0. -1.
    9000002   -1    0    0    0    0 -0.00000000000E+00 -0.00000000000E+00  0.00000000000E+00  0.93800000000E+00  0.93800000000E+00 0.  1.
         11    1    1    2    0    0  0.33424978175E+00  0.62162388243E-01  0.22699129741E+01  0.22952325046E+01  0.51100000000E-03 0. -1.
    9000002    1    1    2    0    0 -0.11497174554E+00  0.27098296392E+00  0.12754802580E+00  0.99134392009E+00  0.93800000000E+00 0.  1.
         22    1    1    2    0    0 -0.21927803621E+00 -0.33314535217E+00  0.16025389675E+01  0.16514235753E+01  0.00000000000E+00 0. -1.
</event>
<event>
 5    1  0.3241783E+002  0.1599676E+01  0.7818608E-02  0.3353715E+00
         11   -1    0    0    0    0  0.00000000000E+00  0.00000000000E+00  0.39999999674E+01  0.40000000000E+01  0.51100000000E-03 0. -1.
    9000002   -1    0    0    0    0 -0.00000000000E+00 -0.00000000000E+00  0.00000000000E+00  0.93800000000E+00  0.93800000000E+00 0. -1.
         11    1    1    2    0    0  0.15645859702E+00 -0.33060520359E-01  0.16609044968E+01  0.16685851189E+01  0.51100000000E-03 0. -1.
    9000002    1    1    2    0    0 -0.36964001571E+00  0.76052568423E-01  0.95794789692E-01  0.10155975463E+01  0.93800000000E+00 0. -1.
         22    1    1    2    0    0  0.21318141870E+00 -0.42992048064E-01  0.22433006809E+01  0.22538173347E+01  0.00000000000E+00 0. -1.
</event>
<event>
 5    1  0.3241783E+002  0.1599677E+01  0.7818608E-02  0.3353715E+00
         11   -1    0    0    0    0  0.00000000000E+00  0.00000000000E+00  0.39999999674E+01  0.40000000000E+01  0.51100000000E-03 0.  1.
    9000002   -1    0    0    0    0 -0.00000000000E+00 -0.00000000000E+00  0.00000000000E+00  0.93800000000E+00  0.93800000000E+00 0. -1.
         11    1    1    2    0    0  0.12736449037E+00  0.12540650321E-01  0.13307664922E+01  0.13369063913E+01  0.51100000000E-03 0.  1.
    9000002    1    1    2    0    0 -0.37163025668E+00 -0.37068697167E-01  0.93776874790E-01  0.10139631346E+01  0.93800000000E+00 0. -1.
         22    1    1    2    0    0  0.24426576631E+00  0.24528046846E-01  0.25754566004E+01  0.25871304741E+01  0.00000000000E+00 0. -1.
</event>
<event>
 5    1  0.3241783E+002  0.1599318E+01  0.7818608E-02  0.3354104E+00
         11   -1    0    0    0    0  0.00000000000E+00  0.00000000000E+00  0.39999999674E+01  0.40000000000E+01  0.51100000000E-03 0. -1.
    9000002   -1    0    0    0    0 -0.00000000000E+00 -0.00000000000E+00  0.00000000000E+00  0.93800000000E+00  0.93800000000E+00 0.  1.
         11    1    1    2    0    0 -0.21017248537E-01  0.16594233798E-01  0.22195074629E+00  0.22356092733E+00  0.51100000000E-03 0. -1.
    9000002    1    1    2    0    0  0.18949365386E+00 -0.25577297682E+00  0.67999668722E-01  0.99287240644E+00  0.93800000000E+00 0.  1.
         22    1    1    2    0    0 -0.16847640533E+00  0.23917874302E+00  0.37100495524E+01  0.37215666662E+01  0.00000000000E+00 0. -1.
</event>
<event>
 5    1  0.3241783E+002  0.1599676E+01  0.7818608E-02  0.3353716E+00
         11   -1    0    0    0    0  0.00000000000E+00  0.00000000000E+00  0.39999999674E+01  0.40000000000E+01  0.51100000000E-03 0.  1.
    9000002   -1    0    0    0    0 -0.00000000000E+00 -0.00000000000E+00  0.00000000000E+00  0.93800000000E+00  0.93800000000E+00 0.  1.
         11    1    1    2    0    0  0.16653174102E-01  0.12645848947E-01  0.31385844915E+00  0.31455465809E+00  0.51100000000E-03 0. -1.
    9000002    1    1    2    0    0 -0.21433448214E+00 -0.15265712894E+00  0.46046443613E-01  0.97529879740E+00  0.93800000000E+00 0.  1.
         22    1    1    2    0    0  0.19768130803E+00  0.14001127999E+00  0.36400950746E+01  0.36481465445E+01  0.00000000000E+00 0.  1.
</event>
<event>
 5    1  0.3241783E+002  0.1599443E+01  0.7818608E-02  0.3353968E+00
         11   -1    0    0    0    0  0.00000000000E+00  0.00000000000E+00  0.39999999674E+01  0.40000000000E+01  0.51100000000E-03 0.  1.
    9000002   -1    0    0    0    0 -0.00000000000E+00 -0.00000000000E+00  0.00000000000E+00  0.93800000000E+00  0.93800000000E+00 0.  1.
         11    1    1    2    0    0  0.32062648384E+00  0.23989055974E-01  0.23351773553E+01  0.23572081704E+01  0.51100000000E-03 0.  1.
    9000002    1    1    2    0    0 -0.53686525653E+00 -0.63889497656E-01  0.20176060660E+00  0.11012981040E+01  0.93800000000E+00 0.  1.
         22    1    1    2    0    0  0.21623877269E+00  0.39900441682E-01  0.14630620054E+01  0.14794937255E+01  0.00000000000E+00 0. -1.
</event>
<event>
 5    1  0.3241783E+002  0.1585061E+01  0.7818608E-02  0.3369739E+00
         11   -1    0    0    0    0  0.00000000000E+00  0.00000000000E+00  0.39999999674E+01  0.40000000000E+01  0.51100000000E-03 0. -1.
    9000002   -1    0    0    0    0 -0.00000000000E+00 -0.00000000000E+00  0.00000000000E+00  0.93800000000E+00  0.93800000000E+00 0.  1.
         11    1    1    2    0    0  0.39468353435E-01  0.11625022296E+00  0.10848444877E+01  0.10917690639E+01  0.51100000000E-03 0. -1.
    9000002    1    1    2    0    0  0.23868109336E+00 -0.14494319538E+00  0.63330930081E-01  0.98073034057E+00  0.93800000000E+00 0.  1.
         22    1    1    2    0    0 -0.27814944680E+00  0.28692972419E-01  0.28518245496E+01  0.28655005955E+01  0.00000000000E+00 0. -1.
</event>
<event>
 5    1  0.3241783E+002  0.1599214E+01  0.7818608E-02  0.3354217E+00
         11   -1    0    0    0    0  0.00000000000E+00  0.00000000000E+00  0.39999999674E+01  0.40000000000E+01  0.51100000000E-03 0.  1.
    9000002   -1    0    0    0    0 -0.00000000000E+00 -0.00000000000E+00  0.00000000000E+00  0.93800000000E+00  0.93800000000E+00 0. -1.
         11    1    1    2    0    0 -0.16801148521E-01  0.16525767889E-02  0.30827026199E+00  0.30873261109E+00  0.51100000000E-03 0.  1.
    9000002    1    1    2    0    0  0.24282762724E+00 -0.19646453470E+00  0.65527321876E-01  0.99080845770E+00  0.93800000000E+00 0. -1.
         22    1    1    2    0    0 -0.22602647872E+00  0.19481195791E+00  0.36262023835E+01  0.36384589312E+01  0.00000000000E+00 0.  1.
</event>
<event>
 5    1  0.3241783E+002  0.1598279E+01  0.7818608E-02  0.3355234E+00
         11   -1    0    0    0    0  0.00000000000E+00  0.00000000000E+00  0.39999999674E+01  0.40000000000E+01  0.51100000000E-03 0. -1.
    9000002   -1    0    0    0    0 -0.00000000000E+00 -0.00000000000E+00  0.00000000000E+00  0.93800000000E+00  0.93800000000E+00 0.  1.
         11    1    1    2    0    0  0.25096414790E-01 -0.10153540386E+00  0.12830676804E+01  0.12873236586E+01  0.51100000000E-03 0. -1.
    9000002    1    1    2    0    0 -0.18810583570E+00  0.24516191118E+00  0.64856250654E-01  0.98971637420E+00  0.93800000000E+00 0.  1.
         22    1    1    2    0    0  0.16300942091E+00 -0.14362650732E+00  0.26520760363E+01  0.26609599672E+01  0.00000000000E+00 0. -1.
</event>
<event>
 5    1  0.3241783E+002  0.1586424E+01  0.7818608E-02  0.3368232E+00
         11   -1    0    0    0    0  0.00000000000E+00  0.00000000000E+00  0.39999999674E+01  0.40000000000E+01  0.51100000000E-03 0. -1.
    9000002   -1    0    0    0    0 -0.00000000000E+00 -0.00000000000E+00  0.00000000000E+00  0.93800000000E+00  0.93800000000E+00 0.  1.
         11    1    1    2    0    0  0.71217286143E-01 -0.19970121995E+00  0.11088404572E+01  0.11289286513E+01  0.51100000000E-03 0. -1.
    9000002    1    1    2    0    0 -0.31652143905E+00  0.26378521611E+00  0.12589951872E+00  0.10322127448E+01  0.93800000000E+00 0.  1.
         22    1    1    2    0    0  0.24530415291E+00 -0.64083996165E-01  0.27652599915E+01  0.27768586040E+01  0.00000000000E+00 0. -1.
</event>
<event>
 5    1  0.3241783E+002  0.1599677E+01  0.7818608E-02  0.3353714E+00
         11   -1    0    0    0    0  0.00000000000E+00  0.00000000000E+00  0.39999999674E+01  0.40000000000E+01  0.51100000000E-03 0.  1.
    9000002   -1    0    0    0    0 -0.00000000000E+00 -0.00000000000E+00  0.00000000000E+00  0.93800000000E+00  0.93800000000E+00 0.  1.
         11    1    1    2    0    0 -0.16983697985E+00 -0.19232239093E+00  0.14020169130E+01  0.14253014373E+01  0.51100000000E-03 0. -1.
    9000002    1    1    2    0    0  0.44585967340E+00  0.50601036935E+00  0.32289533259E+00  0.11995593933E+01  0.93800000000E+00 0.  1.
         22    1    1    2    0    0 -0.27602269355E+00 -0.31368797842E+00  0.22750877218E+01  0.23131391694E+01  0.00000000000E+00 0.  1.
</event>
<event>
 5    1  0.3241783E+002  0.1599675E+01  0.7818608E-02  0.3353716E+00
         11   -1    0    0    0    0  0.00000000000E+00  0.00000000000E+00  0.39999999674E+01  0.40000000000E+01  0.51100000000E-03 0. -1.
    9000002   -1    0    0    0    0 -0.00000000000E+00 -0.00000000000E+00  0.00000000000E+00  0.93800000000E+00  0.93800000000E+00 0. -1.
         11    1    1    2    0    0  0.94711263340E-01  0.17956981266E-01  0.91623867484E+00  0.92129596057E+00  0.51100000000E-03 0. -1.
    9000002    1    1    2    0    0 -0.39922742601E+00 -0.80722256888E-01  0.11200933329E+00  0.10287316031E+01  0.93800000000E+00 0. -1.
         22    1    1    2    0    0  0.30451616267E+00  0.62765275622E-01  0.29717519592E+01  0.29879724363E+01  0.00000000000E+00 0. -1.
</event>
<event>
 5    1  0.3241783E+002  0.1598201E+01  0.7818608E-02  0.3355318E+00
         11   -1    0    0    0    0  0.00000000000E+00  0.00000000000E+00  0.39999999674E+01  0.40000000000E+01  0.51100000000E-03 0. -1.
    9000002   -1    0    0    0    0 -0.00000000000E+00 -0.00000000000E+00  0.00000000000E+00  0.93800000000E+00  0.93800000000E+00 0. -1.
         11    1    1    2    0    0  0.56088907413E-01 -0.12570046076E-01  0.56410343434E+00  0.56702461794E+00  0.51100000000E-03 0. -1.
    9000002    1    1    2    0    0 -0.30397901706E+00  0.29512995377E+00  0.12271136469E+00  0.10365360637E+01  0.93800000000E+00 0. -1.
         22    1    1    2    0    0  0.24789010964E+00 -0.28255990769E+00  0.33131851683E+01  0.33344393183E+01  0.00000000000E+00 0. -1.
</event>
<event>
 5    1  0.3241783E+002  0.1599664E+01  0.7818608E-02  0.3353728E+00
         11   -1    0    0    0    0  0.00000000000E+00  0.00000000000E+00  0.39999999674E+01  0.40000000000E+01  0.51100000000E-03 0.  1.
    9000002   -1    0    0    0    0 -0.00000000000E+00 -0.00000000000E+00  0.00000000000E+00  0.93800000000E+00  0.93800000000E+00 0.  1.
         11    1    1    2    0    0  0.15985383262E+00  0.22464404355E+00  0.16964321109E+01  0.17186914680E+01  0.51100000000E-03 0.  1.
    9000002    1    1    2    0    0 -0.35492043811E+00 -0.48664655423E+00  0.25325971438E+00  0.11431438532E+01  0.93800000000E+00 0.  1.
         22    1    1    2    0    0  0.19506660549E+00  0.26200251068E+00  0.20503081421E+01  0.20761646789E+01  0.00000000000E+00 0.  1.
</event>
<event>
 5    1  0.3241783E+002  0.1570554E+01  0.7818608E-02  0.3385956E+00
         11   -1    0    0    0    0  0.00000000000E+00  0.00000000000E+00  0.39999999674E+01  0.40000000000E+01  0.51100000000E-03 0.  1.
    9000002   -1    0    0    0    0 -0.00000000000E+00 -0.00000000000E+00  0.00000000000E+00  0.93800000000E+00  0.93800000000E+00 0.  1.
         11    1    1    2    0    0 -0.21710035267E+00  0.51767128547E-01  0.13404723852E+01  0.13589256328E+01  0.51100000000E-03 0.  1.
    9000002    1    1    2    0    0  0.69507952953E-01 -0.21754213475E+00  0.56982475940E-01  0.96708166071E+00  0.93800000000E+00 0.  1.
         22    1    1    2    0    0  0.14759239972E+00  0.16577500620E+00  0.26025451062E+01  0.26119927065E+01  0.00000000000E+00 0.  1.
</event>
<event>
 5    1  0.3241783E+002  0.1559154E+01  0.7818608E-02  0.3398925E+00
         11   -1    0    0    0    0  0.00000000000E+00  0.00000000000E+00  0.39999999674E+01  0.40000000000E+01  0.51100000000E-03 0.  1.
    9000002   -1    0    0    0    0 -0.00000000000E+00 -0.00000000000E+00  0.00000000000E+00  0.93800000000E+00  0.93800000000E+00 0. -1.
         11    1    1    2    0    0  0.43413039695E-01 -0.22613388802E+00  0.28466635129E+01  0.28559612469E+01  0.51100000000E-03 0.  1.
    9000002    1    1    2    0    0 -0.13047173204E+00  0.19362470405E-01  0.41867798508E-01  0.94815330547E+00  0.93800000000E+00 0. -1.
         22    1    1    2    0    0  0.87058692343E-01  0.20677141761E+00  0.11114686560E+01  0.11338854476E+01  0.00000000000E+00 0.  1.
</event>
<event>
 5    1  0.3241783E+002  0.1599677E+01  0.7818608E-02  0.3353714E+00
         11   -1    0    0    0    0  0.00000000000E+00  0.00000000000E+00  0.39999999674E+01  0.40000000000E+01  0.51100000000E-03 0.  1.
    9000002   -1    0    0    0    0 -0.00000000000E+00 -0.00000000000E+00  0.00000000000E+00  0.93800000000E+00  0.93800000000E+00 0.  1.
         11    1    1    2    0    0 -0.21451234362E+00  0.58759401366E-01  0.16824586244E+01  0.16970961955E+01  0.51100000000E-03 0. -1.
    9000002    1    1    2    0    0  0.48653408194E+00 -0.13442422384E+00  0.17455541604E+00  0.10793974607E+01  0.93800000000E+00 0.  1.
         22    1    1    2    0    0 -0.27202173832E+00  0.75664822471E-01  0.21429859269E+01  0.21615063438E+01  0.00000000000E+00 0.  1.
</event>
<event>
 5    1  0.3241783E+002  0.1599651E+01  0.7818608E-02  0.3353742E+00
         11   -1    0    0    0    0  0.00000000000E+00  0.00000000000E+00  0.39999999674E+01  0.40000000000E+01  0.51100000000E-03 0. -1.
    9000002   -1    0    0    0    0 -0.00000000000E+00 -0.00000000000E+00  0.00000000000E+00  0.93800000000E+00  0.93800000000E+00 0.  1.
         11    1    1    2    0    0  0.18975000884E-01 -0.17572585064E+00  0.13964395892E+01  0.14075806949E+01  0.51100000000E-03 0. -1.
    9000002    1    1    2    0    0 -0.54283100215E-01  0.49790235538E+00  0.17177126081E+00  0.10771270939E+01  0.93800000000E+00 0.  1.
         22    1    1    2    0    0  0.35308099331E-01 -0.32217650475E+00  0.24317891173E+01  0.24532922111E+01  0.00000000000E+00 0. -1.
</event>
<event>
 5    1  0.3241783E+002  0.1599607E+01  0.7818608E-02  0.3353790E+00
         11   -1    0    0    0    0  0.00000000000E+00  0.00000000000E+00  0.39999999674E+01  0.40000000000E+01  0.51100000000E-03 0.  1.
    9000002   -1    0    0    0    0 -0.00000000000E+00 -0.00000000000E+00  0.00000000000E+00  0.93800000000E+00  0.93800000000E+00 0.  1.
         11    1    1    2    0    0  0.92615932598E-01  0.20952408813E+00  0.14748077959E+01  0.14924933335E+01  0.51100000000E-03 0.  1.
    9000002    1    1    2    0    0 -0.21242140619E+00 -0.53045163526E+00  0.22652456726E+00  0.11214540431E+01  0.93800000000E+00 0.  1.
         22    1    1    2    0    0  0.11980547359E+00  0.32092754712E+00  0.22986676042E+01  0.23240526234E+01  0.00000000000E+00 0.  1.
</event>
<event>
 5    1  0.3241783E+002  0.1415595E+01  0.7818608E-02  0.3582201E+00
         11   -1    0    0    0    0  0.00000000000E+00  0.00000000000E+00  0.39999999674E+01  0.40000000000E+01  0.51100000000E-03 0. -1.
    9000002   -1    0    0    0    0 -0.00000000000E+00 -0.00000000000E+00  0.00000000000E+00  0.93800000000E+00  0.93800000000E+00 0.  1.
         11    1    1    2    0    0  0.86199161270E-02  0.41602500786E+00  0.28039420372E+01  0.28346502993E+01  0.51100000000E-03 0. -1.
    9000002    1    1    2    0    0  0.44544799555E+00 -0.17725049587E+00  0.34289158281E+00  0.11078178066E+01  0.93800000000E+00 0.  1.
         22    1    1    2    0    0 -0.45406791168E+00 -0.23877451198E+00  0.85316634736E+00  0.99553189414E+00  0.00000000000E+00 0.  1.
</event>
<event>
 5    1  0.3241783E+002  0.1599483E+01  0.7818608E-02  0.3353924E+00
         11   -1    0    0    0    0  0.00000000000E+00  0.00000000000E+00  0.39999999674E+01  0.40000000000E+01  0.51100000000E-03 0. -1.
    9000002   -1    0    0    0    0 -0.00000000000E+00 -0.00000000000E+00  0.00000000000E+00  0.93800000000E+00  0.93800000000E+00 0.  1.
         11    1    1    2    0    0  0.67274779854E-02  0.17894882539E-01  0.11344063574E+00  0.11504140445E+00  0.51100000000E-03 0. -1.
    9000002    1    1    2    0    0 -0.21340685466E+00 -0.41485519217E+00  0.14836092691E+00  0.10580653480E+01  0.93800000000E+00 0.  1.
         22    1    1    2    0    0  0.20667937668E+00  0.39696030963E+00  0.37381984047E+01  0.37648932475E+01  0.00000000000E+00 0. -1.
</event>
<event>
 5    1  0.3241783E+002  0.1599397E+01  0.7818608E-02  0.3354018E+00
         11   -1    0    0    0    0  0.00000000000E+00  0.00000000000E+00  0.39999999674E+01  0.40000000000E+01  0.51100000000E-03 0.  1.
    9000002   -1    0    0    0    0 -0.00000000000E+00 -0.00000000000E+00  0.00000000000E+00  0.93800000000E+00  0.93800000000E+00 0.  1.
         11    1    1    2    0    0 -0.19912895563E-01  0.91383046344E-02  0.27743390661E+00  0.27829815967E+00  0.51100000000E-03 0.  1.
    9000002    1    1    2    0    0  0.15473664384E+00 -0.19927682585E+00  0.42506747366E-01  0.97226822731E+00  0.93800000000E+00 0.  1.
         22    1    1    2    0    0 -0.13482374827E+00  0.19013852122E+00  0.36800593134E+01  0.36874336130E+01  0.00000000000E+00 0.  1.
</event>
<event>
 5    1  0.3241783E+002  0.1598731E+01  0.7818608E-02  0.3354742E+00
         11   -1    0    0    0    0  0.00000000000E+00  0.00000000000E+00  0.39999999674E+01  0.40000000000E+01  0.51100000000E-03 0. -1.
    9000002   -1    0    0    0    0 -0.00000000000E+00 -0.00000000000E+00  0.00000000000E+00  0.93800000000E+00  0.93800000000E+00 0. -1.
         11    1    1    2    0    0 -0.16616188971E+00  0.22948806481E+00  0.21485247984E+01  0.21671256576E+01  0.51100000000E-03 0. -1.
    9000002    1    1    2    0    0  0.24717444298E+00 -0.45191388418E+00  0.18296143272E+00  0.10856519930E+01  0.93800000000E+00 0. -1.
         22    1    1    2    0    0 -0.81012553275E-01  0.22242581937E+00  0.16685137363E+01  0.16852223494E+01  0.00000000000E+00 0. -1.
</event>
<event>
 5    1  0.3241783E+002  0.1599357E+01  0.7818608E-02  0.3354061E+00
         11   -1    0    0    0    0  0.00000000000E+00  0.00000000000E+00  0.39999999674E+01  0.40000000000E+01  0.51100000000E-03 0. -1.
    9000002   -1    0    0    0    0 -0.00000000000E+00 -0.00000000000E+00  0.00000000000E+00  0.93800000000E+00  0.93800000000E+00 0.  1.
         11    1    1    2    0    0  0.83758544766E-02  0.24660790912E-02  0.21848703194E+00  0.21866202398E+00  0.51100000000E-03 0. -1.
    9000002    1    1    2    0    0 -0.12792804103E+00 -0.22092003594E+00  0.43555253140E-01  0.97309419176E+00  0.93800000000E+00 0.  1.
         22    1    1    2    0    0  0.11955218656E+00  0.21845395685E+00  0.37379576823E+01  0.37462437843E+01  0.00000000000E+00 0. -1.
</event>
<event>
 5    1  0.3288928E+002  0.1599547E+01  0.7818608E-02  0.3353855E+00
         11   -1    0    0    0    0  0.00000000000E+00  0.00000000000E+00  0.39999999674E+01  0.40000000000E+01  0.51100000000E-03 0.  1.
    9000002   -1    0    0    0    0 -0.00000000000E+00 -0.00000000000E+00  0.00000000000E+00  0.93800000000E+00  0.93800000000E+00 0. -1.
         11    1    1    2    0    0  0.21804171349E-02 -0.53254836315E-02  0.19708830361E+00  0.19717295842E+00  0.51100000000E-03 0.  1.
    9000002    1    1    2    0    0  0.22031783326E-01  0.20735999801E+00  0.28899925765E-01  0.96133385146E+00  0.93800000000E+00 0. -1.
         22    1    1    2    0    0 -0.24212200460E-01 -0.20203451438E+00  0.37740117380E+01  0.37794931901E+01  0.00000000000E+00 0.  1.
</event>
<event>
 5    1  0.3241783E+002  0.1595605E+01  0.7818608E-02  0.3358147E+00
         11   -1    0    0    0    0  0.00000000000E+00  0.00000000000E+00  0.39999999674E+01  0.40000000000E+01  0.51100000000E-03 0.  1.
    9000002   -1    0    0    0    0 -0.00000000000E+00 -0.00000000000E+00  0.00000000000E+00  0.93800000000E+00  0.93800000000E+00 0.  1.
         11    1    1    2    0    0  0.14121525716E-02 -0.13300353936E-01  0.29817474443E-01  0.32683887358E-01  0.51100000000E-03 0.  1.
    9000002    1    1    2    0    0 -0.31447852200E+00 -0.34284557606E-01  0.70085799589E-01  0.99238510216E+00  0.93800000000E+00 0.  1.
         22    1    1    2    0    0  0.31306636943E+00  0.47584911542E-01  0.39000966933E+01  0.39129310105E+01  0.00000000000E+00 0.  1.
</event>
<event>
 5    1  0.3241783E+002  0.1595733E+01  0.7818608E-02  0.3358008E+00
         11   -1    0    0    0    0  0.00000000000E+00  0.00000000000E+00  0.39999999674E+01  0.40000000000E+01  0.51100000000E-03 0.  1.
    9000002   -1    0    0    0    0 -0.00000000000E+00 -0.00000000000E+00  0.00000000000E+00  0.93800000000E+00  0.93800000000E+00 0. -1.
         11    1    1    2    0    0  0.28031336855E-01 -0.46491501829E-02  0.47729957223E+00  0.47814486635E+00  0.51100000000E-03 0.  1.
    9000002    1    1    2    0    0  0.15369871222E+00 -0.93548793367E-01  0.24350093324E-01  0.95541174261E+00  0.93800000000E+00 0. -1.
         22    1    1    2    0    0 -0.18173004907E+00  0.98197943550E-01  0.34983503018E+01  0.35044433910E+01  0.00000000000E+00 0.  1.
</event>
<event>
 5    1  0.3241783E+002  0.1469860E+01  0.7818608E-02  0.3507974E+00
         11   -1    0    0    0    0  0.00000000000E+00  0.00000000000E+00  0.39999999674E+01  0.40000000000E+01  0.51100000000E-03 0. -1.
    9000002   -1    0    0    0    0 -0.00000000000E+00 -0.00000000000E+00  0.00000000000E+00  0.93800000000E+00  0.93800000000E+00 0.  1.
         11    1    1    2    0    0  0.15504476915E-01  0.38486373180E+00  0.91501390779E+00  0.99277952911E+00  0.51100000000E-03 0. -1.
    9000002    1    1    2    0    0  0.48803859517E+00 -0.13532146053E+00  0.30466925586E+00  0.11086753012E+01  0.93800000000E+00 0.  1.
         22    1    1    2    0    0 -0.50354307209E+00 -0.24954227127E+00  0.27803168037E+01  0.28365451697E+01  0.00000000000E+00 0. -1.
</event>
<event>
 5    1  0.3241783E+002  0.1572798E+01  0.7818608E-02  0.3383428E+00
         11   -1    0    0    0    0  0.00000000000E+00  0.00000000000E+00  0.39999999674E+01  0.40000000000E+01  0.51100000000E-03 0. -1.
    9000002   -1    0    0    0    0 -0.00000000000E+00 -0.00000000000E+00  0.00000000000E+00  0.93800000000E+00  0.93800000000E+00 0.  1.
         11    1    1    2    0    0 -0.14007075536E+00 -0.69192913550E-01  0.10380545451E+01  0.10497451955E+01  0.51100000000E-03 0. -1.
    9000002    1    1    2    0    0 -0.11308632271E+00  0.12469544150E+00  0.38938570695E-01  0.95378073046E+00  0.93800000000E+00 0.  1.
         22    1    1    2    0    0  0.25315707807E+00 -0.55502527951E-01  0.29230068516E+01  0.29344740740E+01  0.00000000000E+00 0. -1.
</event>
<event>
 5    1  0.3241783E+002  0.1599676E+01  0.7818608E-02  0.3353715E+00
         11   -1    0    0    0    0  0.00000000000E+00  0.00000000000E+00  0.39999999674E+01  0.40000000000E+01  0.51100000000E-03 0. -1.
    9000002   -1    0    0    0    0 -0.00000000000E+00 -0.00000000000E+00  0.00000000000E+00  0.93800000000E+00  0.93800000000E+00 0.  1.
         11    1    1    2    0    0 -0.12633760960E+00  0.32802898546E+00  0.22588622731E+01  0.22860497013E+01  0.51100000000E-03 0. -1.
    9000002    1    1    2    0    0  0.21102190106E+00 -0.54763164047E+00  0.23964694643E+00  0.11321242491E+01  0.93800000000E+00 0.  1.
         22    1    1    2    0    0 -0.84684291464E-01  0.21960265501E+00  0.15014907478E+01  0.15198260496E+01  0.00000000000E+00 0.  1.
</event>
<event>
 5    1  0.3241783E+002  0.1599558E+01  0.7818608E-02  0.3353843E+00
         11   -1    0    0    0    0  0.00000000000E+00  0.00000000000E+00  0.39999999674E+01  0.40000000000E+01  0.51100000000E-03 0. -1.
    9000002   -1    0    0    0    0 -0.00000000000E+00 -0.00000000000E+00  0.00000000000E+00  0.93800000000E+00  0.93800000000E+00 0. -1.
         11    1    1    2    0    0 -0.10678770899E+00  0.52181562469E-01  0.14784597137E+01  0.14832295562E+01  0.51100000000E-03 0. -1.
    9000002    1    1    2    0    0  0.30071712127E+00 -0.10942807753E+00  0.68541731358E-01  0.99345219317E+00  0.93800000000E+00 0. -1.
         22    1    1    2    0    0 -0.19392941228E+00  0.57246515063E-01  0.24529985223E+01  0.24613182506E+01  0.00000000000E+00 0. -1.
</event>
<event>
 5    1  0.3241783E+002  0.1598960E+01  0.7818608E-02  0.3354493E+00
         11   -1    0    0    0    0  0.00000000000E+00  0.00000000000E+00  0.39999999674E+01  0.40000000000E+01  0.51100000000E-03 0.  1.
    9000002   -1    0    0    0    0 -0.00000000000E+00 -0.00000000000E+00  0.00000000000E+00  0.93800000000E+00  0.93800000000E+00 0.  1.
         11    1    1    2    0    0  0.14990639401E+00 -0.79824348582E-01  0.12636006897E+01  0.12749630652E+01  0.51100000000E-03 0.  1.
    9000002    1    1    2    0    0 -0.36861762083E+00  0.22416842328E+00  0.12669017448E+00  0.10402042264E+01  0.93800000000E+00 0.  1.
         22    1    1    2    0    0  0.21871122682E+00 -0.14434407470E+00  0.26097091032E+01  0.26228327084E+01  0.00000000000E+00 0.  1.
</event>
<event>
 5    1  0.3241783E+002  0.1599668E+01  0.7818608E-02  0.3353724E+00
         11   -1    0    0    0    0  0.00000000000E+00  0.00000000000E+00  0.39999999674E+01  0.40000000000E+01  0.51100000000E-03 0. -1.
    9000002   -1    0    0    0    0 -0.00000000000E+00 -0.00000000000E+00  0.00000000000E+00  0.93800000000E+00  0.93800000000E+00 0. -1.
         11    1    1    2    0    0 -0.24476705936E-01 -0.60432858171E-02  0.48127014639E+00  0.48193033248E+00  0.51100000000E-03 0. -1.
    9000002    1    1    2    0    0  0.22037701947E+00  0.46438391835E-01  0.33640589195E-01  0.96524517310E+00  0.93800000000E+00 0. -1.
         22    1    1    2    0    0 -0.19590031353E+00 -0.40395106018E-01  0.34850892318E+01  0.34908244944E+01  0.00000000000E+00 0. -1.
</event>
<event>
 5    1  0.3241783E+002  0.1599654E+01  0.7818608E-02  0.3353739E+00
         11   -1    0    0    0    0  0.00000000000E+00  0.00000000000E+00  0.39999999674E+01  0.40000000000E+01  0.51100000000E-03 0. -1.
    9000002   -1    0    0    0    0 -0.00000000000E+00 -0.00000000000E+00  0.00000000000E+00  0.93800000000E+00  0.93800000000E+00 0. -1.
         11    1    1    2    0    0  0.31158009392E+00  0.27955360940E+00  0.21162221249E+01  0.21572270901E+01  0.51100000000E-03 0. -1.
    9000002    1    1    2    0    0 -0.54112731231E+00 -0.48409481334E+00  0.37951098845E+00  0.12454072213E+01  0.93800000000E+00 0. -1.
         22    1    1    2    0    0  0.22954721839E+00  0.20454120394E+00  0.15042668540E+01  0.15353656886E+01  0.00000000000E+00 0.  1.
</event>
<event>
 5    1  0.3241783E+002  0.1599238E+01  0.7818608E-02  0.3354191E+00
         11   -1    0    0    0    0  0.00000000000E+00  0.00000000000E+00  0.39999999674E+01  0.40000000000E+01  0.51100000000E-03 0.  1.
    9000002   -1    0    0    0    0 -0.00000000000E+00 -0.00000000000E+00  0.00000000000E+00  0.93800000000E+00  0.93800000000E+00 0. -1.
         11    1    1    2    0    0  0.85381092754E-02 -0.12735788223E-01  0.32005454945E+00  0.32042202695E+00  0.51100000000E-03 0.  1.
    9000002    1    1    2    0    0 -0.27284847681E+00  0.13219351745E+00  0.61684249661E-01  0.98770965572E+00  0.93800000000E+00 0. -1.
         22    1    1    2    0    0  0.26431036753E+00 -0.11945772923E+00  0.36182611683E+01  0.36298683173E+01  0.00000000000E+00 0.  1.
</event>
<event>
 5    1  0.3241783E+002  0.1599504E+01  0.7818608E-02  0.3353902E+00
         11   -1    0    0    0    0  0.00000000000E+00  0.00000000000E+00  0.39999999674E+01  0.40000000000E+01  0.51100000000E-03 0.  1.
    9000002   -1    0    0    0    0 -0.00000000000E+00 -0.00000000000E+00  0.00000000000E+00  0.93800000000E+00  0.93800000000E+00 0.  1.
         11    1    1    2    0    0 -0.11384865495E+00  0.13885829286E+00  0.12931492202E+01  0.13055567045E+01  0.51100000000E-03 0.  1.
    9000002    1    1    2    0    0  0.31062397441E+00 -0.44488445818E+00  0.20322758610E+00  0.11025220571E+01  0.93800000000E+00 0.  1.
         22    1    1    2    0    0 -0.19677531946E+00  0.30602616532E+00  0.25036231610E+01  0.25299212384E+01  0.00000000000E+00 0.  1.
</event>
<event>
 5    1  0.3241783E+002  0.1597360E+01  0.7818608E-02  0.3356234E+00
         11   -1    0    0    0    0  0.00000000000E+00  0.00000000000E+00  0.39999999674E+01  0.40000000000E+01  0.51100000000E-03 0.  1.
    9000002   -1    0    0    0    0 -0.00000000000E+00 -0.00000000000E+00  0.00000000000E+00  0.93800000000E+00  0.93800000000E+00 0.  1.
         11    1    1    2    0    0  0.50396409681E-02 -0.25782943691E-01  0.62144682669E+00  0.62200207209E+00  0.51100000000E-03 0.  1.
    9000002    1    1    2    0    0  0.23470145652E+00  0.13640058672E+00  0.50825628413E-01  0.97781242488E+00  0.93800000000E+00 0.  1.
         22    1    1    2    0    0 -0.23974109748E+00 -0.11061764303E+00  0.33277275123E+01  0.33381855030E+01  0.00000000000E+00 0.  1.
</event>
<event>
 5    1  0.3241783E+002  0.1599491E+01  0.7818608E-02  0.3353916E+00
         11   -1    0    0    0    0  0.00000000000E+00  0.00000000000E+00  0.39999999674E+01  0.40000000000E+01  0.51100000000E-03 0. -1.
    9000002   -1    0    0    0    0 -0.00000000000E+00 -0.00000000000E+00  0.00000000000E+00  0.93800000000E+00  0.93800000000E+00 0.  1.
         11    1    1    2    0    0  0.29467012150E-01  0.55758512293E-02  0.47470650621E+00  0.47565315418E+00  0.51100000000E-03 0. -1.
    9000002    1    1    2    0    0 -0.24343565704E+00  0.42247491125E-01  0.40684807123E-01  0.97084757978E+00  0.93800000000E+00 0.  1.
         22    1    1    2    0    0  0.21396864489E+00 -0.47823342354E-01  0.34846086540E+01  0.34914992660E+01  0.00000000000E+00 0. -1.
</event>
<event>
 5    1  0.3241783E+002  0.1599190E+01  0.7818608E-02  0.3354243E+00
         11   -1    0    0    0    0  0.00000000000E+00  0.00000000000E+00  0.39999999674E+01  0.40000000000E+01  0.51100000000E-03 0.  1.
    9000002   -1    0    0    0    0 -0.00000000000E+00 -0.00000000000E+00  0.00000000000E+00  0.93800000000E+00  0.93800000000E+00 0. -1.
         11    1    1    2    0    0 -0.26653507356E-02  0.96292197194E-02  0.53570588164E-01  0.54496743060E-01  0.51100000000E-03 0.  1.
    9000002    1    1    2    0    0 -0.65826553141E-01 -0.33457752342E+00  0.78277859182E-01  0.10011227085E+01  0.93800000000E+00 0. -1.
         22    1    1    2    0    0  0.68491903877E-01  0.32494830370E+00  0.38681515200E+01  0.38823805484E+01  0.00000000000E+00 0.  1.
</event>
<event>
 5    1  0.3241783E+002  0.1599165E+01  0.7818608E-02  0.3354271E+00
         11   -1    0    0    0    0  0.00000000000E+00  0.00000000000E+00  0.39999999674E+01  0.40000000000E+01  0.51100000000E-03 0. -1.
    9000002   -1    0    0    0    0 -0.00000000000E+00 -0.00000000000E+00  0.00000000000E+00  0.93800000000E+00  0.93800000000E+00 0.  1.
         11    1    1    2    0    0 -0.16802154472E-02  0.44096166431E-02  0.13610324683E+00  0.13618598592E+00  0.51100000000E-03 0. -1.
    9000002    1    1    2    0    0 -0.22920863667E+00 -0.51539109924E-01  0.37012344238E-01  0.96768114201E+00  0.93800000000E+00 0.  1.
         22    1    1    2    0    0  0.23088885212E+00  0.47129493281E-01  0.38268843763E+01  0.38341328721E+01  0.00000000000E+00 0. -1.
</event>
<event>
 5    1  0.3241783E+002  0.1599676E+01  0.7818608E-02  0.3353716E+00
         11   -1    0    0    0    0  0.00000000000E+00  0.00000000000E+00  0.39999999674E+01  0.40000000000E+01  0.51100000000E-03 0.  1.
    9000002   -1    0    0    0    0 -0.00000000000E+00 -0.00000000000E+00  0.00000000000E+00  0.93800000000E+00  0.93800000000E+00 0. -1.
         11    1    1    2    0    0  0.18631978215E+00 -0.18359130731E+00  0.20688647818E+01  0.20853351232E+01  0.51100000000E-03 0.  1.
    9000002    1    1    2    0    0 -0.34571561941E+00  0.34324080893E+00  0.16212536489E+00  0.10693279087E+01  0.93800000000E+00 0. -1.
         22    1    1    2    0    0  0.15939583727E+00 -0.15964950161E+00  0.17690098206E+01  0.17833369681E+01  0.00000000000E+00 0.  1.
</event>
<event>
 5    1  0.3241783E+002  0.1588420E+01  0.7818608E-02  0.3366028E+00
         11   -1    0    0    0    0  0.00000000000E+00  0.00000000000E+00  0.39999999674E+01  0.40000000000E+01  0.51100000000E-03 0. -1.
    9000002   -1    0    0    0    0 -0.00000000000E+00 -0.00000000000E+00  0.00000000000E+00  0.93800000000E+00  0.93800000000E+00 0.  1.
         11    1    1    2    0    0  0.36641672153E-01  0.81813761362E-01  0.10780485011E+01  0.10817693542E+01  0.51100000000E-03 0. -1.
    9000002    1    1    2    0    0 -0.22100689169E+00  0.10783775843E+00  0.48795997476E-01  0.97092640179E+00  0.93800000000E+00 0.  1.
         22    1    1    2    0    0  0.18436521954E+00 -0.18965151979E+00  0.28731554687E+01  0.28853042440E+01  0.00000000000E+00 0. -1.
</event>
<event>
 5    1  0.3241783E+002  0.1599671E+01  0.7818608E-02  0.3353720E+00
         11   -1    0    0    0    0  0.00000000000E+00  0.00000000000E+00  0.39999999674E+01  0.40000000000E+01  0.51100000000E-03 0.  1.
    9000002   -1    0    0    0    0 -0.00000000000E+00 -0.00000000000E+00  0.00000000000E+00  0.93800000000E+00  0.93800000000E+00 0.  1.
         11    1    1    2    0    0 -0.38005310527E+00 -0.45060352912E+00  0.24646663539E+01  0.25341792360E+01  0.51100000000E-03 0.  1.
    9000002    1    1    2    0    0  0.54038147534E+00  0.63631951795E+00  0.51972475158E+00  0.13589968673E+01  0.93800000000E+00 0.  1.
         22    1    1    2    0    0 -0.16032837007E+00 -0.18571598883E+00  0.10156088619E+01  0.10448238967E+01  0.00000000000E+00 0.  1.
</event>
<event>
 5    1  0.3241783E+002  0.1599370E+01  0.7818608E-02  0.3354048E+00
         11   -1    0    0    0    0  0.00000000000E+00  0.00000000000E+00  0.39999999674E+01  0.40000000000E+01  0.51100000000E-03 0.  1.
    9000002   -1    0    0    0    0 -0.00000000000E+00 -0.00000000000E+00  0.00000000000E+00  0.93800000000E+00  0.93800000000E+00 0.  1.
         11    1    1    2    0    0 -0.72458062151E-01  0.74578728189E-01  0.73262676230E+00  0.73996918276E+00  0.51100000000E-03 0.  1.
    9000002    1    1    2    0    0  0.31344010650E+00 -0.44634538218E+00  0.20557262342E+00  0.11043427928E+01  0.93800000000E+00 0.  1.
         22    1    1    2    0    0 -0.24098204435E+00  0.37176665399E+00  0.30618005816E+01  0.30936880244E+01  0.00000000000E+00 0.  1.
</event>
<event>
 5    1  0.3241783E+002  0.1599663E+01  0.7818608E-02  0.3353730E+00
         11   -1    0    0    0    0  0.00000000000E+00  0.00000000000E+00  0.39999999674E+01  0.40000000000E+01  0.51100000000E-03 0. -1.
    9000002   -1    0    0    0    0 -0.00000000000E+00 -0.00000000000E+00  0.00000000000E+00  0.93800000000E+00  0.93800000000E+00 0. -1.
         11    1    1    2    0    0  0.14257943600E-01 -0.23709968093E-01  0.52628339072E+00  0.52701036044E+00  0.51100000000E-03 0. -1.
    9000002    1    1    2    0    0 -0.11590959574E+00  0.20023772465E+00  0.35521814864E-01  0.96676573175E+00  0.93800000000E+00 0. -1.
         22    1    1    2    0    0  0.10165165214E+00 -0.17652775656E+00  0.34381947618E+01  0.34442239078E+01  0.00000000000E+00 0. -1.
</event>
<event>
 5    1  0.3241783E+002  0.1599676E+01  0.7818608E-02  0.3353715E+00
         11   -1    0    0    0    0  0.00000000000E+00  0.00000000000E+00  0.39999999674E+01  0.40000000000E+01  0.51100000000E-03 0.  1.
    9000002   -1    0    0    0    0 -0.00000000000E+00 -0.00000000000E+00  0.00000000000E+00  0.93800000000E+00  0.93800000000E+00 0. -1.
         11    1    1    2    0    0  0.32449181076E-01 -0.11185334983E-01  0.50629480553E+00  0.50745714331E+00  0.51100000000E-03 0. -1.
    9000002    1    1    2    0    0 -0.25020244687E+00  0.89430099303E-01  0.46956998538E-01  0.97603686754E+00  0.93800000000E+00 0. -1.
         22    1    1    2    0    0  0.21775326580E+00 -0.78244764320E-01  0.34467481633E+01  0.34545059892E+01  0.00000000000E+00 0.  1.
</event>
<event>
 5    1  0.3241783E+002  0.1599676E+01  0.7818608E-02  0.3353715E+00
         11   -1    0    0    0    0  0.00000000000E+00  0.00000000000E+00  0.39999999674E+01  0.40000000000E+01  0.51100000000E-03 0.  1.
    9000002   -1    0    0    0    0 -0.00000000000E+00 -0.00000000000E+00  0.00000000000E+00  0.93800000000E+00  0.93800000000E+00 0. -1.
         11    1    1    2    0    0  0.44835511214E-01  0.29019251422E-01  0.45989434124E+00  0.46298531969E+00  0.51100000000E-03 0.  1.
    9000002    1    1    2    0    0 -0.37999321589E+00 -0.24884931678E+00  0.14021875455E+00  0.10515826766E+01  0.93800000000E+00 0. -1.
         22    1    1    2    0    0  0.33515770468E+00  0.21983006535E+00  0.33998868716E+01  0.34234320037E+01  0.00000000000E+00 0.  1.
</event>
<event>
 5    1  0.3241783E+002  0.1599552E+01  0.7818608E-02  0.3353849E+00
         11   -1    0    0    0    0  0.00000000000E+00  0.00000000000E+00  0.39999999674E+01  0.40000000000E+01  0.51100000000E-03 0. -1.
    9000002   -1    0    0    0    0 -0.00000000000E+00 -0.00000000000E+00  0.00000000000E+00  0.93800000000E+00  0.93800000000E+00 0.  1.
         11    1    1    2    0    0  0.39089655195E-01  0.57998584327E-01  0.75752298683E+00  0.76074514367E+00  0.51100000000E-03 0. -1.
    9000002    1    1    2    0    0 -0.24470837738E+00 -0.33000092306E+00  0.11411285592E+00  0.10303633063E+01  0.93800000000E+00 0.  1.
         22    1    1    2    0    0  0.20561872218E+00  0.27200233873E+00  0.31283641246E+01  0.31468915500E+01  0.00000000000E+00 0. -1.
</event>
<event>
 5    1  0.3241783E+002  0.1589647E+01  0.7818608E-02  0.3364677E+00
         11   -1    0    0    0    0  0.00000000000E+00  0.00000000000E+00  0.39999999674E+01  0.40000000000E+01  0.51100000000E-03 0.  1.
    9000002   -1    0    0    0    0 -0.00000000000E+00 -0.00000000000E+00  0.00000000000E+00  0.93800000000E+00  0.93800000000E+00 0.  1.
         11    1    1    2    0    0 -0.39146645203E-01  0.42683356484E-01  0.16692788154E+01  0.16702833153E+01  0.51100000000E-03 0.  1.
    9000002    1    1    2    0    0 -0.18971143744E+00 -0.10357913185E+00  0.38559389555E-01  0.96335346191E+00  0.93800000000E+00 0.  1.
         22    1    1    2    0    0  0.22885808265E+00  0.60895775366E-01  0.22921617624E+01  0.23043632228E+01  0.00000000000E+00 0.  1.
</event>
<event>
 5    1  0.3241783E+002  0.1593002E+01  0.7818608E-02  0.3360994E+00
         11   -1    0    0    0    0  0.00000000000E+00  0.00000000000E+00  0.39999999674E+01  0.40000000000E+01  0.51100000000E-03 0.  1.
    9000002   -1    0    0    0    0 -0.00000000000E+00 -0.00000000000E+00  0.00000000000E+00  0.93800000000E+00  0.93800000000E+00 0.  1.
         11    1    1    2    0    0  0.47967789716E-01  0.14640510834E-02  0.14223611760E+01  0.14231706252E+01  0.51100000000E-03 0.  1.
    9000002    1    1    2    0    0  0.73041475166E-02 -0.22593679321E+00  0.38954245637E-01  0.96564083300E+00  0.93800000000E+00 0.  1.
         22    1    1    2    0    0 -0.55271937232E-01  0.22447274213E+00  0.25386845457E+01  0.25491885418E+01  0.00000000000E+00 0.  1.
</event>
<event>
 5    1  0.3241783E+002  0.1598743E+01  0.7818608E-02  0.3354729E+00
         11   -1    0    0    0    0  0.00000000000E+00  0.00000000000E+00  0.39999999674E+01  0.40000000000E+01  0.51100000000E-03 0. -1.
    9000002   -1    0    0    0    0 -0.00000000000E+00 -0.00000000000E+00  0.00000000000E+00  0.93800000000E+00  0.93800000000E+00 0. -1.
         11    1    1    2    0    0 -0.23695361979E+00 -0.14015702174E-01  0.21158568866E+01  0.21291298888E+01  0.51100000000E-03 0. -1.
    9000002    1    1    2    0    0  0.49242895622E+00  0.46591105008E-01  0.16816897986E+00  0.10736767734E+01  0.93800000000E+00 0. -1.
         22    1    1    2    0    0 -0.25547533644E+00 -0.32575402834E-01  0.17159741009E+01  0.17351933377E+01  0.00000000000E+00 0. -1.
</event>
<event>
 5    1  0.3241783E+002  0.1599675E+01  0.7818608E-02  0.3353716E+00
         11   -1    0    0    0    0  0.00000000000E+00  0.00000000000E+00  0.39999999674E+01  0.40000000000E+01  0.51100000000E-03 0. -1.
    9000002   -1    0    0    0    0 -0.00000000000E+00 -0.00000000000E+00  0.00000000000E+00  0.93800000000E+00  0.93800000000E+00 0. -1.
         11    1    1    2    0    0 -0.46218231618E-01 -0.15616959229E-02  0.37038963674E+00  0.37326573370E+00  0.51100000000E-03 0. -1.
    9000002    1    1    2    0    0  0.48375183763E+00  0.23763962017E-01  0.16017162985E+00  0.10677450619E+01  0.93800000000E+00 0. -1.
         22    1    1    2    0    0 -0.43753360601E+00 -0.22202266094E-01  0.34694387008E+01  0.34969892044E+01  0.00000000000E+00 0. -1.
</event>
<event>
 5    1  0.3241783E+002  0.1599677E+01  0.7818608E-02  0.3353714E+00
         11   -1    0    0    0    0  0.00000000000E+00  0.00000000000E+00  0.39999999674E+01  0.40000000000E+01  0.51100000000E-03 0. -1.
    9000002   -1    0    0    0    0 -0.00000000000E+00 -0.00000000000E+00  0.00000000000E+00  0.93800000000E+00  0.93800000000E+00 0. -1.
         11    1    1    2    0    0 -0.10899623319E+00 -0.33662517636E-01  0.97267337970E+00  0.97934013940E+00  0.51100000000E-03 0. -1.
    9000002    1    1    2    0    0  0.43087441762E+00  0.13295398559E+00  0.13811723145E+00  0.10498808959E+01  0.93800000000E+00 0. -1.
         22    1    1    2    0    0 -0.32187818443E+00 -0.99291467953E-01  0.28892093562E+01  0.29087789647E+01  0.00000000000E+00 0. -1.
</event>
<event>
 5    1  0.3241783E+002  0.1558094E+01  0.7818608E-02  0.3400141E+00
         11   -1    0    0    0    0  0.00000000000E+00  0.00000000000E+00  0.39999999674E+01  0.40000000000E+01  0.51100000000E-03 0.  1.
    9000002   -1    0    0    0    0 -0.00000000000E+00 -0.00000000000E+00  0.00000000000E+00  0.93800000000E+00  0.93800000000E+00 0. -1.
         11    1    1    2    0    0 -0.23840777574E+00 -0.16644590042E+00  0.25286644127E+01  0.25453263992E+01  0.51100000000E-03 0.  1.
    9000002    1    1    2    0    0  0.48376488768E-01  0.85301185716E-01  0.37322892227E-01  0.94385039876E+00  0.93800000000E+00 0. -1.
         22    1    1    2    0    0  0.19003128697E+00  0.81144714702E-01  0.14340126625E+01  0.14488232021E+01  0.00000000000E+00 0.  1.
</event>
<event>
 5    1  0.3241783E+002  0.1599673E+01  0.7818608E-02  0.3353718E+00
         11   -1    0    0    0    0  0.00000000000E+00  0.00000000000E+00  0.39999999674E+01  0.40000000000E+01  0.51100000000E-03 0. -1.
    9000002   -1    0    0    0    0 -0.00000000000E+00 -0.00000000000E+00  0.00000000000E+00  0.93800000000E+00  0.93800000000E+00 0. -1.
         11    1    1    2    0    0  0.10373467899E-01  0.32933419623E-01  0.50621977171E+00  0.50739623309E+00  0.51100000000E-03 0. -1.
    9000002    1    1    2    0    0 -0.70528224346E-01 -0.25252595879E+00  0.45712196243E-01  0.97502676639E+00  0.93800000000E+00 0. -1.
         22    1    1    2    0    0  0.60154756447E-01  0.21959253916E+00  0.34480679994E+01  0.34555770005E+01  0.00000000000E+00 0. -1.
</event>
<event>
 5    1  0.3241783E+002  0.1597833E+01  0.7818608E-02  0.3355718E+00
         11   -1    0    0    0    0  0.00000000000E+00  0.00000000000E+00  0.39999999674E+01  0.40000000000E+01  0.51100000000E-03 0. -1.
    9000002   -1    0    0    0    0 -0.00000000000E+00 -0.00000000000E+00  0.00000000000E+00  0.93800000000E+00  0.93800000000E+00 0. -1.
         11    1    1    2    0    0 -0.18261732574E-01 -0.20108343015E-01  0.10198950271E+00  0.10554599055E+00  0.51100000000E-03 0. -1.
    9000002    1    1    2    0    0  0.57001372333E+00  0.12574625257E+00  0.23871817639E+00  0.11302911716E+01  0.93800000000E+00 0. -1.
         22    1    1    2    0    0 -0.55175199076E+00 -0.10563790956E+00  0.36592922883E+01  0.37021628379E+01  0.00000000000E+00 0. -1.
</event>
<event>
 5    1  0.3241783E+002  0.1541413E+01  0.7818608E-02  0.3419514E+00
         11   -1    0    0    0    0  0.00000000000E+00  0.00000000000E+00  0.39999999674E+01  0.40000000000E+01  0.51100000000E-03 0.  1.
    9000002   -1    0    0    0    0 -0.00000000000E+00 -0.00000000000E+00  0.00000000000E+00  0.93800000000E+00  0.93800000000E+00 0. -1.
         11    1    1    2    0    0 -0.26725218332E-01  0.22898728559E+00  0.94327162864E+00  0.97103606564E+00  0.51100000000E-03 0.  1.
    9000002    1    1    2    0    0  0.99210568308E-01  0.80896608249E-01  0.54870787387E-01  0.94828360810E+00  0.93800000000E+00 0. -1.
         22    1    1    2    0    0 -0.72485349975E-01 -0.30988389384E+00  0.30018575513E+01  0.30186803263E+01  0.00000000000E+00 0.  1.
</event>
<event>
 5    1  0.3241783E+002  0.1599612E+01  0.7818608E-02  0.3353784E+00
         11   -1    0    0    0    0  0.00000000000E+00  0.00000000000E+00  0.39999999674E+01  0.40000000000E+01  0.51100000000E-03 0. -1.
    9000002   -1    0    0    0    0 -0.00000000000E+00 -0.00000000000E+00  0.00000000000E+00  0.93800000000E+00  0.93800000000E+00 0.  1.
         11    1    1    2    0    0  0.72191324564E-01  0.66942116470E-01  0.89708246741E+00  0.90246886304E+00  0.51100000000E-03 0. -1.
    9000002    1    1    2    0    0 -0.28968883976E+00 -0.26439024376E+00  0.10370677244E+00  0.10219691382E+01  0.93800000000E+00 0. -1.
         22    1    1    2    0    0  0.21749751520E+00  0.19744812729E+00  0.29992107275E+01  0.30135619987E+01  0.00000000000E+00 0.  1.
</event>
<event>
 5    1  0.3241783E+002  0.1597098E+01  0.7818608E-02  0.3356519E+00
         11   -1    0    0    0    0  0.00000000000E+00  0.00000000000E+00  0.39999999674E+01  0.40000000000E+01  0.51100000000E-03 0. -1.
    9000002   -1    0    0    0    0 -0.00000000000E+00 -0.00000000000E+00  0.00000000000E+00  0.93800000000E+00  0.93800000000E+00 0. -1.
         11    1    1    2    0    0 -0.42615747752E-01  0.15501828840E-01  0.57595940423E+00  0.57774207489E+00  0.51100000000E-03 0. -1.
    9000002    1    1    2    0    0  0.21844027010E-01 -0.22577921975E+00  0.36077100329E-01  0.96571164162E+00  0.93800000000E+00 0. -1.
         22    1    1    2    0    0  0.20771720742E-01  0.21027739091E+00  0.33879634628E+01  0.33945462835E+01  0.00000000000E+00 0. -1.
</event>
<event>
 5    1  0.3241783E+002  0.1599306E+01  0.7818608E-02  0.3354116E+00
         11   -1    0    0    0    0  0.00000000000E+00  0.00000000000E+00  0.39999999674E+01  0.40000000000E+01  0.51100000000E-03 0.  1.
    9000002   -1    0    0    0    0 -0.00000000000E+00 -0.00000000000E+00  0.00000000000E+00  0.93800000000E+00  0.93800000000E+00 0. -1.
         11    1    1    2    0    0 -0.82046370627E-01  0.76603004278E-01  0.11880145019E+01  0.11933056378E+01  0.51100000000E-03 0.  1.
    9000002    1    1    2    0    0  0.28776168921E+00 -0.18462622792E+00  0.78606202577E-01  0.10014572227E+01  0.93800000000E+00 0. -1.
         22    1    1    2    0    0 -0.20571531858E+00  0.10802322364E+00  0.27333792628E+01  0.27432371395E+01  0.00000000000E+00 0.  1.
</event>
<event>
 5    1  0.3241783E+002  0.1589923E+01  0.7818608E-02  0.3364373E+00
         11   -1    0    0    0    0  0.00000000000E+00  0.00000000000E+00  0.39999999674E+01  0.40000000000E+01  0.51100000000E-03 0.  1.
    9000002   -1    0    0    0    0 -0.00000000000E+00 -0.00000000000E+00  0.00000000000E+00  0.93800000000E+00  0.93800000000E+00 0. -1.
         11    1    1    2    0    0  0.32927824121E-02 -0.54595118776E-01  0.41844157785E+00  0.42200128507E+00  0.51100000000E-03 0.  1.
    9000002    1    1    2    0    0 -0.37940754545E-01 -0.17468841539E+00  0.28423278211E-01  0.95530488645E+00  0.93800000000E+00 0. -1.
         22    1    1    2    0    0  0.34647972132E-01  0.22928353417E+00  0.35531351113E+01  0.35606938285E+01  0.00000000000E+00 0.  1.
</event>
<event>
 5    1  0.3241783E+002  0.1599624E+01  0.7818608E-02  0.3353771E+00
         11   -1    0    0    0    0  0.00000000000E+00  0.00000000000E+00  0.39999999674E+01  0.40000000000E+01  0.51100000000E-03 0. -1.
    9000002   -1    0    0    0    0 -0.00000000000E+00 -0.00000000000E+00  0.00000000000E+00  0.93800000000E+00  0.93800000000E+00 0. -1.
         11    1    1    2    0    0  0.42626029453E-02  0.12470658229E-01  0.21462959936E+00  0.21503444641E+00  0.51100000000E-03 0. -1.
    9000002    1    1    2    0    0 -0.73884942178E-02 -0.21702395889E+00  0.31290534057E-01  0.96331567313E+00  0.93800000000E+00 0. -1.
         22    1    1    2    0    0  0.31258912725E-02  0.20455330066E+00  0.37540798339E+01  0.37596498805E+01  0.00000000000E+00 0. -1.
</event>
<event>
 5    1  0.3241783E+002  0.1599580E+01  0.7818608E-02  0.3353820E+00
         11   -1    0    0    0    0  0.00000000000E+00  0.00000000000E+00  0.39999999674E+01  0.40000000000E+01  0.51100000000E-03 0. -1.
    9000002   -1    0    0    0    0 -0.00000000000E+00 -0.00000000000E+00  0.00000000000E+00  0.93800000000E+00  0.93800000000E+00 0. -1.
         11    1    1    2    0    0 -0.29403684466E-01 -0.39943694257E-01  0.48009376382E+00  0.48264931219E+00  0.51100000000E-03 0. -1.
    9000002    1    1    2    0    0  0.19162815165E+00  0.28494385471E+00  0.79083693099E-01  0.10020042811E+01  0.93800000000E+00 0. -1.
         22    1    1    2    0    0 -0.16222446719E+00 -0.24500016046E+00  0.34408225104E+01  0.34533464067E+01  0.00000000000E+00 0. -1.
</event>
<event>
 5    1  0.3241783E+002  0.1599652E+01  0.7818608E-02  0.3353741E+00
         11   -1    0    0    0    0  0.00000000000E+00  0.00000000000E+00  0.39999999674E+01  0.40000000000E+01  0.51100000000E-03 0.  1.
    9000002   -1    0    0    0    0 -0.00000000000E+00 -0.00000000000E+00  0.00000000000E+00  0.93800000000E+00  0.93800000000E+00 0.  1.
         11    1    1    2    0    0  0.16812157243E+00 -0.24133253791E-01  0.14348182134E+01  0.14448359227E+01  0.51100000000E-03 0.  1.
    9000002    1    1    2    0    0 -0.46497519725E+00  0.71827949925E-01  0.15083443143E+00  0.10601680122E+01  0.93800000000E+00 0.  1.
         22    1    1    2    0    0  0.29685362482E+00 -0.47694696134E-01  0.24143473226E+01  0.24329960650E+01  0.00000000000E+00 0.  1.
</event>
<event>
 5    1  0.3241783E+002  0.1578499E+01  0.7818608E-02  0.3377036E+00
         11   -1    0    0    0    0  0.00000000000E+00  0.00000000000E+00  0.39999999674E+01  0.40000000000E+01  0.51100000000E-03 0.  1.
    9000002   -1    0    0    0    0 -0.00000000000E+00 -0.00000000000E+00  0.00000000000E+00  0.93800000000E+00  0.93800000000E+00 0. -1.
         11    1    1    2    0    0 -0.36753178179E-01 -0.56927383965E-01  0.12282416141E+00  0.14027672258E+00  0.51100000000E-03 0.  1.
    9000002    1    1    2    0    0 -0.80343156969E-01  0.24118035900E+00  0.59335894939E-01  0.97364661806E+00  0.93800000000E+00 0. -1.
         22    1    1    2    0    0  0.11709633515E+00 -0.18425297503E+00  0.38178399110E+01  0.38240766594E+01  0.00000000000E+00 0.  1.
</event>
<event>
 5    1  0.3241783E+002  0.1599406E+01  0.7818608E-02  0.3354008E+00
         11   -1    0    0    0    0  0.00000000000E+00  0.00000000000E+00  0.39999999674E+01  0.40000000000E+01  0.51100000000E-03 0.  1.
    9000002   -1    0    0    0    0 -0.00000000000E+00 -0.00000000000E+00  0.00000000000E+00  0.93800000000E+00  0.93800000000E+00 0.  1.
         11    1    1    2    0    0 -0.61097413310E-01  0.62677105888E-01  0.11780257718E+01  0.11812731664E+01  0.51100000000E-03 0.  1.
    9000002    1    1    2    0    0  0.26189033756E+00 -0.19197021234E+00  0.70723730198E-01  0.99513062326E+00  0.93800000000E+00 0.  1.
         22    1    1    2    0    0 -0.20079292425E+00  0.12929310645E+00  0.27512504654E+01  0.27615962104E+01  0.00000000000E+00 0.  1.
</event>
<event>
 5    1  0.3241783E+002  0.1599674E+01  0.7818608E-02  0.3353717E+00
         11   -1    0    0    0    0  0.00000000000E+00  0.00000000000E+00  0.39999999674E+01  0.40000000000E+01  0.51100000000E-03 0. -1.
    9000002   -1    0    0    0    0 -0.00000000000E+00 -0.00000000000E+00  0.00000000000E+00  0.93800000000E+00  0.93800000000E+00 0.  1.
         11    1    1    2    0    0 -0.19301044492E+00 -0.38306071117E+00  0.22087178205E+01  0.22499829360E+01  0.51100000000E-03 0. -1.
    9000002    1    1    2    0    0  0.31549096017E+00  0.63031975720E+00  0.35554845220E+00  0.12260082561E+01  0.93800000000E+00 0.  1.
         22    1    1    2    0    0 -0.12248051526E+00 -0.24725904603E+00  0.14357336946E+01  0.14620088079E+01  0.00000000000E+00 0. -1.
</event>
<event>
 5    1  0.3241783E+002  0.1595480E+01  0.7818608E-02  0.3358284E+00
         11   -1    0    0    0    0  0.00000000000E+00  0.00000000000E+00  0.39999999674E+01  0.40000000000E+01  0.51100000000E-03 0.  1.
    9000002   -1    0    0    0    0 -0.00000000000E+00 -0.00000000000E+00  0.00000000000E+00  0.93800000000E+00  0.93800000000E+00 0. -1.
         11    1    1    2    0    0  0.31679703111E-01 -0.11342570740E+00  0.18556722303E+01  0.18594054646E+01  0.51100000000E-03 0.  1.
    9000002    1    1    2    0    0 -0.23171957468E+00  0.24081158614E+00  0.78113063574E-01  0.99881421296E+00  0.93800000000E+00 0. -1.
         22    1    1    2    0    0  0.20003987157E+00 -0.12738587874E+00  0.20662146735E+01  0.20797803224E+01  0.00000000000E+00 0.  1.
</event>
<event>
 5    1  0.3241783E+002  0.1599620E+01  0.7818608E-02  0.3353776E+00
         11   -1    0    0    0    0  0.00000000000E+00  0.00000000000E+00  0.39999999674E+01  0.40000000000E+01  0.51100000000E-03 0. -1.
    9000002   -1    0    0    0    0 -0.00000000000E+00 -0.00000000000E+00  0.00000000000E+00  0.93800000000E+00  0.93800000000E+00 0. -1.
         11    1    1    2    0    0 -0.51663570801E-01  0.17336907067E+00  0.13836403831E+01  0.13954164002E+01  0.51100000000E-03 0. -1.
    9000002    1    1    2    0    0  0.15744639579E+00 -0.49682012681E+00  0.18667107886E+00  0.10891784508E+01  0.93800000000E+00 0. -1.
         22    1    1    2    0    0 -0.10578282499E+00  0.32345105613E+00  0.24296885054E+01  0.24534051490E+01  0.00000000000E+00 0. -1.
</event>
<event>
 5    1  0.3241783E+002  0.1586313E+01  0.7818608E-02  0.3368354E+00
         11   -1    0    0    0    0  0.00000000000E+00  0.00000000000E+00  0.39999999674E+01  0.40000000000E+01  0.51100000000E-03 0. -1.
    9000002   -1    0    0    0    0 -0.00000000000E+00 -0.00000000000E+00  0.00000000000E+00  0.93800000000E+00  0.93800000000E+00 0. -1.
         11    1    1    2    0    0 -0.68782483932E-01 -0.24550055713E+00  0.22429298853E+01  0.22573737584E+01  0.51100000000E-03 0. -1.
    9000002    1    1    2    0    0 -0.11611007976E+00  0.44615805893E+00  0.15632954495E+00  0.10567977530E+01  0.93800000000E+00 0. -1.
         22    1    1    2    0    0  0.18489256369E+00 -0.20065750180E+00  0.16007405371E+01  0.16238284885E+01  0.00000000000E+00 0. -1.
</event>
<event>
 5    1  0.3241783E+002  0.1580405E+01  0.7818608E-02  0.3374909E+00
         11   -1    0    0    0    0  0.00000000000E+00  0.00000000000E+00  0.39999999674E+01  0.40000000000E+01  0.51100000000E-03 0.  1.
    9000002   -1    0    0    0    0 -0.00000000000E+00 -0.00000000000E+00  0.00000000000E+00  0.93800000000E+00  0.93800000000E+00 0. -1.
         11    1    1    2    0    0  0.99127827615E-01 -0.15386412730E+00  0.76537118594E+00  0.78695222807E+00  0.51100000000E-03 0.  1.
    9000002    1    1    2    0    0 -0.38676473397E+00  0.11135280095E+00  0.12553962977E+00  0.10283922425E+01  0.93800000000E+00 0. -1.
         22    1    1    2    0    0  0.28763690635E+00  0.42511326349E-01  0.31090891517E+01  0.31226555295E+01  0.00000000000E+00 0.  1.
</event>
<event>
 5    1  0.3241783E+002  0.1507303E+01  0.7818608E-02  0.3460558E+00
         11   -1    0    0    0    0  0.00000000000E+00  0.00000000000E+00  0.39999999674E+01  0.40000000000E+01  0.51100000000E-03 0.  1.
    9000002   -1    0    0    0    0 -0.00000000000E+00 -0.00000000000E+00  0.00000000000E+00  0.93800000000E+00  0.93800000000E+00 0.  1.
         11    1    1    2    0    0  0.12903739974E+00  0.22270089686E+00  0.58402091063E+00  0.63822176802E+00  0.51100000000E-03 0.  1.
    9000002    1    1    2    0    0 -0.45432437401E-01  0.75802316981E-01  0.75748434221E-01  0.94519411917E+00  0.93800000000E+00 0.  1.
         22    1    1    2    0    0 -0.83604962342E-01 -0.29850321384E+00  0.33402306225E+01  0.33545841128E+01  0.00000000000E+00 0.  1.
</event>
<event>
 5    1  0.3241783E+002  0.1599675E+01  0.7818608E-02  0.3353716E+00
         11   -1    0    0    0    0  0.00000000000E+00  0.00000000000E+00  0.39999999674E+01  0.40000000000E+01  0.51100000000E-03 0.  1.
    9000002   -1    0    0    0    0 -0.00000000000E+00 -0.00000000000E+00  0.00000000000E+00  0.93800000000E+00  0.93800000000E+00 0.  1.
         11    1    1    2    0    0  0.84578204639E-01  0.51857854869E-02  0.94851483113E+00  0.95229250289E+00  0.51100000000E-03 0.  1.
    9000002    1    1    2    0    0 -0.35440435320E+00 -0.22881852925E-01  0.84618553465E-01  0.10065437518E+01  0.93800000000E+00 0.  1.
         22    1    1    2    0    0  0.26982614856E+00  0.17696067438E-01  0.29668665828E+01  0.29791637453E+01  0.00000000000E+00 0.  1.
</event>
<event>
 5    1  0.3241783E+002  0.1562708E+01  0.7818608E-02  0.3394860E+00
         11   -1    0    0    0    0  0.00000000000E+00  0.00000000000E+00  0.39999999674E+01  0.40000000000E+01  0.51100000000E-03 0. -1.
    9000002   -1    0    0    0    0 -0.00000000000E+00 -0.00000000000E+00  0.00000000000E+00  0.93800000000E+00  0.93800000000E+00 0. -1.
         11    1    1    2    0    0  0.49704318211E-01 -0.19039866021E+00  0.15946328072E+01  0.16067284213E+01  0.51100000000E-03 0. -1.
    9000002    1    1    2    0    0  0.16924509943E+00 -0.87279635103E-02  0.46933686927E-01  0.95434105644E+00  0.93800000000E+00 0. -1.
         22    1    1    2    0    0 -0.21894941764E+00  0.19912662373E+00  0.23584334732E+01  0.23769305222E+01  0.00000000000E+00 0. -1.
</event>
<event>
 5    1  0.3241783E+002  0.1599007E+01  0.7818608E-02  0.3354441E+00
         11   -1    0    0    0    0  0.00000000000E+00  0.00000000000E+00  0.39999999674E+01  0.40000000000E+01  0.51100000000E-03 0. -1.
    9000002   -1    0    0    0    0 -0.00000000000E+00 -0.00000000000E+00  0.00000000000E+00  0.93800000000E+00  0.93800000000E+00 0. -1.
         11    1    1    2    0    0 -0.13304396260E-01  0.31480165845E-01  0.45852572132E+00  0.45979789695E+00  0.51100000000E-03 0. -1.
    9000002    1    1    2    0    0  0.22814999966E+00 -0.14226965633E+00  0.48612038090E-01  0.97698526484E+00  0.93800000000E+00 0. -1.
         22    1    1    2    0    0 -0.21484560341E+00  0.11078949049E+00  0.34928622079E+01  0.35012168382E+01  0.00000000000E+00 0. -1.
</event>
<event>
 5    1  0.3241783E+002  0.1595236E+01  0.7818608E-02  0.3358551E+00
         11   -1    0    0    0    0  0.00000000000E+00  0.00000000000E+00  0.39999999674E+01  0.40000000000E+01  0.51100000000E-03 0.  1.
    9000002   -1    0    0    0    0 -0.00000000000E+00 -0.00000000000E+00  0.00000000000E+00  0.93800000000E+00  0.93800000000E+00 0.  1.
         11    1    1    2    0    0  0.23049728621E-01  0.21466221007E-01  0.49740714637E+00  0.49840367075E+00  0.51100000000E-03 0.  1.
    9000002    1    1    2    0    0 -0.29650211951E-01  0.22328369468E+00  0.37009259820E-01  0.96537476075E+00  0.93800000000E+00 0.  1.
         22    1    1    2    0    0  0.66004833305E-02 -0.24474991568E+00  0.34655835612E+01  0.34742215685E+01  0.00000000000E+00 0.  1.
</event>
<event>
 5    1  0.3241783E+002  0.1594770E+01  0.7818608E-02  0.3359059E+00
         11   -1    0    0    0    0  0.00000000000E+00  0.00000000000E+00  0.39999999674E+01  0.40000000000E+01  0.51100000000E-03 0. -1.
    9000002   -1    0    0    0    0 -0.00000000000E+00 -0.00000000000E+00  0.00000000000E+00  0.93800000000E+00  0.93800000000E+00 0.  1.
         11    1    1    2    0    0  0.17620026007E+00 -0.23816811182E+00  0.24512701507E+01  0.24691083804E+01  0.51100000000E-03 0. -1.
    9000002    1    1    2    0    0 -0.37212867241E+00  0.28990927139E+00  0.15596233605E+00  0.10614590829E+01  0.93800000000E+00 0.  1.
         22    1    1    2    0    0  0.19592841233E+00 -0.51741159574E-01  0.13927674806E+01  0.14074325367E+01  0.00000000000E+00 0.  1.
</event>
<event>
 5    1  0.3241783E+002  0.1598440E+01  0.7818608E-02  0.3355058E+00
         11   -1    0    0    0    0  0.00000000000E+00  0.00000000000E+00  0.39999999674E+01  0.40000000000E+01  0.51100000000E-03 0.  1.
    9000002   -1    0    0    0    0 -0.00000000000E+00 -0.00000000000E+00  0.00000000000E+00  0.93800000000E+00  0.93800000000E+00 0.  1.
         11    1    1    2    0    0  0.12485777483E+00 -0.13845513456E+00  0.18382036823E+01  0.18476342514E+01  0.51100000000E-03 0.  1.
    9000002    1    1    2    0    0 -0.19432256952E+00  0.34879589479E+00  0.10855089989E+00  0.10252058989E+01  0.93800000000E+00 0.  1.
         22    1    1    2    0    0  0.69464794694E-01 -0.21034076023E+00  0.20532453851E+01  0.20651598497E+01  0.00000000000E+00 0. -1.
</event>
<event>
 5    1  0.3241783E+002  0.1550413E+01  0.7818608E-02  0.3409006E+00
         11   -1    0    0    0    0  0.00000000000E+00  0.00000000000E+00  0.39999999674E+01  0.40000000000E+01  0.51100000000E-03 0. -1.
    9000002   -1    0    0    0    0 -0.00000000000E+00 -0.00000000000E+00  0.00000000000E+00  0.93800000000E+00  0.93800000000E+00 0.  1.
         11    1    1    2    0    0  0.18048848223E+00 -0.11143540017E+00  0.12218295353E+01  0.12401054854E+01  0.51100000000E-03 0. -1.
    9000002    1    1    2    0    0  0.94443665035E-01 -0.61246243621E-01  0.45309238808E-01  0.94581585700E+00  0.93800000000E+00 0.  1.
         22    1    1    2    0    0 -0.27493214726E+00  0.17268164379E+00  0.27328611933E+01  0.27520786576E+01  0.00000000000E+00 0. -1.
</event>
<event>
 5    1  0.3241783E+002  0.1599620E+01  0.7818608E-02  0.3353776E+00
         11   -1    0    0    0    0  0.00000000000E+00  0.00000000000E+00  0.39999999674E+01  0.40000000000E+01  0.51100000000E-03 0.  1.
    9000002   -1    0    0    0    0 -0.00000000000E+00 -0.00000000000E+00  0.00000000000E+00  0.93800000000E+00  0.93800000000E+00 0. -1.
         11    1    1    2    0    0  0.91102675760E-02  0.64874539787E-01  0.89387594225E+00  0.89627348736E+00  0.51100000000E-03 0.  1.
    9000002    1    1    2    0    0 -0.73594808501E-01 -0.28644141181E+00  0.58370176438E-01  0.98524918459E+00  0.93800000000E+00 0. -1.
         22    1    1    2    0    0  0.64484540925E-01  0.22156687202E+00  0.30477538487E+01  0.30564773280E+01  0.00000000000E+00 0.  1.
</event>
<event>
 5    1  0.3241783E+002  0.1558112E+01  0.7818608E-02  0.3400121E+00
         11   -1    0    0    0    0  0.00000000000E+00  0.00000000000E+00  0.39999999674E+01  0.40000000000E+01  0.51100000000E-03 0. -1.
    9000002   -1    0    0    0    0 -0.00000000000E+00 -0.00000000000E+00  0.00000000000E+00  0.93800000000E+00  0.93800000000E+00 0. -1.
         11    1    1    2    0    0  0.32439930309E-01 -0.13918324579E+00  0.13501295973E+01  0.13576724626E+01  0.51100000000E-03 0. -1.
    9000002    1    1    2    0    0  0.20041840908E+00 -0.20534220284E+00  0.87908667337E-01  0.98483749561E+00  0.93800000000E+00 0. -1.
         22    1    1    2    0    0 -0.23285833939E+00  0.34452544863E+00  0.25619617027E+01  0.25954900418E+01  0.00000000000E+00 0. -1.
</event>
<event>
 5    1  0.3241783E+002  0.1599677E+01  0.7818608E-02  0.3353714E+00
         11   -1    0    0    0    0  0.00000000000E+00  0.00000000000E+00  0.39999999674E+01  0.40000000000E+01  0.51100000000E-03 0.  1.
    9000002   -1    0    0    0    0 -0.00000000000E+00 -0.00000000000E+00  0.00000000000E+00  0.93800000000E+00  0.93800000000E+00 0. -1.
         11    1    1    2    0    0  0.89279341413E-01  0.57925554482E-01  0.13631438242E+01  0.13672920380E+01  0.51100000000E-03 0.  1.
    9000002    1    1    2    0    0 -0.25845176114E+00 -0.16611076802E+00  0.63011850000E-01  0.98904226064E+00  0.93800000000E+00 0. -1.
         22    1    1    2    0    0  0.16917241973E+00  0.10818521354E+00  0.25738442932E+01  0.25816657013E+01  0.00000000000E+00 0.  1.
</event>
<event>
 5    1  0.3241783E+002  0.1599648E+01  0.7818608E-02  0.3353746E+00
         11   -1    0    0    0    0  0.00000000000E+00  0.00000000000E+00  0.39999999674E+01  0.40000000000E+01  0.51100000000E-03 0. -1.
    9000002   -1    0    0    0    0 -0.00000000000E+00 -0.00000000000E+00  0.00000000000E+00  0.93800000000E+00  0.93800000000E+00 0. -1.
         11    1    1    2    0    0 -0.22102804740E-01 -0.15973600715E+00  0.34801142729E+00  0.38355748018E+00  0.51100000000E-03 0. -1.
    9000002    1    1    2    0    0  0.19636045231E+00  0.11936049759E+01  0.14176524011E+01  0.20863443139E+01  0.93800000000E+00 0. -1.
         22    1    1    2    0    0 -0.17425764757E+00 -0.10338689687E+01  0.22343361390E+01  0.24680982059E+01  0.00000000000E+00 0. -1.
</event>
<event>
 5    1  0.3241783E+002  0.1536052E+01  0.7818608E-02  0.3425836E+00
         11   -1    0    0    0    0  0.00000000000E+00  0.00000000000E+00  0.39999999674E+01  0.40000000000E+01  0.51100000000E-03 0.  1.
    9000002   -1    0    0    0    0 -0.00000000000E+00 -0.00000000000E+00  0.00000000000E+00  0.93800000000E+00  0.93800000000E+00 0.  1.
         11    1    1    2    0    0  0.24907446875E+00  0.22487461553E+00  0.14897137238E+01  0.15270409044E+01  0.51100000000E-03 0.  1.
    9000002    1    1    2    0    0 -0.10808935587E+00 -0.42428591013E-01  0.57016772932E-01  0.94687824274E+00  0.93800000000E+00 0.  1.
         22    1    1    2    0    0 -0.14098511289E+00 -0.18244602452E+00  0.24532694707E+01  0.24640808529E+01  0.00000000000E+00 0.  1.
</event>
<event>
 5    1  0.3241783E+002  0.1595520E+01  0.7818608E-02  0.3358241E+00
         11   -1    0    0    0    0  0.00000000000E+00  0.00000000000E+00  0.39999999674E+01  0.40000000000E+01  0.51100000000E-03 0.  1.
    9000002   -1    0    0    0    0 -0.00000000000E+00 -0.00000000000E+00  0.00000000000E+00  0.93800000000E+00  0.93800000000E+00 0.  1.
         11    1    1    2    0    0  0.21857466518E-01 -0.69371901048E-01  0.16395762538E+00  0.17936714733E+00  0.51100000000E-03 0.  1.
    9000002    1    1    2    0    0 -0.69013434870E+00  0.72158416014E+00  0.80938433920E+00  0.15911995877E+01  0.93800000000E+00 0.  1.
         22    1    1    2    0    0  0.66827688218E+00 -0.65221225909E+00  0.30266580028E+01  0.31674332649E+01  0.00000000000E+00 0.  1.
</event>
<event>
 5    1  0.3241783E+002  0.1599676E+01  0.7818608E-02  0.3353715E+00
         11   -1    0    0    0    0  0.00000000000E+00  0.00000000000E+00  0.39999999674E+01  0.40000000000E+01  0.51100000000E-03 0. -1.
    9000002   -1    0    0    0    0 -0.00000000000E+00 -0.00000000000E+00  0.00000000000E+00  0.93800000000E+00  0.93800000000E+00 0.  1.
         11    1    1    2    0    0  0.15301299877E+00 -0.17841162576E-01  0.11961136272E+01  0.12059930991E+01  0.51100000000E-03 0. -1.
    9000002    1    1    2    0    0 -0.49222621651E+00  0.55374658886E-01  0.16782759004E+00  0.10739474387E+01  0.93800000000E+00 0.  1.
         22    1    1    2    0    0  0.33921321774E+00 -0.37533496310E-01  0.26360587501E+01  0.26580594622E+01  0.00000000000E+00 0. -1.
</event>
<event>
 5    1  0.3241783E+002  0.1599580E+01  0.7818608E-02  0.3353820E+00
         11   -1    0    0    0    0  0.00000000000E+00  0.00000000000E+00  0.39999999674E+01  0.40000000000E+01  0.51100000000E-03 0.  1.
    9000002   -1    0    0    0    0 -0.00000000000E+00 -0.00000000000E+00  0.00000000000E+00  0.93800000000E+00  0.93800000000E+00 0. -1.
         11    1    1    2    0    0  0.92264761754E-01  0.17884628000E+00  0.19907914810E+01  0.20009372204E+01  0.51100000000E-03 0.  1.
    9000002    1    1    2    0    0 -0.16490965349E+00 -0.36688941309E+00  0.10925203470E+00  0.10264419333E+01  0.93800000000E+00 0. -1.
         22    1    1    2    0    0  0.72644891741E-01  0.18804313309E+00  0.18999564516E+01  0.19106208463E+01  0.00000000000E+00 0.  1.
</event>
<event>
 5    1  0.3241783E+002  0.1599677E+01  0.7818608E-02  0.3353714E+00
         11   -1    0    0    0    0  0.00000000000E+00  0.00000000000E+00  0.39999999674E+01  0.40000000000E+01  0.51100000000E-03 0. -1.
    9000002   -1    0    0    0    0 -0.00000000000E+00 -0.00000000000E+00  0.00000000000E+00  0.93800000000E+00  0.93800000000E+00 0. -1.
         11    1    1    2    0    0  0.92671690188E-01  0.28975498559E+00  0.22083700799E+01  0.22292251266E+01  0.51100000000E-03 0. -1.
    9000002    1    1    2    0    0 -0.15990192387E+00 -0.50009508002E+00  0.18952753048E+00  0.10915257208E+01  0.93800000000E+00 0. -1.
         22    1    1    2    0    0  0.67230233680E-01  0.21034009443E+00  0.16021023569E+01  0.16172491526E+01  0.00000000000E+00 0. -1.
</event>
<event>
 5    1  0.3241783E+002  0.1599635E+01  0.7818608E-02  0.3353760E+00
         11   -1    0    0    0    0  0.00000000000E+00  0.00000000000E+00  0.39999999674E+01  0.40000000000E+01  0.51100000000E-03 0. -1.
    9000002   -1    0    0    0    0 -0.00000000000E+00 -0.00000000000E+00  0.00000000000E+00  0.93800000000E+00  0.93800000000E+00 0. -1.
         11    1    1    2    0    0  0.13159664088E+00  0.14149733647E+00  0.11872586944E+01  0.12028809753E+01  0.51100000000E-03 0. -1.
    9000002    1    1    2    0    0 -0.39907391854E+00 -0.46254547484E+00  0.26104473410E+00  0.11494331916E+01  0.93800000000E+00 0. -1.
         22    1    1    2    0    0  0.26747727767E+00  0.32104813837E+00  0.25516965388E+01  0.25856858331E+01  0.00000000000E+00 0. -1.
</event>
<event>
 5    1  0.3241783E+002  0.1599662E+01  0.7818608E-02  0.3353730E+00
         11   -1    0    0    0    0  0.00000000000E+00  0.00000000000E+00  0.39999999674E+01  0.40000000000E+01  0.51100000000E-03 0. -1.
    9000002   -1    0    0    0    0 -0.00000000000E+00 -0.00000000000E+00  0.00000000000E+00  0.93800000000E+00  0.93800000000E+00 0.  1.
         11    1    1    2    0    0  0.62965858655E-01 -0.16784791027E-01  0.10215770800E+01  0.10236534668E+01  0.51100000000E-03 0. -1.
    9000002    1    1    2    0    0 -0.25501054809E+00  0.75628944175E-01  0.47069412706E-01  0.97611968859E+00  0.93800000000E+00 0.  1.
         22    1    1    2    0    0  0.19204468944E+00 -0.58844153148E-01  0.29313534747E+01  0.29382268446E+01  0.00000000000E+00 0. -1.
</event>
<event>
 5    1  0.3241783E+002  0.1599675E+01  0.7818608E-02  0.3353716E+00
         11   -1    0    0    0    0  0.00000000000E+00  0.00000000000E+00  0.39999999674E+01  0.40000000000E+01  0.51100000000E-03 0.  1.
    9000002   -1    0    0    0    0 -0.00000000000E+00 -0.00000000000E+00  0.00000000000E+00  0.93800000000E+00  0.93800000000E+00 0. -1.
         11    1    1    2    0    0 -0.70000342336E-01 -0.14805502997E+00  0.14857578038E+01  0.14947564526E+01  0.51100000000E-03 0.  1.
    9000002    1    1    2    0    0  0.18167700464E+00  0.38279743466E+00  0.12148703376E+00  0.10364089489E+01  0.93800000000E+00 0. -1.
         22    1    1    2    0    0 -0.11167666231E+00 -0.23474240469E+00  0.23927551298E+01  0.24068345985E+01  0.00000000000E+00 0.  1.
</event>
<event>
 5    1  0.3241783E+002  0.1599178E+01  0.7818608E-02  0.3354256E+00
         11   -1    0    0    0    0  0.00000000000E+00  0.00000000000E+00  0.39999999674E+01  0.40000000000E+01  0.51100000000E-03 0. -1.
    9000002   -1    0    0    0    0 -0.00000000000E+00 -0.00000000000E+00  0.00000000000E+00  0.93800000000E+00  0.93800000000E+00 0.  1.
         11    1    1    2    0    0 -0.94822907481E-02  0.66002226482E-01  0.40850720924E+00  0.41391376984E+00  0.51100000000E-03 0. -1.
    9000002    1    1    2    0    0  0.84520386159E-01 -0.46428346422E+00  0.15219943046E+00  0.10609955219E+01  0.93800000000E+00 0.  1.
         22    1    1    2    0    0 -0.75038095411E-01  0.39828123774E+00  0.34392933277E+01  0.34630907083E+01  0.00000000000E+00 0. -1.
</event>
<event>
 5    1  0.3241783E+002  0.1599674E+01  0.7818608E-02  0.3353718E+00
         11   -1    0    0    0    0  0.00000000000E+00  0.00000000000E+00  0.39999999674E+01  0.40000000000E+01  0.51100000000E-03 0.  1.
    9000002   -1    0    0    0    0 -0.00000000000E+00 -0.00000000000E+00  0.00000000000E+00  0.93800000000E+00  0.93800000000E+00 0. -1.
         11    1    1    2    0    0  0.90184995150E-01 -0.69122736808E-02  0.99430366925E+00  0.99840931520E+00  0.51100000000E-03 0.  1.
    9000002    1    1    2    0    0 -0.36201627743E+00  0.25405049852E-01  0.88438090045E-01  0.10096368146E+01  0.93800000000E+00 0. -1.
         22    1    1    2    0    0  0.27183128228E+00 -0.18492776171E-01  0.29172582081E+01  0.29299538702E+01  0.00000000000E+00 0.  1.
</event>
<event>
 5    1  0.3241783E+002  0.1599623E+01  0.7818608E-02  0.3353773E+00
         11   -1    0    0    0    0  0.00000000000E+00  0.00000000000E+00  0.39999999674E+01  0.40000000000E+01  0.51100000000E-03 0.  1.
    9000002   -1    0    0    0    0 -0.00000000000E+00 -0.00000000000E+00  0.00000000000E+00  0.93800000000E+00  0.93800000000E+00 0. -1.
         11    1    1    2    0    0  0.72277300304E-01  0.12452023258E+00  0.14607095554E+01  0.14677881192E+01  0.51100000000E-03 0.  1.
    9000002    1    1    2    0    0 -0.17228917665E+00 -0.32432672629E+00  0.90653576030E-01  0.10114017286E+01  0.93800000000E+00 0. -1.
         22    1    1    2    0    0  0.10001187635E+00  0.19980649371E+00  0.24486368359E+01  0.24588101522E+01  0.00000000000E+00 0.  1.
</event>
<event>
 5    1  0.3241783E+002  0.1599677E+01  0.7818608E-02  0.3353714E+00
         11   -1    0    0    0    0  0.00000000000E+00  0.00000000000E+00  0.39999999674E+01  0.40000000000E+01  0.51100000000E-03 0.  1.
    9000002   -1    0    0    0    0 -0.00000000000E+00 -0.00000000000E+00  0.00000000000E+00  0.93800000000E+00  0.93800000000E+00 0.  1.
         11    1    1    2    0    0  0.10894221287E+00 -0.14810892460E+00  0.12254038483E+01  0.12391204590E+01  0.51100000000E-03 0.  1.
    9000002    1    1    2    0    0 -0.33677595260E+00  0.45575972851E+00  0.22252648591E+00  0.11182562360E+01  0.93800000000E+00 0.  1.
         22    1    1    2    0    0  0.22783373974E+00 -0.30765080391E+00  0.25520696331E+01  0.25806233050E+01  0.00000000000E+00 0.  1.
</event>
<event>
 5    1  0.3241783E+002  0.1599677E+01  0.7818608E-02  0.3353715E+00
         11   -1    0    0    0    0  0.00000000000E+00  0.00000000000E+00  0.39999999674E+01  0.40000000000E+01  0.51100000000E-03 0. -1.
    9000002   -1    0    0    0    0 -0.00000000000E+00 -0.00000000000E+00  0.00000000000E+00  0.93800000000E+00  0.93800000000E+00 0.  1.
         11    1    1    2    0    0 -0.15334868273E-01  0.52852772271E-01  0.83156177503E+00  0.83338095762E+00  0.51100000000E-03 0.  1.
    9000002    1    1    2    0    0  0.71051520764E-01 -0.24923087187E+00  0.44648891354E-01  0.97416726982E+00  0.93800000000E+00 0.  1.
         22    1    1    2    0    0 -0.55716652490E-01  0.19637809960E+00  0.31237893010E+01  0.31304517726E+01  0.00000000000E+00 0. -1.
</event>
<event>
 5    1  0.3241783E+002  0.1599672E+01  0.7818608E-02  0.3353719E+00
         11   -1    0    0    0    0  0.00000000000E+00  0.00000000000E+00  0.39999999674E+01  0.40000000000E+01  0.51100000000E-03 0.  1.
    9000002   -1    0    0    0    0 -0.00000000000E+00 -0.00000000000E+00  0.00000000000E+00  0.93800000000E+00  0.93800000000E+00 0.  1.
         11    1    1    2    0    0 -0.15571955081E-01 -0.84334948038E-02  0.27773791387E+00  0.27830238868E+00  0.51100000000E-03 0.  1.
    9000002    1    1    2    0    0  0.23554909618E+00  0.10780690295E+00  0.44612957173E-01  0.97413552496E+00  0.93800000000E+00 0.  1.
         22    1    1    2    0    0 -0.21997714110E+00 -0.99373408149E-01  0.36776490963E+01  0.36855620864E+01  0.00000000000E+00 0.  1.
</event>
<event>
 5    1  0.3241783E+002  0.1599613E+01  0.7818608E-02  0.3353784E+00
         11   -1    0    0    0    0  0.00000000000E+00  0.00000000000E+00  0.39999999674E+01  0.40000000000E+01  0.51100000000E-03 0.  1.
    9000002   -1    0    0    0    0 -0.00000000000E+00 -0.00000000000E+00  0.00000000000E+00  0.93800000000E+00  0.93800000000E+00 0.  1.
         11    1    1    2    0    0  0.41062784741E-02  0.48550975753E-02  0.16156576107E+00  0.16169165027E+00  0.51100000000E-03 0.  1.
    9000002    1    1    2    0    0 -0.54216707528E-01 -0.19978982374E+00  0.28431623951E-01  0.96099312291E+00  0.93800000000E+00 0.  1.
         22    1    1    2    0    0  0.50110429054E-01  0.19493472616E+00  0.38100025823E+01  0.38153152268E+01  0.00000000000E+00 0.  1.
</event>
<event>
 5    1  0.3241783E+002  0.1599319E+01  0.7818608E-02  0.3354102E+00
         11   -1    0    0    0    0  0.00000000000E+00  0.00000000000E+00  0.39999999674E+01  0.40000000000E+01  0.51100000000E-03 0. -1.
    9000002   -1    0    0    0    0 -0.00000000000E+00 -0.00000000000E+00  0.00000000000E+00  0.93800000000E+00  0.93800000000E+00 0.  1.
         11    1    1    2    0    0 -0.48123162734E-01 -0.39177840622E-01  0.72091416380E+00  0.72358015083E+00  0.51100000000E-03 0. -1.
    9000002    1    1    2    0    0  0.20899329458E+00  0.29293026324E+00  0.87207454255E-01  0.10084321873E+01  0.93800000000E+00 0.  1.
         22    1    1    2    0    0 -0.16087013185E+00 -0.25375242262E+00  0.31918783493E+01  0.32059876619E+01  0.00000000000E+00 0. -1.
</event>
<event>
 5    1  0.3241783E+002  0.1587976E+01  0.7818608E-02  0.3366518E+00
         11   -1    0    0    0    0  0.00000000000E+00  0.00000000000E+00  0.39999999674E+01  0.40000000000E+01  0.51100000000E-03 0. -1.
    9000002   -1    0    0    0    0 -0.00000000000E+00 -0.00000000000E+00  0.00000000000E+00  0.93800000000E+00  0.93800000000E+00 0. -1.
         11    1    1    2    0    0  0.79490240882E-01 -0.18621955160E-01  0.12431544378E+01  0.12458325301E+01  0.51100000000E-03 0. -1.
    9000002    1    1    2    0    0  0.10563860874E+00 -0.79968008981E-01  0.20231232429E-01  0.94752715047E+00  0.93800000000E+00 0. -1.
         22    1    1    2    0    0 -0.18512884962E+00  0.98589964142E-01  0.27366142971E+01  0.27446403195E+01  0.00000000000E+00 0. -1.
</event>
<event>
 5    1  0.3241783E+002  0.1599675E+01  0.7818608E-02  0.3353717E+00
         11   -1    0    0    0    0  0.00000000000E+00  0.00000000000E+00  0.39999999674E+01  0.40000000000E+01  0.51100000000E-03 0.  1.
    9000002   -1    0    0    0    0 -0.00000000000E+00 -0.00000000000E+00  0.00000000000E+00  0.93800000000E+00  0.93800000000E+00 0. -1.
         11    1    1    2    0    0  0.66135600404E-01  0.33677826390E+00  0.24011085986E+01  0.24255136116E+01  0.51100000000E-03 0.  1.
    9000002    1    1    2    0    0 -0.10704043035E+00 -0.53388035681E+00  0.20457328664E+00  0.11037119727E+01  0.93800000000E+00 0. -1.
         22    1    1    2    0    0  0.40904829946E-01  0.19710209290E+00  0.13943180821E+01  0.14087744157E+01  0.00000000000E+00 0.  1.
</event>
<event>
 5    1  0.3241783E+002  0.1597020E+01  0.7818608E-02  0.3356604E+00
         11   -1    0    0    0    0  0.00000000000E+00  0.00000000000E+00  0.39999999674E+01  0.40000000000E+01  0.51100000000E-03 0. -1.
    9000002   -1    0    0    0    0 -0.00000000000E+00 -0.00000000000E+00  0.00000000000E+00  0.93800000000E+00  0.93800000000E+00 0. -1.
         11    1    1    2    0    0  0.30251063440E+00 -0.38471746264E+00  0.24296989777E+01  0.24784990606E+01  0.51100000000E-03 0. -1.
    9000002    1    1    2    0    0 -0.49375407024E+00  0.49890848164E+00  0.35529586441E+00  0.12242474857E+01  0.93800000000E+00 0. -1.
         22    1    1    2    0    0  0.19124343584E+00 -0.11419101900E+00  0.12150051253E+01  0.12352534538E+01  0.00000000000E+00 0. -1.
</event>
<event>
 5    1  0.3241783E+002  0.1599677E+01  0.7818608E-02  0.3353714E+00
         11   -1    0    0    0    0  0.00000000000E+00  0.00000000000E+00  0.39999999674E+01  0.40000000000E+01  0.51100000000E-03 0. -1.
    9000002   -1    0    0    0    0 -0.00000000000E+00 -0.00000000000E+00  0.00000000000E+00  0.93800000000E+00  0.93800000000E+00 0. -1.
         11    1    1    2    0    0 -0.72209798149E-01  0.66418466340E-01  0.72570941929E+00  0.73231147061E+00  0.51100000000E-03 0. -1.
    9000002    1    1    2    0    0  0.38074044757E+00 -0.34808450633E+00  0.18267441457E+00  0.10859742417E+01  0.93800000000E+00 0. -1.
         22    1    1    2    0    0 -0.30853064942E+00  0.28166603999E+00  0.30916161335E+01  0.31197142877E+01  0.00000000000E+00 0. -1.
</event>
<event>
 5    1  0.3241783E+002  0.1599664E+01  0.7818608E-02  0.3353728E+00
         11   -1    0    0    0    0  0.00000000000E+00  0.00000000000E+00  0.39999999674E+01  0.40000000000E+01  0.51100000000E-03 0. -1.
    9000002   -1    0    0    0    0 -0.00000000000E+00 -0.00000000000E+00  0.00000000000E+00  0.93800000000E+00  0.93800000000E+00 0. -1.
         11    1    1    2    0    0  0.37980143554E-01 -0.47018157837E-01  0.42872203718E+00  0.43296194378E+00  0.51100000000E-03 0. -1.
    9000002    1    1    2    0    0 -0.32979463566E+00  0.39575996757E+00  0.18215853717E+00  0.10855487950E+01  0.93800000000E+00 0. -1.
         22    1    1    2    0    0  0.29181449211E+00 -0.34874180974E+00  0.33891193930E+01  0.34194892612E+01  0.00000000000E+00 0. -1.
</event>
<event>
 5    1  0.3241783E+002  0.1535789E+01  0.7818608E-02  0.3426147E+00
         11   -1    0    0    0    0  0.00000000000E+00  0.00000000000E+00  0.39999999674E+01  0.40000000000E+01  0.51100000000E-03 0.  1.
    9000002   -1    0    0    0    0 -0.00000000000E+00 -0.00000000000E+00  0.00000000000E+00  0.93800000000E+00  0.93800000000E+00 0.  1.
         11    1    1    2    0    0 -0.19866465050E+00 -0.11319159640E+00  0.51706540119E+00  0.56536437019E+00  0.51100000000E-03 0.  1.
    9000002    1    1    2    0    0 -0.63498040421E-02  0.33850908495E+00  0.12974530277E+00  0.10056373920E+01  0.93800000000E+00 0.  1.
         22    1    1    2    0    0  0.20501445454E+00 -0.22531748855E+00  0.33531892634E+01  0.33669982378E+01  0.00000000000E+00 0.  1.
</event>
<event>
 5    1  0.3241783E+002  0.1599677E+01  0.7818608E-02  0.3353714E+00
         11   -1    0    0    0    0  0.00000000000E+00  0.00000000000E+00  0.39999999674E+01  0.40000000000E+01  0.51100000000E-03 0. -1.
    9000002   -1    0    0    0    0 -0.00000000000E+00 -0.00000000000E+00  0.00000000000E+00  0.93800000000E+00  0.93800000000E+00 0. -1.
         11    1    1    2    0    0  0.19657203466E+00  0.10072989561E+00  0.18863637537E+01  0.18992513128E+01  0.51100000000E-03 0.  1.
    9000002    1    1    2    0    0 -0.40272899330E+00 -0.20608734278E+00  0.13905292475E+00  0.10506390202E+01  0.93800000000E+00 0. -1.
         22    1    1    2    0    0  0.20615695864E+00  0.10535744717E+00  0.19745832889E+01  0.19881096670E+01  0.00000000000E+00 0. -1.
</event>
<event>
 5    1  0.3241783E+002  0.1599676E+01  0.7818608E-02  0.3353715E+00
         11   -1    0    0    0    0  0.00000000000E+00  0.00000000000E+00  0.39999999674E+01  0.40000000000E+01  0.51100000000E-03 0. -1.
    9000002   -1    0    0    0    0 -0.00000000000E+00 -0.00000000000E+00  0.00000000000E+00  0.93800000000E+00  0.93800000000E+00 0.  1.
         11    1    1    2    0    0 -0.13950553673E+00  0.24784558234E+00  0.21022385243E+01  0.21213901814E+01  0.51100000000E-03 0. -1.
    9000002    1    1    2    0    0  0.25341372878E+00 -0.45190226232E+00  0.18433134747E+00  0.10873160618E+01  0.93800000000E+00 0.  1.
         22    1    1    2    0    0 -0.11390819205E+00  0.20405667998E+00  0.17134300956E+01  0.17292937568E+01  0.00000000000E+00 0.  1.
</event>
<event>
 5    1  0.3241783E+002  0.1599676E+01  0.7818608E-02  0.3353715E+00
         11   -1    0    0    0    0  0.00000000000E+00  0.00000000000E+00  0.39999999674E+01  0.40000000000E+01  0.51100000000E-03 0. -1.
    9000002   -1    0    0    0    0 -0.00000000000E+00 -0.00000000000E+00  0.00000000000E+00  0.93800000000E+00  0.93800000000E+00 0.  1.
         11    1    1    2    0    0  0.77644371956E-01  0.63144900516E-01  0.10991009232E+01  0.11036480541E+01  0.51100000000E-03 0.  1.
    9000002    1    1    2    0    0 -0.27370216511E+00 -0.22564074423E+00  0.84412833432E-01  0.10063777358E+01  0.93800000000E+00 0.  1.
         22    1    1    2    0    0  0.19605779316E+00  0.16249584371E+00  0.28164862108E+01  0.28279742101E+01  0.00000000000E+00 0. -1.
</event>
<event>
 5    1  0.3241783E+002  0.1587591E+01  0.7818608E-02  0.3366943E+00
         11   -1    0    0    0    0  0.00000000000E+00  0.00000000000E+00  0.39999999674E+01  0.40000000000E+01  0.51100000000E-03 0.  1.
    9000002   -1    0    0    0    0 -0.00000000000E+00 -0.00000000000E+00  0.00000000000E+00  0.93800000000E+00  0.93800000000E+00 0. -1.
         11    1    1    2    0    0  0.67809940074E-01 -0.87789749235E-01  0.24440635549E+01  0.24465796839E+01  0.51100000000E-03 0.  1.
    9000002    1    1    2    0    0 -0.31333960059E+00  0.11617594384E+00  0.84457524285E-01  0.99932758825E+00  0.93800000000E+00 0. -1.
         22    1    1    2    0    0  0.24552966052E+00 -0.28386194602E-01  0.14714788882E+01  0.14920927279E+01  0.00000000000E+00 0. -1.
</event>
<event>
 5    1  0.3241783E+002  0.1599674E+01  0.7818608E-02  0.3353717E+00
         11   -1    0    0    0    0  0.00000000000E+00  0.00000000000E+00  0.39999999674E+01  0.40000000000E+01  0.51100000000E-03 0. -1.
    9000002   -1    0    0    0    0 -0.00000000000E+00 -0.00000000000E+00  0.00000000000E+00  0.93800000000E+00  0.93800000000E+00 0.  1.
         11    1    1    2    0    0  0.63902215105E-01 -0.85699228120E-01  0.11836303667E+01  0.11884481297E+01  0.51100000000E-03 0. -1.
    9000002    1    1    2    0    0 -0.21210961540E+00  0.27751126319E+00  0.81800191846E-01  0.10042600567E+01  0.93800000000E+00 0.  1.
         22    1    1    2    0    0  0.14820740030E+00 -0.19181203507E+00  0.27345694088E+01  0.27452918136E+01  0.00000000000E+00 0. -1.
</event>
<event>
 5    1  0.3241783E+002  0.1534874E+01  0.7818608E-02  0.3427231E+00
         11   -1    0    0    0    0  0.00000000000E+00  0.00000000000E+00  0.39999999674E+01  0.40000000000E+01  0.51100000000E-03 0. -1.
    9000002   -1    0    0    0    0 -0.00000000000E+00 -0.00000000000E+00  0.00000000000E+00  0.93800000000E+00  0.93800000000E+00 0.  1.
         11    1    1    2    0    0  0.22643631352E+00  0.52848782545E-01  0.13757520223E+01  0.13952635185E+01  0.51100000000E-03 0. -1.
    9000002    1    1    2    0    0  0.12339123191E+00  0.17080604279E+00  0.79854333017E-01  0.96468689992E+00  0.93800000000E+00 0.  1.
         22    1    1    2    0    0 -0.34982754542E+00 -0.22365482534E+00  0.25443936120E+01  0.25780495816E+01  0.00000000000E+00 0. -1.
</event>
<event>
 5    1  0.3241783E+002  0.1599664E+01  0.7818608E-02  0.3353729E+00
         11   -1    0    0    0    0  0.00000000000E+00  0.00000000000E+00  0.39999999674E+01  0.40000000000E+01  0.51100000000E-03 0.  1.
    9000002   -1    0    0    0    0 -0.00000000000E+00 -0.00000000000E+00  0.00000000000E+00  0.93800000000E+00  0.93800000000E+00 0.  1.
         11    1    1    2    0    0  0.11531167622E+00  0.12551545475E+00  0.18111794699E+01  0.18191817516E+01  0.51100000000E-03 0.  1.
    9000002    1    1    2    0    0 -0.25244624879E+00 -0.27931640273E+00  0.95343670618E-01  0.10152246928E+01  0.93800000000E+00 0.  1.
         22    1    1    2    0    0  0.13713457257E+00  0.15380094798E+00  0.20934768268E+01  0.21035935555E+01  0.00000000000E+00 0.  1.
</event>
<event>
 5    1  0.3241783E+002  0.1569642E+01  0.7818608E-02  0.3386986E+00
         11   -1    0    0    0    0  0.00000000000E+00  0.00000000000E+00  0.39999999674E+01  0.40000000000E+01  0.51100000000E-03 0.  1.
    9000002   -1    0    0    0    0 -0.00000000000E+00 -0.00000000000E+00  0.00000000000E+00  0.93800000000E+00  0.93800000000E+00 0. -1.
         11    1    1    2    0    0 -0.12251438815E+00  0.19525724256E+00  0.19998894719E+01  0.20131302310E+01  0.51100000000E-03 0.  1.
    9000002    1    1    2    0    0  0.11373990311E+00  0.55753462918E-02  0.30865810914E-01  0.94539121443E+00  0.93800000000E+00 0. -1.
         22    1    1    2    0    0  0.87744850436E-02 -0.20083258885E+00  0.19692446846E+01  0.19794785546E+01  0.00000000000E+00 0.  1.
</event>
<event>
 5    1  0.3241783E+002  0.1599672E+01  0.7818608E-02  0.3353719E+00
         11   -1    0    0    0    0  0.00000000000E+00  0.00000000000E+00  0.39999999674E+01  0.40000000000E+01  0.51100000000E-03 0.  1.
    9000002   -1    0    0    0    0 -0.00000000000E+00 -0.00000000000E+00  0.00000000000E+00  0.93800000000E+00  0.93800000000E+00 0. -1.
         11    1    1    2    0    0 -0.49222685690E-02  0.58776261768E-02  0.88479416508E-01  0.88812406137E-01  0.51100000000E-03 0. -1.
    9000002    1    1    2    0    0  0.19160765848E+00 -0.26576239735E+00  0.71807489239E-01  0.99616437506E+00  0.93800000000E+00 0. -1.
         22    1    1    2    0    0 -0.18668538991E+00  0.25988477117E+00  0.38397130616E+01  0.38530232188E+01  0.00000000000E+00 0.  1.
</event>
<event>
 5    1  0.3241783E+002  0.1599676E+01  0.7818608E-02  0.3353715E+00
         11   -1    0    0    0    0  0.00000000000E+00  0.00000000000E+00  0.39999999674E+01  0.40000000000E+01  0.51100000000E-03 0. -1.
    9000002   -1    0    0    0    0 -0.00000000000E+00 -0.00000000000E+00  0.00000000000E+00  0.93800000000E+00  0.93800000000E+00 0.  1.
         11    1    1    2    0    0  0.35576983455E-01 -0.14736026019E+00  0.70294173407E+00  0.71910229498E+00  0.51100000000E-03 0. -1.
    9000002    1    1    2    0    0 -0.18099782004E+00  0.74455824402E+00  0.42775919270E+00  0.12845034514E+01  0.93800000000E+00 0.  1.
         22    1    1    2    0    0  0.14542083658E+00 -0.59719798383E+00  0.28692990406E+01  0.29343942537E+01  0.00000000000E+00 0. -1.
</event>
<event>
 5    1  0.3241783E+002  0.1586752E+01  0.7818608E-02  0.3367870E+00
         11   -1    0    0    0    0  0.00000000000E+00  0.00000000000E+00  0.39999999674E+01  0.40000000000E+01  0.51100000000E-03 0.  1.
    9000002   -1    0    0    0    0 -0.00000000000E+00 -0.00000000000E+00  0.00000000000E+00  0.93800000000E+00  0.93800000000E+00 0. -1.
         11    1    1    2    0    0  0.48686122035E-01 -0.38835073356E+00  0.25120889349E+01  0.25423960566E+01  0.51100000000E-03 0.  1.
    9000002    1    1    2    0    0 -0.26070037472E+00  0.58168768624E+00  0.29940162487E+00  0.11729495226E+01  0.93800000000E+00 0. -1.
         22    1    1    2    0    0  0.21201425269E+00 -0.19333695268E+00  0.11885094076E+01  0.12226544207E+01  0.00000000000E+00 0.  1.
</event>
<event>
 5    1  0.3241783E+002  0.1598272E+01  0.7818608E-02  0.3355241E+00
         11   -1    0    0    0    0  0.00000000000E+00  0.00000000000E+00  0.39999999674E+01  0.40000000000E+01  0.51100000000E-03 0. -1.
    9000002   -1    0    0    0    0 -0.00000000000E+00 -0.00000000000E+00  0.00000000000E+00  0.93800000000E+00  0.93800000000E+00 0. -1.
         11    1    1    2    0    0  0.26147741937E+00 -0.98174992001E-01  0.22248479987E+01  0.22423107831E+01  0.51100000000E-03 0. -1.
    9000002    1    1    2    0    0 -0.51099825613E+00  0.12537189034E+00  0.19166921962E+00  0.10924369174E+01  0.93800000000E+00 0. -1.
         22    1    1    2    0    0  0.24952083676E+00 -0.27196898341E-01  0.15834827491E+01  0.16032522995E+01  0.00000000000E+00 0. -1.
</event>
<event>
 5    1  0.3241783E+002  0.1599677E+01  0.7818608E-02  0.3353714E+00
         11   -1    0    0    0    0  0.00000000000E+00  0.00000000000E+00  0.39999999674E+01  0.40000000000E+01  0.51100000000E-03 0. -1.
    9000002   -1    0    0    0    0 -0.00000000000E+00 -0.00000000000E+00  0.00000000000E+00  0.93800000000E+00  0.93800000000E+00 0. -1.
         11    1    1    2    0    0  0.79972084406E-02  0.45928280491E-01  0.66450055240E+00  0.66613407626E+00  0.51100000000E-03 0.  1.
    9000002    1    1    2    0    0 -0.47681841243E-01 -0.27437693670E+00  0.51639389586E-01  0.97983003013E+00  0.93800000000E+00 0. -1.
         22    1    1    2    0    0  0.39684632802E-01  0.22844865621E+00  0.32838600254E+01  0.32920358936E+01  0.00000000000E+00 0. -1.
</event>
<event>
 5    1  0.3241783E+002  0.1579389E+01  0.7818608E-02  0.3376042E+00
         11   -1    0    0    0    0  0.00000000000E+00  0.00000000000E+00  0.39999999674E+01  0.40000000000E+01  0.51100000000E-03 0. -1.
    9000002   -1    0    0    0    0 -0.00000000000E+00 -0.00000000000E+00  0.00000000000E+00  0.93800000000E+00  0.93800000000E+00 0. -1.
         11    1    1    2    0    0 -0.48468281437E-01 -0.70091552742E-01  0.41482825536E+00  0.42349113643E+00  0.51100000000E-03 0. -1.
    9000002    1    1    2    0    0 -0.11485504186E+00 -0.15213422092E+00  0.39353662272E-01  0.95798184354E+00  0.93800000000E+00 0. -1.
         22    1    1    2    0    0  0.16332332330E+00  0.22222577366E+00  0.35458180497E+01  0.35565270200E+01  0.00000000000E+00 0. -1.
</event>
<event>
 5    1  0.3241783E+002  0.1599667E+01  0.7818608E-02  0.3353724E+00
         11   -1    0    0    0    0  0.00000000000E+00  0.00000000000E+00  0.39999999674E+01  0.40000000000E+01  0.51100000000E-03 0. -1.
    9000002   -1    0    0    0    0 -0.00000000000E+00 -0.00000000000E+00  0.00000000000E+00  0.93800000000E+00  0.93800000000E+00 0. -1.
         11    1    1    2    0    0 -0.18794906347E-01  0.93660745640E-01  0.83666466846E+00  0.84210071390E+00  0.51100000000E-03 0. -1.
    9000002    1    1    2    0    0  0.76575106872E-01 -0.44222306510E+00  0.13678883425E+00  0.10487993952E+01  0.93800000000E+00 0. -1.
         22    1    1    2    0    0 -0.57780200524E-01  0.34856231946E+00  0.30265464647E+01  0.30470998909E+01  0.00000000000E+00 0. -1.
</event>
<event>
 5    1  0.3241783E+002  0.1599677E+01  0.7818608E-02  0.3353714E+00
         11   -1    0    0    0    0  0.00000000000E+00  0.00000000000E+00  0.39999999674E+01  0.40000000000E+01  0.51100000000E-03 0. -1.
    9000002   -1    0    0    0    0 -0.00000000000E+00 -0.00000000000E+00  0.00000000000E+00  0.93800000000E+00  0.93800000000E+00 0.  1.
         11    1    1    2    0    0  0.18567847290E+00  0.46741685898E-01  0.10152054011E+01  0.10331038418E+01  0.51100000000E-03 0.  1.
    9000002    1    1    2    0    0 -0.66748292307E+00 -0.16873968084E+00  0.33772651502E+00  0.12115732464E+01  0.93800000000E+00 0.  1.
         22    1    1    2    0    0  0.48180445017E+00  0.12199799494E+00  0.26470680513E+01  0.26933229117E+01  0.00000000000E+00 0. -1.
</event>
<event>
 5    1  0.3241783E+002  0.1599585E+01  0.7818608E-02  0.3353814E+00
         11   -1    0    0    0    0  0.00000000000E+00  0.00000000000E+00  0.39999999674E+01  0.40000000000E+01  0.51100000000E-03 0. -1.
    9000002   -1    0    0    0    0 -0.00000000000E+00 -0.00000000000E+00  0.00000000000E+00  0.93800000000E+00  0.93800000000E+00 0. -1.
         11    1    1    2    0    0 -0.25434741786E-01  0.53131973315E-01  0.10151763338E+01  0.10168840556E+01  0.51100000000E-03 0. -1.
    9000002    1    1    2    0    0  0.11826127517E+00 -0.24114598084E+00  0.48061853907E-01  0.97687821917E+00  0.93800000000E+00 0. -1.
         22    1    1    2    0    0 -0.92826533386E-01  0.18801400753E+00  0.29367617796E+01  0.29442377252E+01  0.00000000000E+00 0. -1.
</event>
<event>
 5    1  0.3241783E+002  0.1590426E+01  0.7818608E-02  0.3363821E+00
         11   -1    0    0    0    0  0.00000000000E+00  0.00000000000E+00  0.39999999674E+01  0.40000000000E+01  0.51100000000E-03 0.  1.
    9000002   -1    0    0    0    0 -0.00000000000E+00 -0.00000000000E+00  0.00000000000E+00  0.93800000000E+00  0.93800000000E+00 0. -1.
         11    1    1    2    0    0  0.14001452165E-02 -0.85577360356E-01  0.85756768847E+00  0.86182831610E+00  0.51100000000E-03 0.  1.
    9000002    1    1    2    0    0 -0.24497661726E+00  0.25005625065E-01  0.47361906552E-01  0.97094076775E+00  0.93800000000E+00 0. -1.
         22    1    1    2    0    0  0.24357647204E+00  0.60571735291E-01  0.30950703723E+01  0.31052309161E+01  0.00000000000E+00 0.  1.
</event>
<event>
 5    1  0.3241783E+002  0.1599491E+01  0.7818608E-02  0.3353916E+00
         11   -1    0    0    0    0  0.00000000000E+00  0.00000000000E+00  0.39999999674E+01  0.40000000000E+01  0.51100000000E-03 0. -1.
    9000002   -1    0    0    0    0 -0.00000000000E+00 -0.00000000000E+00  0.00000000000E+00  0.93800000000E+00  0.93800000000E+00 0. -1.
         11    1    1    2    0    0  0.24388914560E+00 -0.14292534724E+00  0.21233234518E+01  0.21420579619E+01  0.51100000000E-03 0. -1.
    9000002    1    1    2    0    0 -0.43636106146E+00  0.28593316642E+00  0.18718414527E+00  0.10895185431E+01  0.93800000000E+00 0. -1.
         22    1    1    2    0    0  0.19247191586E+00 -0.14300781919E+00  0.16894923703E+01  0.17064234949E+01  0.00000000000E+00 0. -1.
</event>
<event>
 5    1  0.3241783E+002  0.1599673E+01  0.7818608E-02  0.3353718E+00
         11   -1    0    0    0    0  0.00000000000E+00  0.00000000000E+00  0.39999999674E+01  0.40000000000E+01  0.51100000000E-03 0. -1.
    9000002   -1    0    0    0    0 -0.00000000000E+00 -0.00000000000E+00  0.00000000000E+00  0.93800000000E+00  0.93800000000E+00 0. -1.
         11    1    1    2    0    0 -0.12413137846E-01  0.76901958296E-02  0.25265313315E+00  0.25307526927E+00  0.51100000000E-03 0. -1.
    9000002    1    1    2    0    0  0.20759626341E+00 -0.13094013919E+00  0.40006954603E-01  0.97040511388E+00  0.93800000000E+00 0. -1.
         22    1    1    2    0    0 -0.19518312557E+00  0.12324994336E+00  0.37073398796E+01  0.37145196169E+01  0.00000000000E+00 0. -1.
</event>
<event>
 5    1  0.3241783E+002  0.1599633E+01  0.7818608E-02  0.3353762E+00
         11   -1    0    0    0    0  0.00000000000E+00  0.00000000000E+00  0.39999999674E+01  0.40000000000E+01  0.51100000000E-03 0.  1.
    9000002   -1    0    0    0    0 -0.00000000000E+00 -0.00000000000E+00  0.00000000000E+00  0.93800000000E+00  0.93800000000E+00 0. -1.
         11    1    1    2    0    0  0.42601104987E+00  0.87050935110E-01  0.25226536885E+01  0.25598525686E+01  0.51100000000E-03 0.  1.
    9000002    1    1    2    0    0 -0.62215809303E+00 -0.13792570690E+00  0.28575092895E+00  0.11694450764E+01  0.93800000000E+00 0. -1.
         22    1    1    2    0    0  0.19614704316E+00  0.50874771792E-01  0.11915953500E+01  0.12087023550E+01  0.00000000000E+00 0.  1.
</event>
<event>
 5    1  0.3241783E+002  0.1599668E+01  0.7818608E-02  0.3353724E+00
         11   -1    0    0    0    0  0.00000000000E+00  0.00000000000E+00  0.39999999674E+01  0.40000000000E+01  0.51100000000E-03 0. -1.
    9000002   -1    0    0    0    0 -0.00000000000E+00 -0.00000000000E+00  0.00000000000E+00  0.93800000000E+00  0.93800000000E+00 0.  1.
         11    1    1    2    0    0  0.25319871999E-02 -0.16271560148E-01  0.15439293518E+00  0.15526948890E+00  0.51100000000E-03 0. -1.
    9000002    1    1    2    0    0 -0.66108206181E-01  0.37671713352E+00  0.98464487613E-01  0.10177550535E+01  0.93800000000E+00 0.  1.
         22    1    1    2    0    0  0.63576218981E-01 -0.36044557337E+00  0.37471425446E+01  0.37649754576E+01  0.00000000000E+00 0. -1.
</event>
<event>
 5    1  0.3241783E+002  0.1569076E+01  0.7818608E-02  0.3387627E+00
         11   -1    0    0    0    0  0.00000000000E+00  0.00000000000E+00  0.39999999674E+01  0.40000000000E+01  0.51100000000E-03 0. -1.
    9000002   -1    0    0    0    0 -0.00000000000E+00 -0.00000000000E+00  0.00000000000E+00  0.93800000000E+00  0.93800000000E+00 0. -1.
         11    1    1    2    0    0  0.38958899565E-01  0.14623219099E+00  0.13546218259E+01  0.13630488626E+01  0.51100000000E-03 0. -1.
    9000002    1    1    2    0    0  0.14609814667E+00  0.95231403382E-01  0.43201869532E-01  0.95505187827E+00  0.93800000000E+00 0. -1.
         22    1    1    2    0    0 -0.18505704623E+00 -0.24146359437E+00  0.26021762719E+01  0.26198992591E+01  0.00000000000E+00 0. -1.
</event>
<event>
 5    1  0.3241783E+002  0.1599676E+01  0.7818608E-02  0.3353715E+00
         11   -1    0    0    0    0  0.00000000000E+00  0.00000000000E+00  0.39999999674E+01  0.40000000000E+01  0.51100000000E-03 0. -1.
    9000002   -1    0    0    0    0 -0.00000000000E+00 -0.00000000000E+00  0.00000000000E+00  0.93800000000E+00  0.93800000000E+00 0. -1.
         11    1    1    2    0    0  0.20646985787E-02 -0.39354823055E-01  0.58178070048E+00  0.58311414805E+00  0.51100000000E-03 0. -1.
    9000002    1    1    2    0    0 -0.18012716263E-01  0.26940819943E+00  0.48508266136E-01  0.97729334785E+00  0.93800000000E+00 0. -1.
         22    1    1    2    0    0  0.15948017684E-01 -0.23005337638E+00  0.33697110007E+01  0.33775925041E+01  0.00000000000E+00 0. -1.
</event>
<event>
 5    1  0.3241783E+002  0.1599630E+01  0.7818608E-02  0.3353765E+00
         11   -1    0    0    0    0  0.00000000000E+00  0.00000000000E+00  0.39999999674E+01  0.40000000000E+01  0.51100000000E-03 0.  1.
    9000002   -1    0    0    0    0 -0.00000000000E+00 -0.00000000000E+00  0.00000000000E+00  0.93800000000E+00  0.93800000000E+00 0.  1.
         11    1    1    2    0    0  0.17331421090E+00  0.17968564551E+00  0.20684618820E+01  0.20834729577E+01  0.51100000000E-03 0.  1.
    9000002    1    1    2    0    0 -0.31221860816E+00 -0.32496908937E+00  0.13798634230E+00  0.10497473977E+01  0.93800000000E+00 0.  1.
         22    1    1    2    0    0  0.13890439726E+00  0.14528344386E+00  0.17935517431E+01  0.18047796446E+01  0.00000000000E+00 0.  1.
</event>
<event>
 5    1  0.3241783E+002  0.1599673E+01  0.7818608E-02  0.3353719E+00
         11   -1    0    0    0    0  0.00000000000E+00  0.00000000000E+00  0.39999999674E+01  0.40000000000E+01  0.51100000000E-03 0.  1.
    9000002   -1    0    0    0    0 -0.00000000000E+00 -0.00000000000E+00  0.00000000000E+00  0.93800000000E+00  0.93800000000E+00 0.  1.
         11    1    1    2    0    0 -0.21044233320E-01 -0.12100422086E-02  0.16268058629E+00  0.16404133087E+00  0.51100000000E-03 0.  1.
    9000002    1    1    2    0    0  0.50357719421E+00  0.96056997675E-02  0.17377105052E+00  0.10787597684E+01  0.93800000000E+00 0.  1.
         22    1    1    2    0    0 -0.48253296089E+00 -0.83956575589E-02  0.36635483305E+01  0.36951989007E+01  0.00000000000E+00 0.  1.
</event>
<event>
 5    1  0.3241783E+002  0.1599658E+01  0.7818608E-02  0.3353735E+00
         11   -1    0    0    0    0  0.00000000000E+00  0.00000000000E+00  0.39999999674E+01  0.40000000000E+01  0.51100000000E-03 0.  1.
    9000002   -1    0    0    0    0 -0.00000000000E+00 -0.00000000000E+00  0.00000000000E+00  0.93800000000E+00  0.93800000000E+00 0.  1.
         11    1    1    2    0    0  0.90995550030E-01  0.32506155998E+00  0.21126214733E+01  0.21394193040E+01  0.51100000000E-03 0.  1.
    9000002    1    1    2    0    0 -0.16370513554E+00 -0.56879594292E+00  0.24402261126E+00  0.11356580607E+01  0.93800000000E+00 0.  1.
         22    1    1    2    0    0  0.72709585513E-01  0.24373438295E+00  0.16433558828E+01  0.16629226352E+01  0.00000000000E+00 0.  1.
</event>
<event>
 5    1  0.3241783E+002  0.1549658E+01  0.7818608E-02  0.3409884E+00
         11   -1    0    0    0    0  0.00000000000E+00  0.00000000000E+00  0.39999999674E+01  0.40000000000E+01  0.51100000000E-03 0.  1.
    9000002   -1    0    0    0    0 -0.00000000000E+00 -0.00000000000E+00  0.00000000000E+00  0.93800000000E+00  0.93800000000E+00 0. -1.
         11    1    1    2    0    0 -0.78628325959E-01 -0.71502221617E-01  0.11925869702E+00  0.15974316660E+00  0.51100000000E-03 0.  1.
    9000002    1    1    2    0    0  0.27320657669E+00 -0.83354475733E-02  0.89409643470E-01  0.98109601853E+00  0.93800000000E+00 0. -1.
         22    1    1    2    0    0 -0.19457825073E+00  0.79837669190E-01  0.37913316269E+01  0.37971608149E+01  0.00000000000E+00 0.  1.
</event>
<event>
 5    1  0.3241783E+002  0.1599672E+01  0.7818608E-02  0.3353719E+00
         11   -1    0    0    0    0  0.00000000000E+00  0.00000000000E+00  0.39999999674E+01  0.40000000000E+01  0.51100000000E-03 0. -1.
    9000002   -1    0    0    0    0 -0.00000000000E+00 -0.00000000000E+00  0.00000000000E+00  0.93800000000E+00  0.93800000000E+00 0. -1.
         11    1    1    2    0    0  0.53634164952E-01  0.10684354591E+00  0.11438955191E+01  0.11501258134E+01  0.51100000000E-03 0. -1.
    9000002    1    1    2    0    0 -0.18257786475E+00 -0.37087838986E+00  0.11547161565E+00  0.10315343672E+01  0.93800000000E+00 0. -1.
         22    1    1    2    0    0  0.12894369980E+00  0.26403484395E+00  0.27406328326E+01  0.27563398193E+01  0.00000000000E+00 0. -1.
</event>
<event>
 5    1  0.3241783E+002  0.1599677E+01  0.7818608E-02  0.3353714E+00
         11   -1    0    0    0    0  0.00000000000E+00  0.00000000000E+00  0.39999999674E+01  0.40000000000E+01  0.51100000000E-03 0. -1.
    9000002   -1    0    0    0    0 -0.00000000000E+00 -0.00000000000E+00  0.00000000000E+00  0.93800000000E+00  0.93800000000E+00 0.  1.
         11    1    1    2    0    0 -0.58428297667E-01  0.64360051135E-01  0.86246260908E+00  0.86683221867E+00  0.51100000000E-03 0.  1.
    9000002    1    1    2    0    0  0.26505294969E+00 -0.28959497367E+00  0.10385814254E+00  0.10221295557E+01  0.93800000000E+00 0.  1.
         22    1    1    2    0    0 -0.20662465203E+00  0.22523492253E+00  0.30336792157E+01  0.30490382256E+01  0.00000000000E+00 0. -1.
</event>
<event>
 5    1  0.3241783E+002  0.1599677E+01  0.7818608E-02  0.3353714E+00
         11   -1    0    0    0    0  0.00000000000E+00  0.00000000000E+00  0.39999999674E+01  0.40000000000E+01  0.51100000000E-03 0. -1.
    9000002   -1    0    0    0    0 -0.00000000000E+00 -0.00000000000E+00  0.00000000000E+00  0.93800000000E+00  0.93800000000E+00 0.  1.
         11    1    1    2    0    0  0.26619898276E+00  0.35328521135E-01  0.16304243965E+01  0.16523903826E+01  0.51100000000E-03 0. -1.
    9000002    1    1    2    0    0 -0.60949015659E+00 -0.80013135615E-01  0.26449190688E+00  0.11522501125E+01  0.93800000000E+00 0.  1.
         22    1    1    2    0    0  0.34329117383E+00  0.44684614480E-01  0.21050836640E+01  0.21333595049E+01  0.00000000000E+00 0. -1.
</event>
<event>
 5    1  0.3241783E+002  0.1599213E+01  0.7818608E-02  0.3354218E+00
         11   -1    0    0    0    0  0.00000000000E+00  0.00000000000E+00  0.39999999674E+01  0.40000000000E+01  0.51100000000E-03 0.  1.
    9000002   -1    0    0    0    0 -0.00000000000E+00 -0.00000000000E+00  0.00000000000E+00  0.93800000000E+00  0.93800000000E+00 0. -1.
         11    1    1    2    0    0  0.56537229934E-01 -0.22849048905E+00  0.19884474839E+01  0.20023306468E+01  0.51100000000E-03 0.  1.
    9000002    1    1    2    0    0 -0.96766464781E-01  0.48878695751E+00  0.17032702112E+00  0.10757005776E+01  0.93800000000E+00 0. -1.
         22    1    1    2    0    0  0.40229234847E-01 -0.26029646846E+00  0.18412254624E+01  0.18599687756E+01  0.00000000000E+00 0.  1.
</event>
<event>
 5    1  0.3241783E+002  0.1599527E+01  0.7818608E-02  0.3353877E+00
         11   -1    0    0    0    0  0.00000000000E+00  0.00000000000E+00  0.39999999674E+01  0.40000000000E+01  0.51100000000E-03 0. -1.
    9000002   -1    0    0    0    0 -0.00000000000E+00 -0.00000000000E+00  0.00000000000E+00  0.93800000000E+00  0.93800000000E+00 0.  1.
         11    1    1    2    0    0  0.87633791613E-01  0.17932859038E-03  0.42711553159E+00  0.43601336223E+00  0.51100000000E-03 0. -1.
    9000002    1    1    2    0    0 -0.72358919741E+00 -0.79847754895E-01  0.38187705029E+00  0.12472494025E+01  0.93800000000E+00 0.  1.
         22    1    1    2    0    0  0.63595540580E+00  0.79668426304E-01  0.31910073855E+01  0.32547372352E+01  0.00000000000E+00 0. -1.
</event>
<event>
 5    1  0.3241783E+002  0.1599677E+01  0.7818608E-02  0.3353714E+00
         11   -1    0    0    0    0  0.00000000000E+00  0.00000000000E+00  0.39999999674E+01  0.40000000000E+01  0.51100000000E-03 0. -1.
    9000002   -1    0    0    0    0 -0.00000000000E+00 -0.00000000000E+00  0.00000000000E+00  0.93800000000E+00  0.93800000000E+00 0. -1.
         11    1    1    2    0    0 -0.10803031593E+00  0.10053588922E+00  0.10428413474E+01  0.10532313853E+01  0.51100000000E-03 0.  1.
    9000002    1    1    2    0    0  0.39245237217E+00 -0.36747430165E+00  0.19919054160E+00  0.10993530364E+01  0.93800000000E+00 0. -1.
         22    1    1    2    0    0 -0.28442205623E+00  0.26693841243E+00  0.27579680784E+01  0.27854155783E+01  0.00000000000E+00 0. -1.
</event>
<event>
 5    1  0.3241783E+002  0.1599621E+01  0.7818608E-02  0.3353775E+00
         11   -1    0    0    0    0  0.00000000000E+00  0.00000000000E+00  0.39999999674E+01  0.40000000000E+01  0.51100000000E-03 0. -1.
    9000002   -1    0    0    0    0 -0.00000000000E+00 -0.00000000000E+00  0.00000000000E+00  0.93800000000E+00  0.93800000000E+00 0.  1.
         11    1    1    2    0    0 -0.20441235881E+00  0.29294366915E+00  0.22569032380E+01  0.22849973507E+01  0.51100000000E-03 0. -1.
    9000002    1    1    2    0    0  0.33127667155E+00 -0.47743306733E+00  0.23472951749E+00  0.11281083783E+01  0.93800000000E+00 0.  1.
         22    1    1    2    0    0 -0.12686431274E+00  0.18448939817E+00  0.15083672118E+01  0.15248942710E+01  0.00000000000E+00 0. -1.
</event>
<event>
 5    1  0.3241783E+002  0.1599669E+01  0.7818608E-02  0.3353722E+00
         11   -1    0    0    0    0  0.00000000000E+00  0.00000000000E+00  0.39999999674E+01  0.40000000000E+01  0.51100000000E-03 0.  1.
    9000002   -1    0    0    0    0 -0.00000000000E+00 -0.00000000000E+00  0.00000000000E+00  0.93800000000E+00  0.93800000000E+00 0.  1.
         11    1    1    2    0    0  0.44458010460E-01  0.55552532590E-01  0.10149114589E+01  0.10174026386E+01  0.51100000000E-03 0.  1.
    9000002    1    1    2    0    0 -0.18116296222E+00 -0.20823741662E+00  0.50720039366E-01  0.97908087662E+00  0.93800000000E+00 0.  1.
         22    1    1    2    0    0  0.13670495176E+00  0.15268488403E+00  0.29343684691E+01  0.29415164848E+01  0.00000000000E+00 0.  1.
</event>
<event>
 5    1  0.3241783E+002  0.1599286E+01  0.7818608E-02  0.3354138E+00
         11   -1    0    0    0    0  0.00000000000E+00  0.00000000000E+00  0.39999999674E+01  0.40000000000E+01  0.51100000000E-03 0.  1.
    9000002   -1    0    0    0    0 -0.00000000000E+00 -0.00000000000E+00  0.00000000000E+00  0.93800000000E+00  0.93800000000E+00 0. -1.
         11    1    1    2    0    0  0.76111531788E-01 -0.20786732005E-01  0.11109484618E+01  0.11137467394E+01  0.51100000000E-03 0.  1.
    9000002    1    1    2    0    0 -0.30541576625E+00  0.13986344620E+00  0.75857990901E-01  0.99921919950E+00  0.93800000000E+00 0. -1.
         22    1    1    2    0    0  0.22930423446E+00 -0.11907671420E+00  0.28131935146E+01  0.28250340611E+01  0.00000000000E+00 0.  1.
</event>
<event>
 5    1  0.3241783E+002  0.1599658E+01  0.7818608E-02  0.3353734E+00
         11   -1    0    0    0    0  0.00000000000E+00  0.00000000000E+00  0.39999999674E+01  0.40000000000E+01  0.51100000000E-03 0. -1.
    9000002   -1    0    0    0    0 -0.00000000000E+00 -0.00000000000E+00  0.00000000000E+00  0.93800000000E+00  0.93800000000E+00 0.  1.
         11    1    1    2    0    0 -0.19538027240E-01  0.53647023619E-02  0.26270709131E+00  0.26348774447E+00  0.51100000000E-03 0. -1.
    9000002    1    1    2    0    0  0.30664679193E+00 -0.44702011045E-01  0.64137850580E-01  0.98994352802E+00  0.93800000000E+00 0.  1.
         22    1    1    2    0    0 -0.28710876469E+00  0.39337308683E-01  0.36731550255E+01  0.36845687275E+01  0.00000000000E+00 0. -1.
</event>
<event>
 5    1  0.3241783E+002  0.1596139E+01  0.7818608E-02  0.3357564E+00
         11   -1    0    0    0    0  0.00000000000E+00  0.00000000000E+00  0.39999999674E+01  0.40000000000E+01  0.51100000000E-03 0. -1.
    9000002   -1    0    0    0    0 -0.00000000000E+00 -0.00000000000E+00  0.00000000000E+00  0.93800000000E+00  0.93800000000E+00 0.  1.
         11    1    1    2    0    0 -0.41722326730E-01  0.10468695477E+00  0.69803309954E+00  0.70707183527E+00  0.51100000000E-03 0. -1.
    9000002    1    1    2    0    0  0.96263150324E-01 -0.31169876424E+00  0.73991760528E-01  0.99586218643E+00  0.93800000000E+00 0.  1.
         22    1    1    2    0    0 -0.54540823594E-01  0.20701180947E+00  0.32279751073E+01  0.32350659783E+01  0.00000000000E+00 0. -1.
</event>
<event>
 5    1  0.3241783E+002  0.1599376E+01  0.7818608E-02  0.3354041E+00
         11   -1    0    0    0    0  0.00000000000E+00  0.00000000000E+00  0.39999999674E+01  0.40000000000E+01  0.51100000000E-03 0.  1.
    9000002   -1    0    0    0    0 -0.00000000000E+00 -0.00000000000E+00  0.00000000000E+00  0.93800000000E+00  0.93800000000E+00 0. -1.
         11    1    1    2    0    0  0.10520210352E+00 -0.22403019040E-01  0.13423206437E+01  0.13466233139E+01  0.51100000000E-03 0.  1.
    9000002    1    1    2    0    0 -0.34969755159E+00  0.10385521818E+00  0.89621596270E-01  0.10104208601E+01  0.93800000000E+00 0. -1.
         22    1    1    2    0    0  0.24449544808E+00 -0.81452199137E-01  0.25680577273E+01  0.25809558260E+01  0.00000000000E+00 0.  1.
</event>
<event>
 5    1  0.3241783E+002  0.1551568E+01  0.7818608E-02  0.3407668E+00
         11   -1    0    0    0    0  0.00000000000E+00  0.00000000000E+00  0.39999999674E+01  0.40000000000E+01  0.51100000000E-03 0.  1.
    9000002   -1    0    0    0    0 -0.00000000000E+00 -0.00000000000E+00  0.00000000000E+00  0.93800000000E+00  0.93800000000E+00 0.  1.
         11    1    1    2    0    0 -0.57431454226E-01 -0.18674708527E+00  0.68377368108E+00  0.71113961629E+00  0.51100000000E-03 0.  1.
    9000002    1    1    2    0    0 -0.11419426927E+00  0.85768563919E-02  0.44728569531E-01  0.94602248310E+00  0.93800000000E+00 0.  1.
         22    1    1    2    0    0  0.17162572349E+00  0.17817022887E+00  0.32714977167E+01  0.32808379006E+01  0.00000000000E+00 0.  1.
</event>
<event>
 5    1  0.3241783E+002  0.1599330E+01  0.7818608E-02  0.3354091E+00
         11   -1    0    0    0    0  0.00000000000E+00  0.00000000000E+00  0.39999999674E+01  0.40000000000E+01  0.51100000000E-03 0.  1.
    9000002   -1    0    0    0    0 -0.00000000000E+00 -0.00000000000E+00  0.00000000000E+00  0.93800000000E+00  0.93800000000E+00 0. -1.
         11    1    1    2    0    0 -0.44485828986E-02 -0.11918171259E-01  0.14651338438E+00  0.14706551472E+00  0.51100000000E-03 0.  1.
    9000002    1    1    2    0    0  0.26496880719E+00  0.14490982304E+00  0.61129213169E-01  0.98731358053E+00  0.93800000000E+00 0. -1.
         22    1    1    2    0    0 -0.26052022429E+00 -0.13299165178E+00  0.37923573698E+01  0.38036209048E+01  0.00000000000E+00 0.  1.
</event>
<event>
 5    1  0.3241783E+002  0.1580408E+01  0.7818608E-02  0.3374907E+00
         11   -1    0    0    0    0  0.00000000000E+00  0.00000000000E+00  0.39999999674E+01  0.40000000000E+01  0.51100000000E-03 0. -1.
    9000002   -1    0    0    0    0 -0.00000000000E+00 -0.00000000000E+00  0.00000000000E+00  0.93800000000E+00  0.93800000000E+00 0. -1.
         11    1    1    2    0    0  0.67202000846E-02  0.41801465336E-01  0.52701198440E-01  0.67603261988E-01  0.51100000000E-03 0. -1.
    9000002    1    1    2    0    0 -0.22821558030E+00 -0.70224459859E-01  0.52643608210E-01  0.96934471440E+00  0.93800000000E+00 0. -1.
         22    1    1    2    0    0  0.22149538021E+00  0.28422994523E-01  0.38946551607E+01  0.39010520236E+01  0.00000000000E+00 0. -1.
</event>
<event>
 5    1  0.3241783E+002  0.1599563E+01  0.7818608E-02  0.3353837E+00
         11   -1    0    0    0    0  0.00000000000E+00  0.00000000000E+00  0.39999999674E+01  0.40000000000E+01  0.51100000000E-03 0. -1.
    9000002   -1    0    0    0    0 -0.00000000000E+00 -0.00000000000E+00  0.00000000000E+00  0.93800000000E+00  0.93800000000E+00 0.  1.
         11    1    1    2    0    0 -0.15630776949E-02  0.76025594407E-01  0.11227765073E+01  0.11253486930E+01  0.51100000000E-03 0. -1.
    9000002    1    1    2    0    0  0.39334052718E-01 -0.28953918780E+00  0.57005818633E-01  0.98411065045E+00  0.93800000000E+00 0.  1.
         22    1    1    2    0    0 -0.37770975023E-01  0.21351359339E+00  0.28202176414E+01  0.28285406566E+01  0.00000000000E+00 0. -1.
</event>
<event>
 5    1  0.3241783E+002  0.1599656E+01  0.7818608E-02  0.3353737E+00
         11   -1    0    0    0    0  0.00000000000E+00  0.00000000000E+00  0.39999999674E+01  0.40000000000E+01  0.51100000000E-03 0.  1.
    9000002   -1    0    0    0    0 -0.00000000000E+00 -0.00000000000E+00  0.00000000000E+00  0.93800000000E+00  0.93800000000E+00 0.  1.
         11    1    1    2    0    0  0.34022308051E-01  0.86018150701E-01  0.10182055391E+01  0.10223988560E+01  0.51100000000E-03 0.  1.
    9000002    1    1    2    0    0 -0.14816469920E+00 -0.33666439283E+00  0.90918063304E-01  0.10116352039E+01  0.93800000000E+00 0.  1.
         22    1    1    2    0    0  0.11414239115E+00  0.25064624213E+00  0.28908763649E+01  0.29039659401E+01  0.00000000000E+00 0.  1.
</event>
<event>
 5    1  0.3241783E+002  0.1599676E+01  0.7818608E-02  0.3353715E+00
         11   -1    0    0    0    0  0.00000000000E+00  0.00000000000E+00  0.39999999674E+01  0.40000000000E+01  0.51100000000E-03 0.  1.
    9000002   -1    0    0    0    0 -0.00000000000E+00 -0.00000000000E+00  0.00000000000E+00  0.93800000000E+00  0.93800000000E+00 0.  1.
         11    1    1    2    0    0  0.30282481439E-01  0.10493744932E-01  0.53375933345E+00  0.53472089405E+00  0.51100000000E-03 0.  1.
    9000002    1    1    2    0    0 -0.22011446757E+00 -0.77195954837E-01  0.36099718327E-01  0.96724184356E+00  0.93800000000E+00 0.  1.
         22    1    1    2    0    0  0.18983198614E+00  0.66702209906E-01  0.34301409156E+01  0.34360372624E+01  0.00000000000E+00 0.  1.
</event>
<event>
 5    1  0.3241783E+002  0.1599622E+01  0.7818608E-02  0.3353774E+00
         11   -1    0    0    0    0  0.00000000000E+00  0.00000000000E+00  0.39999999674E+01  0.40000000000E+01  0.51100000000E-03 0.  1.
    9000002   -1    0    0    0    0 -0.00000000000E+00 -0.00000000000E+00  0.00000000000E+00  0.93800000000E+00  0.93800000000E+00 0.  1.
         11    1    1    2    0    0  0.16035938331E-01 -0.30072372854E-01  0.50533656356E+00  0.50648475053E+00  0.51100000000E-03 0.  1.
    9000002    1    1    2    0    0 -0.88737374401E-01  0.26403650852E+00  0.51704656171E-01  0.97985048396E+00  0.93800000000E+00 0.  1.
         22    1    1    2    0    0  0.72701436070E-01 -0.23396413567E+00  0.34429587476E+01  0.34516647655E+01  0.00000000000E+00 0.  1.
</event>
<event>
 5    1  0.3241783E+002  0.1598952E+01  0.7818608E-02  0.3354502E+00
         11   -1    0    0    0    0  0.00000000000E+00  0.00000000000E+00  0.39999999674E+01  0.40000000000E+01  0.51100000000E-03 0. -1.
    9000002   -1    0    0    0    0 -0.00000000000E+00 -0.00000000000E+00  0.00000000000E+00  0.93800000000E+00  0.93800000000E+00 0. -1.
         11    1    1    2    0    0  0.15336889555E+00 -0.44976247974E-01  0.13498856448E+01  0.13593146788E+01  0.51100000000E-03 0. -1.
    9000002    1    1    2    0    0 -0.37907346014E+00  0.67478973353E-01  0.10040739815E+00  0.10189090959E+01  0.93800000000E+00 0. -1.
         22    1    1    2    0    0  0.22570456459E+00 -0.22502725379E-01  0.25497069244E+01  0.25597762253E+01  0.00000000000E+00 0. -1.
</event>
<event>
 5    1  0.3241783E+002  0.1598337E+01  0.7818608E-02  0.3355170E+00
         11   -1    0    0    0    0  0.00000000000E+00  0.00000000000E+00  0.39999999674E+01  0.40000000000E+01  0.51100000000E-03 0.  1.
    9000002   -1    0    0    0    0 -0.00000000000E+00 -0.00000000000E+00  0.00000000000E+00  0.93800000000E+00  0.93800000000E+00 0. -1.
         11    1    1    2    0    0 -0.12774221427E-01  0.31052488451E+00  0.23300452594E+01  0.23506807645E+01  0.51100000000E-03 0.  1.
    9000002    1    1    2    0    0 -0.35316307936E-01 -0.54726490084E+00  0.20892651477E+00  0.11064539764E+01  0.93800000000E+00 0. -1.
         22    1    1    2    0    0  0.48090529363E-01  0.23674001633E+00  0.14610281932E+01  0.14808652591E+01  0.00000000000E+00 0.  1.
</event>
<event>
 5    1  0.3241783E+002  0.1599552E+01  0.7818608E-02  0.3353850E+00
         11   -1    0    0    0    0  0.00000000000E+00  0.00000000000E+00  0.39999999674E+01  0.40000000000E+01  0.51100000000E-03 0.  1.
    9000002   -1    0    0    0    0 -0.00000000000E+00 -0.00000000000E+00  0.00000000000E+00  0.93800000000E+00  0.93800000000E+00 0. -1.
         11    1    1    2    0    0 -0.98737196564E-01  0.53055959883E-01  0.11321664032E+01  0.11377016280E+01  0.51100000000E-03 0.  1.
    9000002    1    1    2    0    0  0.31940195084E+00 -0.21945348578E+00  0.10124206316E+00  0.10199369559E+01  0.93800000000E+00 0. -1.
         22    1    1    2    0    0 -0.22066475428E+00  0.16639752590E+00  0.27665915010E+01  0.27803614161E+01  0.00000000000E+00 0.  1.
</event>
<event>
 5    1  0.3241783E+002  0.1587915E+01  0.7818608E-02  0.3366585E+00
         11   -1    0    0    0    0  0.00000000000E+00  0.00000000000E+00  0.39999999674E+01  0.40000000000E+01  0.51100000000E-03 0.  1.
    9000002   -1    0    0    0    0 -0.00000000000E+00 -0.00000000000E+00  0.00000000000E+00  0.93800000000E+00  0.93800000000E+00 0.  1.
         11    1    1    2    0    0 -0.39978515164E-01  0.23543509590E-01  0.13761950816E+00  0.14523074284E+00  0.51100000000E-03 0.  1.
    9000002    1    1    2    0    0 -0.18077780205E+00 -0.26133500083E+00  0.76830610303E-01  0.99333958899E+00  0.93800000000E+00 0.  1.
         22    1    1    2    0    0  0.22075631721E+00  0.23779149124E+00  0.37855498489E+01  0.37994296682E+01  0.00000000000E+00 0.  1.
</event>
<event>
 5    1  0.3241783E+002  0.1599358E+01  0.7818608E-02  0.3354060E+00
         11   -1    0    0    0    0  0.00000000000E+00  0.00000000000E+00  0.39999999674E+01  0.40000000000E+01  0.51100000000E-03 0.  1.
    9000002   -1    0    0    0    0 -0.00000000000E+00 -0.00000000000E+00  0.00000000000E+00  0.93800000000E+00  0.93800000000E+00 0. -1.
         11    1    1    2    0    0  0.85837111153E-01 -0.15224601509E+00  0.13727244247E+01  0.13838061519E+01  0.51100000000E-03 0.  1.
    9000002    1    1    2    0    0 -0.21004477949E+00  0.38062708822E+00  0.12835231588E+00  0.10417840979E+01  0.93800000000E+00 0. -1.
         22    1    1    2    0    0  0.12420766834E+00 -0.22838107314E+00  0.24989232267E+01  0.25124097501E+01  0.00000000000E+00 0.  1.
</event>
<event>
 5    1  0.3241783E+002  0.1587018E+01  0.7818608E-02  0.3367575E+00
         11   -1    0    0    0    0  0.00000000000E+00  0.00000000000E+00  0.39999999674E+01  0.40000000000E+01  0.51100000000E-03 0.  1.
    9000002   -1    0    0    0    0 -0.00000000000E+00 -0.00000000000E+00  0.00000000000E+00  0.93800000000E+00  0.93800000000E+00 0.  1.
         11    1    1    2    0    0  0.48205703614E-01 -0.81482159707E-02  0.14478798959E+00  0.15282017646E+00  0.51100000000E-03 0.  1.
    9000002    1    1    2    0    0  0.84327713500E-01  0.16647569422E+00  0.32541303891E-01  0.95693691354E+00  0.93800000000E+00 0.  1.
         22    1    1    2    0    0 -0.13253341711E+00 -0.15832747824E+00  0.38226706739E+01  0.38282429100E+01  0.00000000000E+00 0.  1.
</event>
<event>
 5    1  0.3241783E+002  0.1589733E+01  0.7818608E-02  0.3364582E+00
         11   -1    0    0    0    0  0.00000000000E+00  0.00000000000E+00  0.39999999674E+01  0.40000000000E+01  0.51100000000E-03 0.  1.
    9000002   -1    0    0    0    0 -0.00000000000E+00 -0.00000000000E+00  0.00000000000E+00  0.93800000000E+00  0.93800000000E+00 0. -1.
         11    1    1    2    0    0 -0.67852097508E-01  0.54007731987E-01  0.11242568867E+01  0.11275968032E+01  0.51100000000E-03 0.  1.
    9000002    1    1    2    0    0  0.21833221517E+00  0.18998516274E+00  0.63606846228E-01  0.98369362564E+00  0.93800000000E+00 0. -1.
         22    1    1    2    0    0 -0.15048011766E+00 -0.24399289472E+00  0.28121362344E+01  0.28267095711E+01  0.00000000000E+00 0.  1.
</event>
<event>
 5    1  0.3241783E+002  0.1599649E+01  0.7818608E-02  0.3353744E+00
         11   -1    0    0    0    0  0.00000000000E+00  0.00000000000E+00  0.39999999674E+01  0.40000000000E+01  0.51100000000E-03 0.  1.
    9000002   -1    0    0    0    0 -0.00000000000E+00 -0.00000000000E+00  0.00000000000E+00  0.93800000000E+00  0.93800000000E+00 0.  1.
         11    1    1    2    0    0  0.64430307586E-01  0.10769376196E+00  0.97440479495E+00  0.98245314211E+00  0.51100000000E-03 0.  1.
    9000002    1    1    2    0    0 -0.25094108461E+00 -0.44411136259E+00  0.17845743447E+00  0.10825420944E+01  0.93800000000E+00 0.  1.
         22    1    1    2    0    0  0.18651077702E+00  0.33641760063E+00  0.28471377379E+01  0.28730047634E+01  0.00000000000E+00 0.  1.
</event>
<event>
 5    1  0.3241783E+002  0.1599676E+01  0.7818608E-02  0.3353715E+00
         11   -1    0    0    0    0  0.00000000000E+00  0.00000000000E+00  0.39999999674E+01  0.40000000000E+01  0.51100000000E-03 0.  1.
    9000002   -1    0    0    0    0 -0.00000000000E+00 -0.00000000000E+00  0.00000000000E+00  0.93800000000E+00  0.93800000000E+00 0.  1.
         11    1    1    2    0    0 -0.23785270789E-01 -0.13522968818E-01  0.39019821684E+00  0.39115664297E+00  0.51100000000E-03 0.  1.
    9000002    1    1    2    0    0  0.23797596876E+00  0.13847199720E+00  0.50461342967E-01  0.97887558088E+00  0.93800000000E+00 0.  1.
         22    1    1    2    0    0 -0.21419069797E+00 -0.12494902838E+00  0.35593404076E+01  0.35679677761E+01  0.00000000000E+00 0.  1.
</event>
<event>
 5    1  0.3241783E+002  0.1570442E+01  0.7818608E-02  0.3386083E+00
         11   -1    0    0    0    0  0.00000000000E+00  0.00000000000E+00  0.39999999674E+01  0.40000000000E+01  0.51100000000E-03 0. -1.
    9000002   -1    0    0    0    0 -0.00000000000E+00 -0.00000000000E+00  0.00000000000E+00  0.93800000000E+00  0.93800000000E+00 0.  1.
         11    1    1    2    0    0  0.27532117130E-01  0.17144676556E+00  0.25375356302E+01  0.25434699421E+01  0.51100000000E-03 0. -1.
    9000002    1    1    2    0    0  0.13810584921E+00 -0.17589635184E-01  0.34628144849E-01  0.94890765055E+00  0.93800000000E+00 0.  1.
         22    1    1    2    0    0 -0.16563796634E+00 -0.15385713037E+00  0.14278361923E+01  0.14456224074E+01  0.00000000000E+00 0. -1.
</event>
<event>
 5    1  0.3241783E+002  0.1599676E+01  0.7818608E-02  0.3353716E+00
         11   -1    0    0    0    0  0.00000000000E+00  0.00000000000E+00  0.39999999674E+01  0.40000000000E+01  0.51100000000E-03 0. -1.
    9000002   -1    0    0    0    0 -0.00000000000E+00 -0.00000000000E+00  0.00000000000E+00  0.93800000000E+00  0.93800000000E+00 0.  1.
         11    1    1    2    0    0  0.14661686265E+00 -0.85217633792E-01  0.17977420878E+01  0.18057229646E+01  0.51100000000E-03 0. -1.
    9000002    1    1    2    0    0 -0.32115108128E+00  0.18331771209E+00  0.91895696561E-01  0.10124387486E+01  0.93800000000E+00 0.  1.
         22    1    1    2    0    0  0.17453421864E+00 -0.98100078302E-01  0.21103621830E+01  0.21198382868E+01  0.00000000000E+00 0. -1.
</event>
<event>
 5    1  0.3241783E+002  0.1599461E+01  0.7818608E-02  0.3353949E+00
         11   -1    0    0    0    0  0.00000000000E+00  0.00000000000E+00  0.39999999674E+01  0.40000000000E+01  0.51100000000E-03 0. -1.
    9000002   -1    0    0    0    0 -0.00000000000E+00 -0.00000000000E+00  0.00000000000E+00  0.93800000000E+00  0.93800000000E+00 0.  1.
         11    1    1    2    0    0  0.92429285427E-01  0.27997448243E+00  0.19041088851E+01  0.19268004025E+01  0.51100000000E-03 0. -1.
    9000002    1    1    2    0    0 -0.16535782117E+00 -0.58154832830E+00  0.25550647229E+00  0.11448446290E+01  0.93800000000E+00 0.  1.
         22    1    1    2    0    0  0.72928535743E-01  0.30157384587E+00  0.18403846100E+01  0.18663549685E+01  0.00000000000E+00 0.  1.
</event>
<event>
 5    1  0.3241783E+002  0.1599498E+01  0.7818608E-02  0.3353909E+00
         11   -1    0    0    0    0  0.00000000000E+00  0.00000000000E+00  0.39999999674E+01  0.40000000000E+01  0.51100000000E-03 0.  1.
    9000002   -1    0    0    0    0 -0.00000000000E+00 -0.00000000000E+00  0.00000000000E+00  0.93800000000E+00  0.93800000000E+00 0. -1.
         11    1    1    2    0    0 -0.59441373410E-01  0.11570073065E+00  0.13581574171E+01  0.13643722976E+01  0.51100000000E-03 0.  1.
    9000002    1    1    2    0    0  0.20577226491E+00 -0.35688141510E+00  0.11479968293E+00  0.10308877420E+01  0.93800000000E+00 0. -1.
         22    1    1    2    0    0 -0.14633089150E+00  0.24118068445E+00  0.25270428674E+01  0.25427399603E+01  0.00000000000E+00 0.  1.
</event>
<event>
 5    1  0.3241783E+002  0.1599676E+01  0.7818608E-02  0.3353715E+00
         11   -1    0    0    0    0  0.00000000000E+00  0.00000000000E+00  0.39999999674E+01  0.40000000000E+01  0.51100000000E-03 0.  1.
    9000002   -1    0    0    0    0 -0.00000000000E+00 -0.00000000000E+00  0.00000000000E+00  0.93800000000E+00  0.93800000000E+00 0.  1.
         11    1    1    2    0    0  0.17353092896E-01 -0.67954221950E-01  0.93262945560E+00  0.93526299439E+00  0.51100000000E-03 0.  1.
    9000002    1    1    2    0    0 -0.70253806794E-01  0.28807176187E+00  0.58634691356E-01  0.98549630359E+00  0.93800000000E+00 0.  1.
         22    1    1    2    0    0  0.52900713898E-01 -0.22011753992E+00  0.30087358204E+01  0.30172407020E+01  0.00000000000E+00 0.  1.
</event>
<event>
 5    1  0.3241783E+002  0.1599676E+01  0.7818608E-02  0.3353715E+00
         11   -1    0    0    0    0  0.00000000000E+00  0.00000000000E+00  0.39999999674E+01  0.40000000000E+01  0.51100000000E-03 0. -1.
    9000002   -1    0    0    0    0 -0.00000000000E+00 -0.00000000000E+00  0.00000000000E+00  0.93800000000E+00  0.93800000000E+00 0. -1.
         11    1    1    2    0    0 -0.28754022910E+00 -0.16683019519E+00  0.14974924648E+01  0.15339477307E+01  0.51100000000E-03 0. -1.
    9000002    1    1    2    0    0  0.68174729405E+00  0.39694983021E+00  0.45673528634E+00  0.13079754059E+01  0.93800000000E+00 0. -1.
         22    1    1    2    0    0 -0.39420706495E+00 -0.23011963502E+00  0.20457722162E+01  0.20960768634E+01  0.00000000000E+00 0. -1.
</event>
<event>
 5    1  0.3241783E+002  0.1595484E+01  0.7818608E-02  0.3358279E+00
         11   -1    0    0    0    0  0.00000000000E+00  0.00000000000E+00  0.39999999674E+01  0.40000000000E+01  0.51100000000E-03 0. -1.
    9000002   -1    0    0    0    0 -0.00000000000E+00 -0.00000000000E+00  0.00000000000E+00  0.93800000000E+00  0.93800000000E+00 0. -1.
         11    1    1    2    0    0 -0.28334871333E-01 -0.19778594698E-01  0.60902152914E+00  0.61000126378E+00  0.51100000000E-03 0. -1.
    9000002    1    1    2    0    0 -0.18125473684E+00  0.13480310672E+00  0.37015332362E-01  0.96552539689E+00  0.93800000000E+00 0. -1.
         22    1    1    2    0    0  0.20958960817E+00 -0.11502451202E+00  0.33539631059E+01  0.33624733393E+01  0.00000000000E+00 0. -1.
</event>
<event>
 5    1  0.3241783E+002  0.1599666E+01  0.7818608E-02  0.3353726E+00
         11   -1    0    0    0    0  0.00000000000E+00  0.00000000000E+00  0.39999999674E+01  0.40000000000E+01  0.51100000000E-03 0.  1.
    9000002   -1    0    0    0    0 -0.00000000000E+00 -0.00000000000E+00  0.00000000000E+00  0.93800000000E+00  0.93800000000E+00 0.  1.
         11    1    1    2    0    0  0.37721278237E-01 -0.29551298363E+00  0.17058317014E+01  0.17316503322E+01  0.51100000000E-03 0.  1.
    9000002    1    1    2    0    0 -0.73801703455E-01  0.64482251429E+00  0.29719233305E+00  0.11787323908E+01  0.93800000000E+00 0.  1.
         22    1    1    2    0    0  0.36080425218E-01 -0.34930953067E+00  0.19969759329E+01  0.20276172770E+01  0.00000000000E+00 0. -1.
</event>
<event>
 5    1  0.3241783E+002  0.1599676E+01  0.7818608E-02  0.3353715E+00
         11   -1    0    0    0    0  0.00000000000E+00  0.00000000000E+00  0.39999999674E+01  0.40000000000E+01  0.51100000000E-03 0.  1.
    9000002   -1    0    0    0    0 -0.00000000000E+00 -0.00000000000E+00  0.00000000000E+00  0.93800000000E+00  0.93800000000E+00 0. -1.
         11    1    1    2    0    0 -0.11212967354E+00 -0.49610723588E-01  0.12385636763E+01  0.12446182261E+01  0.51100000000E-03 0.  1.
    9000002    1    1    2    0    0  0.35106518027E+00  0.15847134177E+00  0.99886170148E-01  0.10189117596E+01  0.93800000000E+00 0. -1.
         22    1    1    2    0    0 -0.23893550672E+00 -0.10886061818E+00  0.26615501210E+01  0.26744700142E+01  0.00000000000E+00 0.  1.
</event>
<event>
 5    1  0.3241783E+002  0.1599676E+01  0.7818608E-02  0.3353715E+00
         11   -1    0    0    0    0  0.00000000000E+00  0.00000000000E+00  0.39999999674E+01  0.40000000000E+01  0.51100000000E-03 0.  1.
    9000002   -1    0    0    0    0 -0.00000000000E+00 -0.00000000000E+00  0.00000000000E+00  0.93800000000E+00  0.93800000000E+00 0.  1.
         11    1    1    2    0    0 -0.10972601227E+00 -0.51275303350E+00  0.26256420788E+01  0.26774898802E+01  0.51100000000E-03 0.  1.
    9000002    1    1    2    0    0  0.15224207533E+00  0.70826804320E+00  0.37762256053E+00  0.12438906981E+01  0.93800000000E+00 0.  1.
         22    1    1    2    0    0 -0.42516063056E-01 -0.19551500970E+00  0.99673532801E+00  0.10166194218E+01  0.00000000000E+00 0.  1.
</event>
<event>
 5    1  0.3241783E+002  0.1472879E+01  0.7818608E-02  0.3504055E+00
         11   -1    0    0    0    0  0.00000000000E+00  0.00000000000E+00  0.39999999674E+01  0.40000000000E+01  0.51100000000E-03 0. -1.
    9000002   -1    0    0    0    0 -0.00000000000E+00 -0.00000000000E+00  0.00000000000E+00  0.93800000000E+00  0.93800000000E+00 0.  1.
         11    1    1    2    0    0  0.32622842378E+00  0.22442692036E+00  0.14583521757E+01  0.15111531215E+01  0.51100000000E-03 0. -1.
    9000002    1    1    2    0    0  0.50581122301E-01  0.16073143140E-01  0.10021782412E+00  0.94483035945E+00  0.93800000000E+00 0.  1.
         22    1    1    2    0    0 -0.37680954608E+00 -0.24050006350E+00  0.24414299675E+01  0.24820165191E+01  0.00000000000E+00 0. -1.
</event>
<event>
 5    1  0.3241783E+002  0.1591526E+01  0.7818608E-02  0.3362612E+00
         11   -1    0    0    0    0  0.00000000000E+00  0.00000000000E+00  0.39999999674E+01  0.40000000000E+01  0.51100000000E-03 0.  1.
    9000002   -1    0    0    0    0 -0.00000000000E+00 -0.00000000000E+00  0.00000000000E+00  0.93800000000E+00  0.93800000000E+00 0. -1.
         11    1    1    2    0    0 -0.66456551186E-01 -0.27765336538E-01  0.53658120356E+00  0.54139360565E+00  0.51100000000E-03 0.  1.
    9000002    1    1    2    0    0 -0.58255799965E-01  0.23213075667E+00  0.44245476489E-01  0.96906144728E+00  0.93800000000E+00 0. -1.
         22    1    1    2    0    0  0.12471235115E+00 -0.20436542013E+00  0.34191732873E+01  0.34275449471E+01  0.00000000000E+00 0.  1.
</event>
<event>
 5    1  0.3241783E+002  0.1599670E+01  0.7818608E-02  0.3353722E+00
         11   -1    0    0    0    0  0.00000000000E+00  0.00000000000E+00  0.39999999674E+01  0.40000000000E+01  0.51100000000E-03 0.  1.
    9000002   -1    0    0    0    0 -0.00000000000E+00 -0.00000000000E+00  0.00000000000E+00  0.93800000000E+00  0.93800000000E+00 0. -1.
         11    1    1    2    0    0 -0.11081855545E+00  0.98019936463E-01  0.14868211052E+01  0.14941639536E+01  0.51100000000E-03 0.  1.
    9000002    1    1    2    0    0  0.28498913104E+00 -0.25169885365E+00  0.97281614675E-01  0.10167983233E+01  0.93800000000E+00 0. -1.
         22    1    1    2    0    0 -0.17417057559E+00  0.15367891719E+00  0.24158972475E+01  0.24270377231E+01  0.00000000000E+00 0.  1.
</event>
<event>
 5    1  0.3241783E+002  0.1599655E+01  0.7818608E-02  0.3353738E+00
         11   -1    0    0    0    0  0.00000000000E+00  0.00000000000E+00  0.39999999674E+01  0.40000000000E+01  0.51100000000E-03 0. -1.
    9000002   -1    0    0    0    0 -0.00000000000E+00 -0.00000000000E+00  0.00000000000E+00  0.93800000000E+00  0.93800000000E+00 0. -1.
         11    1    1    2    0    0 -0.10402803361E+00  0.26198774912E-01  0.13503186077E+01  0.13545732948E+01  0.51100000000E-03 0. -1.
    9000002    1    1    2    0    0  0.31281139529E+00 -0.64109714316E-01  0.68163701734E-01  0.99320255473E+00  0.93800000000E+00 0. -1.
         22    1    1    2    0    0 -0.20878336168E+00  0.37910939404E-01  0.25815176579E+01  0.25902241504E+01  0.00000000000E+00 0. -1.
</event>
<event>
 5    1  0.3241783E+002  0.1581428E+01  0.7818608E-02  0.3373770E+00
         11   -1    0    0    0    0  0.00000000000E+00  0.00000000000E+00  0.39999999674E+01  0.40000000000E+01  0.51100000000E-03 0.  1.
    9000002   -1    0    0    0    0 -0.00000000000E+00 -0.00000000000E+00  0.00000000000E+00  0.93800000000E+00  0.93800000000E+00 0. -1.
         11    1    1    2    0    0  0.27475197168E-01 -0.37975243709E-01  0.10858739254E+00  0.11827294083E+00  0.51100000000E-03 0.  1.
    9000002    1    1    2    0    0  0.67030472958E-01 -0.26755928156E+00  0.64892576978E-01  0.97986534789E+00  0.93800000000E+00 0. -1.
         22    1    1    2    0    0 -0.94505670126E-01  0.30553452527E+00  0.38265199978E+01  0.38398617113E+01  0.00000000000E+00 0.  1.
</event>
<event>
 5    1  0.3241783E+002  0.1553189E+01  0.7818608E-02  0.3405792E+00
         11   -1    0    0    0    0  0.00000000000E+00  0.00000000000E+00  0.39999999674E+01  0.40000000000E+01  0.51100000000E-03 0. -1.
    9000002   -1    0    0    0    0 -0.00000000000E+00 -0.00000000000E+00  0.00000000000E+00  0.93800000000E+00  0.93800000000E+00 0. -1.
         11    1    1    2    0    0  0.22584163472E+00  0.75971273357E-01  0.16949248679E+01  0.17115918460E+01  0.51100000000E-03 0. -1.
    9000002    1    1    2    0    0 -0.14495139142E-02  0.11045103150E+00  0.42852723259E-01  0.94545327084E+00  0.93800000000E+00 0. -1.
         22    1    1    2    0    0 -0.22439212080E+00 -0.18642230486E+00  0.22622223762E+01  0.22809548832E+01  0.00000000000E+00 0. -1.
</event>
<event>
 5    1  0.3241783E+002  0.1599676E+01  0.7818608E-02  0.3353715E+00
         11   -1    0    0    0    0  0.00000000000E+00  0.00000000000E+00  0.39999999674E+01  0.40000000000E+01  0.51100000000E-03 0. -1.
    9000002   -1    0    0    0    0 -0.00000000000E+00 -0.00000000000E+00  0.00000000000E+00  0.93800000000E+00  0.93800000000E+00 0.  1.
         11    1    1    2    0    0  0.61826348778E-01 -0.36021932856E-01  0.90631998792E+00  0.90914039547E+00  0.51100000000E-03 0. -1.
    9000002    1    1    2    0    0 -0.27119740032E+00  0.15803121350E+00  0.65812760405E-01  0.99131085630E+00  0.93800000000E+00 0.  1.
         22    1    1    2    0    0  0.20937105154E+00 -0.12200928064E+00  0.30278672190E+01  0.30375487482E+01  0.00000000000E+00 0.  1.
</event>
<event>
 5    1  0.3241783E+002  0.1599669E+01  0.7818608E-02  0.3353723E+00
         11   -1    0    0    0    0  0.00000000000E+00  0.00000000000E+00  0.39999999674E+01  0.40000000000E+01  0.51100000000E-03 0. -1.
    9000002   -1    0    0    0    0 -0.00000000000E+00 -0.00000000000E+00  0.00000000000E+00  0.93800000000E+00  0.93800000000E+00 0. -1.
         11    1    1    2    0    0 -0.69363812937E-02  0.26191106740E-01  0.45238771345E+00  0.45319862297E+00  0.51100000000E-03 0. -1.
    9000002    1    1    2    0    0  0.67997411367E-01 -0.24655159163E+00  0.43477822571E-01  0.97321408557E+00  0.93800000000E+00 0. -1.
         22    1    1    2    0    0 -0.61061030074E-01  0.22036048489E+00  0.35041344313E+01  0.35115872915E+01  0.00000000000E+00 0. -1.
</event>
<event>
 5    1  0.3241783E+002  0.1599671E+01  0.7818608E-02  0.3353721E+00
         11   -1    0    0    0    0  0.00000000000E+00  0.00000000000E+00  0.39999999674E+01  0.40000000000E+01  0.51100000000E-03 0.  1.
    9000002   -1    0    0    0    0 -0.00000000000E+00 -0.00000000000E+00  0.00000000000E+00  0.93800000000E+00  0.93800000000E+00 0.  1.
         11    1    1    2    0    0  0.56415053340E-01 -0.76153211955E-01  0.12158424618E+01  0.12195306979E+01  0.51100000000E-03 0.  1.
    9000002    1    1    2    0    0 -0.18960416831E+00  0.24080008535E+00  0.62708038373E-01  0.98879255652E+00  0.93800000000E+00 0.  1.
         22    1    1    2    0    0  0.13318911496E+00 -0.16464687340E+00  0.27214494672E+01  0.27296767456E+01  0.00000000000E+00 0.  1.
</event>
<event>
 5    1  0.3241783E+002  0.1599673E+01  0.7818608E-02  0.3353718E+00
         11   -1    0    0    0    0  0.00000000000E+00  0.00000000000E+00  0.39999999674E+01  0.40000000000E+01  0.51100000000E-03 0. -1.
    9000002   -1    0    0    0    0 -0.00000000000E+00 -0.00000000000E+00  0.00000000000E+00  0.93800000000E+00  0.93800000000E+00 0. -1.
         11    1    1    2    0    0 -0.19702590352E-01 -0.58052099514E-01  0.42064475078E+00  0.42508882108E+00  0.51100000000E-03 0. -1.
    9000002    1    1    2    0    0  0.18843031986E+00  0.51643300472E+00  0.20872916077E+00  0.11070776379E+01  0.93800000000E+00 0. -1.
         22    1    1    2    0    0 -0.16872772951E+00 -0.45838090521E+00  0.33706260558E+01  0.34058335410E+01  0.00000000000E+00 0. -1.
</event>
<event>
 5    1  0.3241783E+002  0.1576160E+01  0.7818608E-02  0.3379652E+00
         11   -1    0    0    0    0  0.00000000000E+00  0.00000000000E+00  0.39999999674E+01  0.40000000000E+01  0.51100000000E-03 0.  1.
    9000002   -1    0    0    0    0 -0.00000000000E+00 -0.00000000000E+00  0.00000000000E+00  0.93800000000E+00  0.93800000000E+00 0. -1.
         11    1    1    2    0    0  0.97912401921E-01  0.14329530142E+00  0.10683386540E+01  0.10823438098E+01  0.51100000000E-03 0.  1.
    9000002    1    1    2    0    0 -0.35056452644E+00  0.78077748947E-01  0.10587375035E+00  0.10099727091E+01  0.93800000000E+00 0. -1.
         22    1    1    2    0    0  0.25265212452E+00 -0.22137305037E+00  0.28257875630E+01  0.28456834811E+01  0.00000000000E+00 0.  1.
</event>
<event>
 5    1  0.3241783E+002  0.1594704E+01  0.7818608E-02  0.3359131E+00
         11   -1    0    0    0    0  0.00000000000E+00  0.00000000000E+00  0.39999999674E+01  0.40000000000E+01  0.51100000000E-03 0. -1.
    9000002   -1    0    0    0    0 -0.00000000000E+00 -0.00000000000E+00  0.00000000000E+00  0.93800000000E+00  0.93800000000E+00 0. -1.
         11    1    1    2    0    0  0.21202326959E-01 -0.99401339840E-01  0.13039111327E+01  0.13078664565E+01  0.51100000000E-03 0. -1.
    9000002    1    1    2    0    0  0.16137561721E+00  0.21428160628E+00  0.51712348218E-01  0.97697331774E+00  0.93800000000E+00 0. -1.
         22    1    1    2    0    0 -0.18257794416E+00 -0.11488026644E+00  0.26443764865E+01  0.26531602258E+01  0.00000000000E+00 0. -1.
</event>
<event>
 5    1  0.3241783E+002  0.1599521E+01  0.7818608E-02  0.3353883E+00
         11   -1    0    0    0    0  0.00000000000E+00  0.00000000000E+00  0.39999999674E+01  0.40000000000E+01  0.51100000000E-03 0.  1.
    9000002   -1    0    0    0    0 -0.00000000000E+00 -0.00000000000E+00  0.00000000000E+00  0.93800000000E+00  0.93800000000E+00 0.  1.
         11    1    1    2    0    0  0.12922243816E-01 -0.19890336782E+00  0.16218566295E+01  0.16340589713E+01  0.51100000000E-03 0.  1.
    9000002    1    1    2    0    0 -0.27397988490E-01  0.50426374629E+00  0.17487269328E+00  0.10795633536E+01  0.93800000000E+00 0.  1.
         22    1    1    2    0    0  0.14475744674E-01 -0.30536037847E+00  0.22032706446E+01  0.22243776751E+01  0.00000000000E+00 0.  1.
</event>
<event>
 5    1  0.3241783E+002  0.1599677E+01  0.7818608E-02  0.3353714E+00
         11   -1    0    0    0    0  0.00000000000E+00  0.00000000000E+00  0.39999999674E+01  0.40000000000E+01  0.51100000000E-03 0.  1.
    9000002   -1    0    0    0    0 -0.00000000000E+00 -0.00000000000E+00  0.00000000000E+00  0.93800000000E+00  0.93800000000E+00 0. -1.
         11    1    1    2    0    0  0.38084633055E+00 -0.42321095194E-01  0.18008859404E+01  0.18412021709E+01  0.51100000000E-03 0.  1.
    9000002    1    1    2    0    0 -0.75701848861E+00  0.83920385928E-01  0.42204911241E+00  0.12798785398E+01  0.93800000000E+00 0. -1.
         22    1    1    2    0    0  0.37617215806E+00 -0.41599290734E-01  0.17770649145E+01  0.18169192893E+01  0.00000000000E+00 0.  1.
</event>
<event>
 5    1  0.3241783E+002  0.1599666E+01  0.7818608E-02  0.3353725E+00
         11   -1    0    0    0    0  0.00000000000E+00  0.00000000000E+00  0.39999999674E+01  0.40000000000E+01  0.51100000000E-03 0. -1.
    9000002   -1    0    0    0    0 -0.00000000000E+00 -0.00000000000E+00  0.00000000000E+00  0.93800000000E+00  0.93800000000E+00 0. -1.
         11    1    1    2    0    0 -0.37430746906E-02  0.63321696280E-02  0.10942172950E+00  0.10966988186E+00  0.51100000000E-03 0. -1.
    9000002    1    1    2    0    0  0.16555103316E+00 -0.25769654306E+00  0.62630253464E-01  0.98872706119E+00  0.93800000000E+00 0. -1.
         22    1    1    2    0    0 -0.16180795847E+00  0.25136437343E+00  0.38279479844E+01  0.38396030569E+01  0.00000000000E+00 0. -1.
</event>
<event>
 5    1  0.3241783E+002  0.1599677E+01  0.7818608E-02  0.3353714E+00
         11   -1    0    0    0    0  0.00000000000E+00  0.00000000000E+00  0.39999999674E+01  0.40000000000E+01  0.51100000000E-03 0.  1.
    9000002   -1    0    0    0    0 -0.00000000000E+00 -0.00000000000E+00  0.00000000000E+00  0.93800000000E+00  0.93800000000E+00 0. -1.
         11    1    1    2    0    0  0.71182502575E-01  0.10511715003E+00  0.15190714483E+01  0.15243670457E+01  0.51100000000E-03 0. -1.
    9000002    1    1    2    0    0 -0.18415194704E+00 -0.27207773280E+00  0.72208422460E-01  0.99649199122E+00  0.93800000000E+00 0. -1.
         22    1    1    2    0    0  0.11296944447E+00  0.16696058277E+00  0.24087200966E+01  0.24171409631E+01  0.00000000000E+00 0.  1.
</event>
<event>
 5    1  0.3241783E+002  0.1599661E+01  0.7818608E-02  0.3353731E+00
         11   -1    0    0    0    0  0.00000000000E+00  0.00000000000E+00  0.39999999674E+01  0.40000000000E+01  0.51100000000E-03 0. -1.
    9000002   -1    0    0    0    0 -0.00000000000E+00 -0.00000000000E+00  0.00000000000E+00  0.93800000000E+00  0.93800000000E+00 0. -1.
         11    1    1    2    0    0  0.49768825298E-01  0.11266100514E-02  0.51343357077E+00  0.51584154344E+00  0.51100000000E-03 0. -1.
    9000002    1    1    2    0    0 -0.37101097898E+00 -0.31719334193E-01  0.93220520963E-01  0.10135034920E+01  0.93800000000E+00 0. -1.
         22    1    1    2    0    0  0.32124215368E+00  0.30592724141E-01  0.33933458756E+01  0.34086549646E+01  0.00000000000E+00 0. -1.
</event>
<event>
 5    1  0.3241783E+002  0.1593257E+01  0.7818608E-02  0.3360714E+00
         11   -1    0    0    0    0  0.00000000000E+00  0.00000000000E+00  0.39999999674E+01  0.40000000000E+01  0.51100000000E-03 0. -1.
    9000002   -1    0    0    0    0 -0.00000000000E+00 -0.00000000000E+00  0.00000000000E+00  0.93800000000E+00  0.93800000000E+00 0. -1.
         11    1    1    2    0    0 -0.24570430641E-01  0.32496811878E-01  0.11643023759E+00  0.12335319286E+00  0.51100000000E-03 0. -1.
    9000002    1    1    2    0    0  0.20713633846E+00 -0.16387184540E+00  0.51345573271E-01  0.97582775751E+00  0.93800000000E+00 0. -1.
         22    1    1    2    0    0 -0.18256590782E+00  0.13137503352E+00  0.38322241565E+01  0.38388190496E+01  0.00000000000E+00 0. -1.
</event>
<event>
 5    1  0.3241783E+002  0.1580232E+01  0.7818608E-02  0.3375103E+00
         11   -1    0    0    0    0  0.00000000000E+00  0.00000000000E+00  0.39999999674E+01  0.40000000000E+01  0.51100000000E-03 0. -1.
    9000002   -1    0    0    0    0 -0.00000000000E+00 -0.00000000000E+00  0.00000000000E+00  0.93800000000E+00  0.93800000000E+00 0. -1.
         11    1    1    2    0    0  0.45522563667E-01 -0.50587657990E-01  0.26132365857E+01  0.26141226308E+01  0.51100000000E-03 0. -1.
    9000002    1    1    2    0    0 -0.20939295242E-01 -0.16050713470E+00  0.31848591313E-01  0.95239662281E+00  0.93800000000E+00 0. -1.
         22    1    1    2    0    0 -0.24583268425E-01  0.21109479269E+00  0.13549147903E+01  0.13714807464E+01  0.00000000000E+00 0. -1.
</event>
<event>
 5    1  0.3241783E+002  0.1566044E+01  0.7818608E-02  0.3391064E+00
         11   -1    0    0    0    0  0.00000000000E+00  0.00000000000E+00  0.39999999674E+01  0.40000000000E+01  0.51100000000E-03 0.  1.
    9000002   -1    0    0    0    0 -0.00000000000E+00 -0.00000000000E+00  0.00000000000E+00  0.93800000000E+00  0.93800000000E+00 0. -1.
         11    1    1    2    0    0 -0.12921792730E+00  0.73643837435E-01  0.95207931964E+00  0.96362647303E+00  0.51100000000E-03 0.  1.
    9000002    1    1    2    0    0 -0.17028140184E+00  0.32864000567E-01  0.45298269380E-01  0.95497211035E+00  0.93800000000E+00 0. -1.
         22    1    1    2    0    0  0.29949932914E+00 -0.10650783800E+00  0.30026223783E+01  0.30194014166E+01  0.00000000000E+00 0.  1.
</event>
<event>
 5    1  0.3241783E+002  0.1518680E+01  0.7818608E-02  0.3446648E+00
         11   -1    0    0    0    0  0.00000000000E+00  0.00000000000E+00  0.39999999674E+01  0.40000000000E+01  0.51100000000E-03 0. -1.
    9000002   -1    0    0    0    0 -0.00000000000E+00 -0.00000000000E+00  0.00000000000E+00  0.93800000000E+00  0.93800000000E+00 0.  1.
         11    1    1    2    0    0  0.52848504579E-01 -0.16071592161E+00  0.42371897714E+00  0.45624621051E+00  0.51100000000E-03 0. -1.
    9000002    1    1    2    0    0  0.45471912398E+00 -0.27335936551E+00  0.27308513865E+00  0.11117168333E+01  0.93800000000E+00 0.  1.
         22    1    1    2    0    0 -0.50756762856E+00  0.43407528712E+00  0.33031958516E+01  0.33700369562E+01  0.00000000000E+00 0. -1.
</event>
<event>
 5    1  0.3241783E+002  0.1585866E+01  0.7818608E-02  0.3368849E+00
         11   -1    0    0    0    0  0.00000000000E+00  0.00000000000E+00  0.39999999674E+01  0.40000000000E+01  0.51100000000E-03 0.  1.
    9000002   -1    0    0    0    0 -0.00000000000E+00 -0.00000000000E+00  0.00000000000E+00  0.93800000000E+00  0.93800000000E+00 0. -1.
         11    1    1    2    0    0 -0.21243021669E+00 -0.97793727291E-01  0.21331393574E+01  0.21459203129E+01  0.51100000000E-03 0.  1.
    9000002    1    1    2    0    0  0.57661710029E+00  0.29768931727E+00  0.31174288769E+00  0.11824270963E+01  0.93800000000E+00 0. -1.
         22    1    1    2    0    0 -0.36418688361E+00 -0.19989558998E+00  0.15551177223E+01  0.16096525909E+01  0.00000000000E+00 0.  1.
</event>
<event>
 5    1  0.3241783E+002  0.1599676E+01  0.7818608E-02  0.3353715E+00
         11   -1    0    0    0    0  0.00000000000E+00  0.00000000000E+00  0.39999999674E+01  0.40000000000E+01  0.51100000000E-03 0.  1.
    9000002   -1    0    0    0    0 -0.00000000000E+00 -0.00000000000E+00  0.00000000000E+00  0.93800000000E+00  0.93800000000E+00 0.  1.
         11    1    1    2    0    0 -0.13217818831E+00 -0.19584282729E-01  0.13765440442E+01  0.13830142386E+01  0.51100000000E-03 0.  1.
    9000002    1    1    2    0    0  0.37432106417E+00  0.52728868282E-01  0.96124205542E-01  0.10158643884E+01  0.93800000000E+00 0.  1.
         22    1    1    2    0    0 -0.24214287586E+00 -0.33144585554E-01  0.25273317176E+01  0.25391213730E+01  0.00000000000E+00 0.  1.
</event>
<event>
 5    1  0.3241783E+002  0.1599483E+01  0.7818608E-02  0.3353925E+00
         11   -1    0    0    0    0  0.00000000000E+00  0.00000000000E+00  0.39999999674E+01  0.40000000000E+01  0.51100000000E-03 0. -1.
    9000002   -1    0    0    0    0 -0.00000000000E+00 -0.00000000000E+00  0.00000000000E+00  0.93800000000E+00  0.93800000000E+00 0. -1.
         11    1    1    2    0    0  0.12963145084E-01  0.98001396671E-01  0.11307868593E+01  0.11350997749E+01  0.51100000000E-03 0. -1.
    9000002    1    1    2    0    0  0.64107007764E-02 -0.32886509553E+00  0.72536191223E-01  0.99664379152E+00  0.93800000000E+00 0. -1.
         22    1    1    2    0    0 -0.19373845861E-01  0.23086369886E+00  0.27966769169E+01  0.28062564335E+01  0.00000000000E+00 0. -1.
</event>
<event>
 5    1  0.3241783E+002  0.1599677E+01  0.7818608E-02  0.3353714E+00
         11   -1    0    0    0    0  0.00000000000E+00  0.00000000000E+00  0.39999999674E+01  0.40000000000E+01  0.51100000000E-03 0. -1.
    9000002   -1    0    0    0    0 -0.00000000000E+00 -0.00000000000E+00  0.00000000000E+00  0.93800000000E+00  0.93800000000E+00 0.  1.
         11    1    1    2    0    0 -0.24939158056E-01 -0.18134614887E+00  0.14829041238E+01  0.14941597267E+01  0.51100000000E-03 0. -1.
    9000002    1    1    2    0    0  0.66571897177E-01  0.46987075362E+00  0.15353324889E+00  0.10623684865E+01  0.93800000000E+00 0.  1.
         22    1    1    2    0    0 -0.41632739122E-01 -0.28852460476E+00  0.23635625947E+01  0.23814717868E+01  0.00000000000E+00 0. -1.
</event>
<event>
 5    1  0.3241783E+002  0.1598887E+01  0.7818608E-02  0.3354572E+00
         11   -1    0    0    0    0  0.00000000000E+00  0.00000000000E+00  0.39999999674E+01  0.40000000000E+01  0.51100000000E-03 0.  1.
    9000002   -1    0    0    0    0 -0.00000000000E+00 -0.00000000000E+00  0.00000000000E+00  0.93800000000E+00  0.93800000000E+00 0. -1.
         11    1    1    2    0    0 -0.71973223453E-01 -0.11806366132E+00  0.11334646270E+01  0.11418675470E+01  0.51100000000E-03 0.  1.
    9000002    1    1    2    0    0  0.21855122383E+00  0.30459895950E+00  0.95153065132E-01  0.10146148379E+01  0.93800000000E+00 0. -1.
         22    1    1    2    0    0 -0.14657800038E+00 -0.18653529818E+00  0.27713822752E+01  0.27815176151E+01  0.00000000000E+00 0.  1.
</event>
<event>
 5    1  0.7516926E+002  0.1546531E+01  0.7818608E-02  0.3413523E+00
         11   -1    0    0    0    0  0.00000000000E+00  0.00000000000E+00  0.39999999674E+01  0.40000000000E+01  0.51100000000E-03 0.  1.
    9000002   -1    0    0    0    0 -0.00000000000E+00 -0.00000000000E+00  0.00000000000E+00  0.93800000000E+00  0.93800000000E+00 0.  1.
         11    1    1    2    0    0  0.11759455622E+00 -0.40323734387E-01  0.21310171232E+00  0.24671255364E+00  0.51100000000E-03 0.  1.
    9000002    1    1    2    0    0  0.87126574363E-01 -0.22518517757E-01  0.45120322618E-01  0.94338643573E+00  0.93800000000E+00 0.  1.
         22    1    1    2    0    0 -0.20472113058E+00  0.62842252144E-01  0.37417779324E+01  0.37479010106E+01  0.00000000000E+00 0.  1.
</event>
<event>
 5    1  0.3241783E+002  0.1577784E+01  0.7818608E-02  0.3377835E+00
         11   -1    0    0    0    0  0.00000000000E+00  0.00000000000E+00  0.39999999674E+01  0.40000000000E+01  0.51100000000E-03 0.  1.
    9000002   -1    0    0    0    0 -0.00000000000E+00 -0.00000000000E+00  0.00000000000E+00  0.93800000000E+00  0.93800000000E+00 0. -1.
         11    1    1    2    0    0  0.10839391825E+00  0.16670177419E+00  0.88051094400E+00  0.90268405694E+00  0.51100000000E-03 0.  1.
    9000002    1    1    2    0    0  0.39167645272E-01 -0.32789094335E+00  0.90594198701E-01  0.99854788769E+00  0.93800000000E+00 0. -1.
         22    1    1    2    0    0 -0.14756156352E+00  0.16118916916E+00  0.30288948247E+01  0.30367680554E+01  0.00000000000E+00 0.  1.
</event>
<event>
 5    1  0.3241783E+002  0.1599658E+01  0.7818608E-02  0.3353735E+00
         11   -1    0    0    0    0  0.00000000000E+00  0.00000000000E+00  0.39999999674E+01  0.40000000000E+01  0.51100000000E-03 0.  1.
    9000002   -1    0    0    0    0 -0.00000000000E+00 -0.00000000000E+00  0.00000000000E+00  0.93800000000E+00  0.93800000000E+00 0.  1.
         11    1    1    2    0    0 -0.55262940399E-01 -0.31917017808E-01  0.71734449113E+00  0.72017780352E+00  0.51100000000E-03 0.  1.
    9000002    1    1    2    0    0  0.28134875501E+00  0.18239902886E+00  0.75279406690E-01  0.99896822609E+00  0.93800000000E+00 0.  1.
         22    1    1    2    0    0 -0.22608581461E+00 -0.15048201105E+00  0.32073760695E+01  0.32188539704E+01  0.00000000000E+00 0.  1.
</event>
<event>
 5    1  0.3241783E+002  0.1599232E+01  0.7818608E-02  0.3354197E+00
         11   -1    0    0    0    0  0.00000000000E+00  0.00000000000E+00  0.39999999674E+01  0.40000000000E+01  0.51100000000E-03 0.  1.
    9000002   -1    0    0    0    0 -0.00000000000E+00 -0.00000000000E+00  0.00000000000E+00  0.93800000000E+00  0.93800000000E+00 0. -1.
         11    1    1    2    0    0 -0.52056352650E-01  0.38398183679E-02  0.52298586029E+00  0.52558451199E+00  0.51100000000E-03 0.  1.
    9000002    1    1    2    0    0  0.27288032653E+00 -0.79521565123E-01  0.54162704928E-01  0.98161344252E+00  0.93800000000E+00 0. -1.
         22    1    1    2    0    0 -0.22082397388E+00  0.75681746755E-01  0.34228514021E+01  0.34308020455E+01  0.00000000000E+00 0.  1.
</event>
<event>
 5    1  0.3241783E+002  0.1583547E+01  0.7818608E-02  0.3371417E+00
         11   -1    0    0    0    0  0.00000000000E+00  0.00000000000E+00  0.39999999674E+01  0.40000000000E+01  0.51100000000E-03 0.  1.
    9000002   -1    0    0    0    0 -0.00000000000E+00 -0.00000000000E+00  0.00000000000E+00  0.93800000000E+00  0.93800000000E+00 0.  1.
         11    1    1    2    0    0  0.93602977589E-01  0.51294281762E-01  0.11543771626E+01  0.11593013048E+01  0.51100000000E-03 0.  1.
    9000002    1    1    2    0    0  0.10896058237E-01  0.16576474974E+00  0.30290477379E-01  0.95307827032E+00  0.93800000000E+00 0.  1.
         22    1    1    2    0    0 -0.10449903583E+00 -0.21705903150E+00  0.28153323274E+01  0.28256204248E+01  0.00000000000E+00 0.  1.
</event>
<event>
 5    1  0.3241783E+002  0.1599675E+01  0.7818608E-02  0.3353716E+00
         11   -1    0    0    0    0  0.00000000000E+00  0.00000000000E+00  0.39999999674E+01  0.40000000000E+01  0.51100000000E-03 0.  1.
    9000002   -1    0    0    0    0 -0.00000000000E+00 -0.00000000000E+00  0.00000000000E+00  0.93800000000E+00  0.93800000000E+00 0.  1.
         11    1    1    2    0    0  0.19715606716E-01  0.53359592740E-01  0.57910873414E+00  0.58189615772E+00  0.51100000000E-03 0.  1.
    9000002    1    1    2    0    0 -0.12594819934E+00 -0.35786053395E+00  0.96834068342E-01  0.10164388557E+01  0.93800000000E+00 0.  1.
         22    1    1    2    0    0  0.10623259263E+00  0.30450094121E+00  0.33240571649E+01  0.33396649865E+01  0.00000000000E+00 0.  1.
</event>
<event>
 5    1  0.3241783E+002  0.1586808E+01  0.7818608E-02  0.3367807E+00
         11   -1    0    0    0    0  0.00000000000E+00  0.00000000000E+00  0.39999999674E+01  0.40000000000E+01  0.51100000000E-03 0. -1.
    9000002   -1    0    0    0    0 -0.00000000000E+00 -0.00000000000E+00  0.00000000000E+00  0.93800000000E+00  0.93800000000E+00 0. -1.
         11    1    1    2    0    0 -0.49507110407E-01 -0.92676334772E-02  0.17871868551E+01  0.17878965180E+01  0.51100000000E-03 0. -1.
    9000002    1    1    2    0    0 -0.12743751315E+00 -0.16542956112E+00  0.38621689412E-01  0.96173951481E+00  0.93800000000E+00 0. -1.
         22    1    1    2    0    0  0.17694462355E+00  0.17469719459E+00  0.21741914229E+01  0.21883639672E+01  0.00000000000E+00 0. -1.
</event>
<event>
 5    1  0.3241783E+002  0.1560480E+01  0.7818608E-02  0.3397407E+00
         11   -1    0    0    0    0  0.00000000000E+00  0.00000000000E+00  0.39999999674E+01  0.40000000000E+01  0.51100000000E-03 0.  1.
    9000002   -1    0    0    0    0 -0.00000000000E+00 -0.00000000000E+00  0.00000000000E+00  0.93800000000E+00  0.93800000000E+00 0.  1.
         11    1    1    2    0    0 -0.13942835710E+00  0.17214798712E-02  0.42599776454E+00  0.44823831471E+00  0.51100000000E-03 0.  1.
    9000002    1    1    2    0    0 -0.81985174797E-01 -0.14783799174E+00  0.48554819798E-01  0.95434753167E+00  0.93800000000E+00 0.  1.
         22    1    1    2    0    0  0.22141353190E+00  0.14611651187E+00  0.35254473830E+01  0.35354141536E+01  0.00000000000E+00 0.  1.
</event>
<event>
 5    1  0.3241783E+002  0.1580901E+01  0.7818608E-02  0.3374357E+00
         11   -1    0    0    0    0  0.00000000000E+00  0.00000000000E+00  0.39999999674E+01  0.40000000000E+01  0.51100000000E-03 0.  1.
    9000002   -1    0    0    0    0 -0.00000000000E+00 -0.00000000000E+00  0.00000000000E+00  0.93800000000E+00  0.93800000000E+00 0.  1.
         11    1    1    2    0    0  0.13564626697E+00  0.46477596969E+00  0.11908360876E+01  0.12854989149E+01  0.51100000000E-03 0.  1.
    9000002    1    1    2    0    0 -0.13732910273E+00  0.40295761673E+00  0.42317611646E+00  0.11136229833E+01  0.93800000000E+00 0.  1.
         22    1    1    2    0    0  0.16828357632E-02 -0.86773358642E+00  0.23859877633E+01  0.25388781018E+01  0.00000000000E+00 0.  1.
</event>
<event>
 5    1  0.3241783E+002  0.1559043E+01  0.7818608E-02  0.3399053E+00
         11   -1    0    0    0    0  0.00000000000E+00  0.00000000000E+00  0.39999999674E+01  0.40000000000E+01  0.51100000000E-03 0.  1.
    9000002   -1    0    0    0    0 -0.00000000000E+00 -0.00000000000E+00  0.00000000000E+00  0.93800000000E+00  0.93800000000E+00 0. -1.
         11    1    1    2    0    0  0.80013742786E-01  0.11573716264E+00  0.29236023049E+00  0.32445655386E+00  0.51100000000E-03 0.  1.
    9000002    1    1    2    0    0  0.50179105473E+00 -0.64798128001E+00  0.55475810492E+00  0.13635521834E+01  0.93800000000E+00 0. -1.
         22    1    1    2    0    0 -0.58180479751E+00  0.53224411737E+00  0.31528816320E+01  0.32499912628E+01  0.00000000000E+00 0.  1.
</event>
<event>
 5    1  0.3241783E+002  0.1597157E+01  0.7818608E-02  0.3356455E+00
         11   -1    0    0    0    0  0.00000000000E+00  0.00000000000E+00  0.39999999674E+01  0.40000000000E+01  0.51100000000E-03 0.  1.
    9000002   -1    0    0    0    0 -0.00000000000E+00 -0.00000000000E+00  0.00000000000E+00  0.93800000000E+00  0.93800000000E+00 0.  1.
         11    1    1    2    0    0 -0.26380726440E-01  0.61077978056E-01  0.80247313692E+00  0.80522658844E+00  0.51100000000E-03 0.  1.
    9000002    1    1    2    0    0 -0.10114533591E+00 -0.23849503850E+00  0.46548120074E-01  0.97422840743E+00  0.93800000000E+00 0.  1.
         22    1    1    2    0    0  0.12752606235E+00  0.17741706045E+00  0.31509787104E+01  0.31585450041E+01  0.00000000000E+00 0.  1.
</event>
<event>
 5    1  0.3241783E+002  0.1599651E+01  0.7818608E-02  0.3353743E+00
         11   -1    0    0    0    0  0.00000000000E+00  0.00000000000E+00  0.39999999674E+01  0.40000000000E+01  0.51100000000E-03 0.  1.
    9000002   -1    0    0    0    0 -0.00000000000E+00 -0.00000000000E+00  0.00000000000E+00  0.93800000000E+00  0.93800000000E+00 0.  1.
         11    1    1    2    0    0 -0.65530473944E-02 -0.16344487393E+00  0.16678994867E+01  0.16759015867E+01  0.51100000000E-03 0.  1.
    9000002    1    1    2    0    0  0.18336746724E-02  0.37771046294E+00  0.95988398529E-01  0.10157393016E+01  0.93800000000E+00 0.  1.
         22    1    1    2    0    0  0.47193727220E-02 -0.21426558901E+00  0.22361120821E+01  0.22463591117E+01  0.00000000000E+00 0.  1.
</event>
<event>
 5    1  0.3241783E+002  0.1599650E+01  0.7818608E-02  0.3353743E+00
         11   -1    0    0    0    0  0.00000000000E+00  0.00000000000E+00  0.39999999674E+01  0.40000000000E+01  0.51100000000E-03 0.  1.
    9000002   -1    0    0    0    0 -0.00000000000E+00 -0.00000000000E+00  0.00000000000E+00  0.93800000000E+00  0.93800000000E+00 0. -1.
         11    1    1    2    0    0 -0.28371055307E-01  0.83590325911E-02  0.38118228653E+00  0.38232837573E+00  0.51100000000E-03 0.  1.
    9000002    1    1    2    0    0  0.25712987831E+00 -0.95108424702E-01  0.50046746674E-01  0.97852443180E+00  0.93800000000E+00 0. -1.
         22    1    1    2    0    0 -0.22875882300E+00  0.86749392111E-01  0.35687709342E+01  0.35771471925E+01  0.00000000000E+00 0.  1.
</event>
<event>
 5    1  0.3241783E+002  0.1596582E+01  0.7818608E-02  0.3357081E+00
         11   -1    0    0    0    0  0.00000000000E+00  0.00000000000E+00  0.39999999674E+01  0.40000000000E+01  0.51100000000E-03 0. -1.
    9000002   -1    0    0    0    0 -0.00000000000E+00 -0.00000000000E+00  0.00000000000E+00  0.93800000000E+00  0.93800000000E+00 0. -1.
         11    1    1    2    0    0 -0.17174205503E-01  0.21698410028E-01  0.31259943433E+00  0.31382230927E+00  0.51100000000E-03 0. -1.
    9000002    1    1    2    0    0 -0.19841199008E+00 -0.85115752045E-01  0.33225236988E-01  0.96309912544E+00  0.93800000000E+00 0. -1.
         22    1    1    2    0    0  0.21558619558E+00  0.63417342017E-01  0.36541752960E+01  0.36610785653E+01  0.00000000000E+00 0. -1.
</event>
<event>
 5    1  0.3241783E+002  0.1597850E+01  0.7818608E-02  0.3355700E+00
         11   -1    0    0    0    0  0.00000000000E+00  0.00000000000E+00  0.39999999674E+01  0.40000000000E+01  0.51100000000E-03 0. -1.
    9000002   -1    0    0    0    0 -0.00000000000E+00 -0.00000000000E+00  0.00000000000E+00  0.93800000000E+00  0.93800000000E+00 0.  1.
         11    1    1    2    0    0 -0.20067601758E+00 -0.24308231706E+00  0.17238016421E+01  0.17523847292E+01  0.51100000000E-03 0. -1.
    9000002    1    1    2    0    0  0.39436311015E+00  0.61495568873E+00  0.38681237684E+00  0.12502642027E+01  0.93800000000E+00 0.  1.
         22    1    1    2    0    0 -0.19368709258E+00 -0.37187337167E+00  0.18893859484E+01  0.19353510680E+01  0.00000000000E+00 0. -1.
</event>
<event>
 5    1  0.3241783E+002  0.1598133E+01  0.7818608E-02  0.3355393E+00
         11   -1    0    0    0    0  0.00000000000E+00  0.00000000000E+00  0.39999999674E+01  0.40000000000E+01  0.51100000000E-03 0.  1.
    9000002   -1    0    0    0    0 -0.00000000000E+00 -0.00000000000E+00  0.00000000000E+00  0.93800000000E+00  0.93800000000E+00 0. -1.
         11    1    1    2    0    0  0.88499564761E-01 -0.14045772575E+00  0.13576662611E+01  0.13677786676E+01  0.51100000000E-03 0.  1.
    9000002    1    1    2    0    0 -0.37420556613E+00  0.37671222188E+00  0.19548400859E+00  0.10954450700E+01  0.93800000000E+00 0. -1.
         22    1    1    2    0    0  0.28570600137E+00 -0.23625449612E+00  0.24468496976E+01  0.24747762624E+01  0.00000000000E+00 0.  1.
</event>
<event>
 5    1  0.3241783E+002  0.1599584E+01  0.7818608E-02  0.3353815E+00
         11   -1    0    0    0    0  0.00000000000E+00  0.00000000000E+00  0.39999999674E+01  0.40000000000E+01  0.51100000000E-03 0.  1.
    9000002   -1    0    0    0    0 -0.00000000000E+00 -0.00000000000E+00  0.00000000000E+00  0.93800000000E+00  0.93800000000E+00 0. -1.
         11    1    1    2    0    0  0.29889819658E-01 -0.65027784339E-01  0.10612053616E+01  0.10636160467E+01  0.51100000000E-03 0.  1.
    9000002    1    1    2    0    0 -0.14824238648E+00  0.23235542872E+00  0.50638961952E-01  0.97896534917E+00  0.93800000000E+00 0. -1.
         22    1    1    2    0    0  0.11835256682E+00 -0.16732764438E+00  0.28881556438E+01  0.28954186042E+01  0.00000000000E+00 0.  1.
</event>
<event>
 5    1  0.3241783E+002  0.1599672E+01  0.7818608E-02  0.3353719E+00
         11   -1    0    0    0    0  0.00000000000E+00  0.00000000000E+00  0.39999999674E+01  0.40000000000E+01  0.51100000000E-03 0. -1.
    9000002   -1    0    0    0    0 -0.00000000000E+00 -0.00000000000E+00  0.00000000000E+00  0.93800000000E+00  0.93800000000E+00 0. -1.
         11    1    1    2    0    0 -0.73630134582E-01 -0.40275888314E-01  0.85713462528E+00  0.86123374926E+00  0.51100000000E-03 0. -1.
    9000002    1    1    2    0    0  0.34200879197E+00  0.19012698578E+00  0.10317170128E+00  0.10215706948E+01  0.93800000000E+00 0. -1.
         22    1    1    2    0    0 -0.26837865739E+00 -0.14985109747E+00  0.30396936408E+01  0.30551955560E+01  0.00000000000E+00 0. -1.
</event>
<event>
 5    1  0.3241783E+002  0.1596537E+01  0.7818608E-02  0.3357130E+00
         11   -1    0    0    0    0  0.00000000000E+00  0.00000000000E+00  0.39999999674E+01  0.40000000000E+01  0.51100000000E-03 0. -1.
    9000002   -1    0    0    0    0 -0.00000000000E+00 -0.00000000000E+00  0.00000000000E+00  0.93800000000E+00  0.93800000000E+00 0.  1.
         11    1    1    2    0    0 -0.15784915929E+00 -0.44717744845E-01  0.91422003458E+00  0.92882429261E+00  0.51100000000E-03 0. -1.
    9000002    1    1    2    0    0  0.54170796452E+00  0.39500805841E+00  0.32216518127E+00  0.11971270981E+01  0.93800000000E+00 0.  1.
         22    1    1    2    0    0 -0.38385880523E+00 -0.35029031356E+00  0.27636147515E+01  0.28120486093E+01  0.00000000000E+00 0. -1.
</event>
<event>
 5    1  0.3241783E+002  0.1567206E+01  0.7818608E-02  0.3389745E+00
         11   -1    0    0    0    0  0.00000000000E+00  0.00000000000E+00  0.39999999674E+01  0.40000000000E+01  0.51100000000E-03 0.  1.
    9000002   -1    0    0    0    0 -0.00000000000E+00 -0.00000000000E+00  0.00000000000E+00  0.93800000000E+00  0.93800000000E+00 0. -1.
         11    1    1    2    0    0 -0.10395835623E+00  0.88229435404E-01  0.38654129453E+00  0.40988560185E+00  0.51100000000E-03 0.  1.
    9000002    1    1    2    0    0 -0.76373663219E-01 -0.20639713566E+00  0.57031014422E-01  0.96515762995E+00  0.93800000000E+00 0. -1.
         22    1    1    2    0    0  0.18033201945E+00  0.11816770026E+00  0.35564276584E+01  0.35629567682E+01  0.00000000000E+00 0.  1.
</event>
<event>
 5    1  0.3241783E+002  0.1599386E+01  0.7818608E-02  0.3354030E+00
         11   -1    0    0    0    0  0.00000000000E+00  0.00000000000E+00  0.39999999674E+01  0.40000000000E+01  0.51100000000E-03 0.  1.
    9000002   -1    0    0    0    0 -0.00000000000E+00 -0.00000000000E+00  0.00000000000E+00  0.93800000000E+00  0.93800000000E+00 0. -1.
         11    1    1    2    0    0 -0.38096391922E+00  0.10514818151E+00  0.20101452322E+01  0.20486272876E+01  0.51100000000E-03 0.  1.
    9000002    1    1    2    0    0  0.66619343812E+00 -0.21809068399E+00  0.35159397413E+00  0.12226363180E+01  0.93800000000E+00 0. -1.
         22    1    1    2    0    0 -0.28522951889E+00  0.11294250248E+00  0.16382607611E+01  0.16667363944E+01  0.00000000000E+00 0.  1.
</event>
<event>
 5    1  0.3241783E+002  0.1592898E+01  0.7818608E-02  0.3361108E+00
         11   -1    0    0    0    0  0.00000000000E+00  0.00000000000E+00  0.39999999674E+01  0.40000000000E+01  0.51100000000E-03 0.  1.
    9000002   -1    0    0    0    0 -0.00000000000E+00 -0.00000000000E+00  0.00000000000E+00  0.93800000000E+00  0.93800000000E+00 0. -1.
         11    1    1    2    0    0 -0.43366100289E-01  0.60217155340E-01  0.93333081651E+00  0.93627634736E+00  0.51100000000E-03 0.  1.
    9000002    1    1    2    0    0 -0.16020131109E+00 -0.34274352572E+00  0.10186804662E+00  0.10165425143E+01  0.93800000000E+00 0. -1.
         22    1    1    2    0    0  0.20356741138E+00  0.28252637038E+00  0.29648011042E+01  0.29851811383E+01  0.00000000000E+00 0.  1.
</event>
<event>
 5    1  0.3241783E+002  0.1599676E+01  0.7818608E-02  0.3353715E+00
         11   -1    0    0    0    0  0.00000000000E+00  0.00000000000E+00  0.39999999674E+01  0.40000000000E+01  0.51100000000E-03 0.  1.
    9000002   -1    0    0    0    0 -0.00000000000E+00 -0.00000000000E+00  0.00000000000E+00  0.93800000000E+00  0.93800000000E+00 0. -1.
         11    1    1    2    0    0  0.92496286478E-01  0.49091042874E-01  0.11810447705E+01  0.11856780780E+01  0.51100000000E-03 0.  1.
    9000002    1    1    2    0    0 -0.30727153552E+00 -0.16650900394E+00  0.81893032371E-01  0.10043363549E+01  0.93800000000E+00 0. -1.
         22    1    1    2    0    0  0.21477524904E+00  0.11741796107E+00  0.27370621644E+01  0.27479855671E+01  0.00000000000E+00 0.  1.
</event>
<event>
 5    1  0.3241783E+002  0.1592200E+01  0.7818608E-02  0.3361873E+00
         11   -1    0    0    0    0  0.00000000000E+00  0.00000000000E+00  0.39999999674E+01  0.40000000000E+01  0.51100000000E-03 0.  1.
    9000002   -1    0    0    0    0 -0.00000000000E+00 -0.00000000000E+00  0.00000000000E+00  0.93800000000E+00  0.93800000000E+00 0. -1.
         11    1    1    2    0    0 -0.10905435628E-01 -0.70765370568E-01  0.15733564494E+01  0.15749849028E+01  0.51100000000E-03 0.  1.
    9000002    1    1    2    0    0 -0.22465989482E+00  0.13341975641E+00  0.51157776803E-01  0.97505590500E+00  0.93800000000E+00 0. -1.
         22    1    1    2    0    0  0.23556533045E+00 -0.62654385846E-01  0.23754857412E+01  0.23879591922E+01  0.00000000000E+00 0.  1.
</event>
<event>
 5    1  0.3241783E+002  0.1599677E+01  0.7818608E-02  0.3353714E+00
         11   -1    0    0    0    0  0.00000000000E+00  0.00000000000E+00  0.39999999674E+01  0.40000000000E+01  0.51100000000E-03 0.  1.
    9000002   -1    0    0    0    0 -0.00000000000E+00 -0.00000000000E+00  0.00000000000E+00  0.93800000000E+00  0.93800000000E+00 0.  1.
         11    1    1    2    0    0 -0.38371588328E-01 -0.75330952448E-01  0.10877254070E+01  0.10910059365E+01  0.51100000000E-03 0. -1.
    9000002    1    1    2    0    0  0.13848372078E+00  0.27257529786E+00  0.62392016271E-01  0.98854023571E+00  0.93800000000E+00 0.  1.
         22    1    1    2    0    0 -0.10011213246E+00 -0.19724434541E+00  0.28498825441E+01  0.28584538278E+01  0.00000000000E+00 0.  1.
</event>
<event>
 5    1  0.3241783E+002  0.1599596E+01  0.7818608E-02  0.3353802E+00
         11   -1    0    0    0    0  0.00000000000E+00  0.00000000000E+00  0.39999999674E+01  0.40000000000E+01  0.51100000000E-03 0.  1.
    9000002   -1    0    0    0    0 -0.00000000000E+00 -0.00000000000E+00  0.00000000000E+00  0.93800000000E+00  0.93800000000E+00 0.  1.
         11    1    1    2    0    0 -0.29359962408E-01  0.76379878454E-01  0.11117422287E+01  0.11147497197E+01  0.51100000000E-03 0.  1.
    9000002    1    1    2    0    0  0.13376630373E+00 -0.25318991764E+00  0.54697381290E-01  0.98225982404E+00  0.93800000000E+00 0.  1.
         22    1    1    2    0    0 -0.10440634132E+00  0.17681003919E+00  0.28335603573E+01  0.28409904563E+01  0.00000000000E+00 0.  1.
</event>
<event>
 5    1  0.3241783E+002  0.1587490E+01  0.7818608E-02  0.3367054E+00
         11   -1    0    0    0    0  0.00000000000E+00  0.00000000000E+00  0.39999999674E+01  0.40000000000E+01  0.51100000000E-03 0. -1.
    9000002   -1    0    0    0    0 -0.00000000000E+00 -0.00000000000E+00  0.00000000000E+00  0.93800000000E+00  0.93800000000E+00 0.  1.
         11    1    1    2    0    0 -0.10333483856E-01 -0.25315323007E-01  0.32398230625E-01  0.42397558139E-01  0.51100000000E-03 0. -1.
    9000002    1    1    2    0    0 -0.66194718719E-01  0.22156263400E+00  0.44770006659E-01  0.96711948334E+00  0.93800000000E+00 0.  1.
         22    1    1    2    0    0  0.76528202575E-01 -0.19624731099E+00  0.39228317301E+01  0.39284829585E+01  0.00000000000E+00 0. -1.
</event>
<event>
 5    1  0.3475544E+002  0.1548448E+01  0.7818608E-02  0.3411290E+00
         11   -1    0    0    0    0  0.00000000000E+00  0.00000000000E+00  0.39999999674E+01  0.40000000000E+01  0.51100000000E-03 0. -1.
    9000002   -1    0    0    0    0 -0.00000000000E+00 -0.00000000000E+00  0.00000000000E+00  0.93800000000E+00  0.93800000000E+00 0. -1.
         11    1    1    2    0    0 -0.48956286236E-01  0.77442168152E-01  0.10208966136E+00  0.13717349397E+00  0.51100000000E-03 0. -1.
    9000002    1    1    2    0    0 -0.14970451938E+00 -0.38187056211E-01  0.54621487627E-01  0.95220649089E+00  0.93800000000E+00 0. -1.
         22    1    1    2    0    0  0.19866080561E+00 -0.39255111940E-01  0.38432888184E+01  0.38486200151E+01  0.00000000000E+00 0. -1.
</event>
<event>
 5    1  0.3241783E+002  0.1596090E+01  0.7818608E-02  0.3357618E+00
         11   -1    0    0    0    0  0.00000000000E+00  0.00000000000E+00  0.39999999674E+01  0.40000000000E+01  0.51100000000E-03 0. -1.
    9000002   -1    0    0    0    0 -0.00000000000E+00 -0.00000000000E+00  0.00000000000E+00  0.93800000000E+00  0.93800000000E+00 0. -1.
         11    1    1    2    0    0 -0.20285393004E-02 -0.56750303557E-01  0.75465602011E+00  0.75678972095E+00  0.51100000000E-03 0. -1.
    9000002    1    1    2    0    0  0.24628503927E+00  0.11702301745E+00  0.52255017025E-01  0.97822558440E+00  0.93800000000E+00 0. -1.
         22    1    1    2    0    0 -0.24425649997E+00 -0.60272713890E-01  0.31930889302E+01  0.32029846946E+01  0.00000000000E+00 0. -1.
</event>
<event>
 5    1  0.3241783E+002  0.1599672E+01  0.7818608E-02  0.3353720E+00
         11   -1    0    0    0    0  0.00000000000E+00  0.00000000000E+00  0.39999999674E+01  0.40000000000E+01  0.51100000000E-03 0. -1.
    9000002   -1    0    0    0    0 -0.00000000000E+00 -0.00000000000E+00  0.00000000000E+00  0.93800000000E+00  0.93800000000E+00 0. -1.
         11    1    1    2    0    0  0.15559534751E+00 -0.40708426439E-01  0.15703070141E+01  0.15785219250E+01  0.51100000000E-03 0. -1.
    9000002    1    1    2    0    0 -0.38097131074E+00  0.96398298257E-01  0.10407889383E+00  0.10223053300E+01  0.93800000000E+00 0. -1.
         22    1    1    2    0    0  0.22537596323E+00 -0.55689871818E-01  0.23256140594E+01  0.23371727450E+01  0.00000000000E+00 0.  1.
</event>
<event>
 5    1  0.3241783E+002  0.1599677E+01  0.7818608E-02  0.3353714E+00
         11   -1    0    0    0    0  0.00000000000E+00  0.00000000000E+00  0.39999999674E+01  0.40000000000E+01  0.51100000000E-03 0. -1.
    9000002   -1    0    0    0    0 -0.00000000000E+00 -0.00000000000E+00  0.00000000000E+00  0.93800000000E+00  0.93800000000E+00 0.  1.
         11    1    1    2    0    0 -0.31531628331E+00  0.84258877084E-01  0.22973632647E+01  0.23204314573E+01  0.51100000000E-03 0. -1.
    9000002    1    1    2    0    0  0.52155805936E+00 -0.13983257059E+00  0.20101354969E+00  0.11008298707E+01  0.93800000000E+00 0.  1.
         22    1    1    2    0    0 -0.20624177605E+00  0.55573693507E-01  0.15016231530E+01  0.15167386720E+01  0.00000000000E+00 0. -1.
</event>
<event>
 5    1  0.3241783E+002  0.1599677E+01  0.7818608E-02  0.3353715E+00
         11   -1    0    0    0    0  0.00000000000E+00  0.00000000000E+00  0.39999999674E+01  0.40000000000E+01  0.51100000000E-03 0.  1.
    9000002   -1    0    0    0    0 -0.00000000000E+00 -0.00000000000E+00  0.00000000000E+00  0.93800000000E+00  0.93800000000E+00 0.  1.
         11    1    1    2    0    0  0.79724715350E-01  0.20089791018E+00  0.20001383031E+01  0.20117826655E+01  0.51100000000E-03 0.  1.
    9000002    1    1    2    0    0 -0.15306972656E+00 -0.38980328849E+00  0.11858896968E+00  0.10340620333E+01  0.93800000000E+00 0.  1.
         22    1    1    2    0    0  0.73345011214E-01  0.18890537831E+00  0.18812726945E+01  0.18921553012E+01  0.00000000000E+00 0.  1.
</event>
<event>
 5    1  0.3241783E+002  0.1595121E+01  0.7818608E-02  0.3358676E+00
         11   -1    0    0    0    0  0.00000000000E+00  0.00000000000E+00  0.39999999674E+01  0.40000000000E+01  0.51100000000E-03 0. -1.
    9000002   -1    0    0    0    0 -0.00000000000E+00 -0.00000000000E+00  0.00000000000E+00  0.93800000000E+00  0.93800000000E+00 0. -1.
         11    1    1    2    0    0  0.25885755396E-01  0.10076106184E+00  0.21849125783E+01  0.21873879628E+01  0.51100000000E-03 0. -1.
    9000002    1    1    2    0    0 -0.60166927571E-01 -0.32570545243E+00  0.77046328093E-01  0.99773956401E+00  0.93800000000E+00 0. -1.
         22    1    1    2    0    0  0.34281172175E-01  0.22494439059E+00  0.17380410610E+01  0.17528724732E+01  0.00000000000E+00 0.  1.
</event>
<event>
 5    1  0.3241783E+002  0.1596973E+01  0.7818608E-02  0.3356656E+00
         11   -1    0    0    0    0  0.00000000000E+00  0.00000000000E+00  0.39999999674E+01  0.40000000000E+01  0.51100000000E-03 0.  1.
    9000002   -1    0    0    0    0 -0.00000000000E+00 -0.00000000000E+00  0.00000000000E+00  0.93800000000E+00  0.93800000000E+00 0. -1.
         11    1    1    2    0    0  0.23604826264E-01 -0.73355707547E-01  0.58055218249E+00  0.58564438474E+00  0.51100000000E-03 0.  1.
    9000002    1    1    2    0    0  0.36297638226E-01  0.26949111593E+00  0.51296188825E-01  0.97796639978E+00  0.93800000000E+00 0. -1.
         22    1    1    2    0    0 -0.59902464490E-01 -0.19613540839E+00  0.33681515960E+01  0.33743892155E+01  0.00000000000E+00 0.  1.
</event>
<event>
 5    1  0.3241783E+002  0.1599138E+01  0.7818608E-02  0.3354299E+00
         11   -1    0    0    0    0  0.00000000000E+00  0.00000000000E+00  0.39999999674E+01  0.40000000000E+01  0.51100000000E-03 0.  1.
    9000002   -1    0    0    0    0 -0.00000000000E+00 -0.00000000000E+00  0.00000000000E+00  0.93800000000E+00  0.93800000000E+00 0.  1.
         11    1    1    2    0    0 -0.29971424332E+00 -0.17096727913E+00  0.19072157567E+01  0.19381771441E+01  0.51100000000E-03 0.  1.
    9000002    1    1    2    0    0  0.53248399326E+00  0.32026589705E+00  0.27120161071E+00  0.11573693281E+01  0.93800000000E+00 0.  1.
         22    1    1    2    0    0 -0.23276974994E+00 -0.14929861793E+00  0.18215825999E+01  0.18424535278E+01  0.00000000000E+00 0. -1.
</event>
<event>
 5    1  0.3241783E+002  0.1557094E+01  0.7818608E-02  0.3401290E+00
         11   -1    0    0    0    0  0.00000000000E+00  0.00000000000E+00  0.39999999674E+01  0.40000000000E+01  0.51100000000E-03 0.  1.
    9000002   -1    0    0    0    0 -0.00000000000E+00 -0.00000000000E+00  0.00000000000E+00  0.93800000000E+00  0.93800000000E+00 0.  1.
         11    1    1    2    0    0  0.11551869590E+00 -0.11620859662E+00  0.60603899233E+00  0.62779975181E+00  0.51100000000E-03 0.  1.
    9000002    1    1    2    0    0  0.13151296716E+00 -0.99144988415E-02  0.43443886672E-01  0.94822219395E+00  0.93800000000E+00 0.  1.
         22    1    1    2    0    0 -0.24703166306E+00  0.12612309546E+00  0.33505170884E+01  0.33619780542E+01  0.00000000000E+00 0.  1.
</event>
<event>
 5    1  0.3241783E+002  0.1556229E+01  0.7818608E-02  0.3402285E+00
         11   -1    0    0    0    0  0.00000000000E+00  0.00000000000E+00  0.39999999674E+01  0.40000000000E+01  0.51100000000E-03 0. -1.
    9000002   -1    0    0    0    0 -0.00000000000E+00 -0.00000000000E+00  0.00000000000E+00  0.93800000000E+00  0.93800000000E+00 0.  1.
         11    1    1    2    0    0  0.16891939333E+00  0.14832432494E+00  0.17118886939E+01  0.17265853667E+01  0.51100000000E-03 0. -1.
    9000002    1    1    2    0    0  0.10775086625E+00 -0.56898763279E-01  0.42350204551E-01  0.94682905440E+00  0.93800000000E+00 0.  1.
         22    1    1    2    0    0 -0.27667025958E+00 -0.91425561660E-01  0.22457610689E+01  0.22645855789E+01  0.00000000000E+00 0. -1.
</event>
<event>
 5    1  0.3241783E+002  0.1599677E+01  0.7818608E-02  0.3353714E+00
         11   -1    0    0    0    0  0.00000000000E+00  0.00000000000E+00  0.39999999674E+01  0.40000000000E+01  0.51100000000E-03 0. -1.
    9000002   -1    0    0    0    0 -0.00000000000E+00 -0.00000000000E+00  0.00000000000E+00  0.93800000000E+00  0.93800000000E+00 0.  1.
         11    1    1    2    0    0 -0.92561793146E-01  0.15570904350E+00  0.16622841798E+01  0.16721249796E+01  0.51100000000E-03 0. -1.
    9000002    1    1    2    0    0  0.21688498970E+00 -0.36411051671E+00  0.12153819587E+00  0.10364512049E+01  0.93800000000E+00 0.  1.
         22    1    1    2    0    0 -0.12432319656E+00  0.20840147320E+00  0.22161775916E+01  0.22294238155E+01  0.00000000000E+00 0. -1.
</event>
<event>
 5    1  0.3241783E+002  0.1537032E+01  0.7818608E-02  0.3424677E+00
         11   -1    0    0    0    0  0.00000000000E+00  0.00000000000E+00  0.39999999674E+01  0.40000000000E+01  0.51100000000E-03 0. -1.
    9000002   -1    0    0    0    0 -0.00000000000E+00 -0.00000000000E+00  0.00000000000E+00  0.93800000000E+00  0.93800000000E+00 0. -1.
         11    1    1    2    0    0 -0.17487456388E+00 -0.44748232439E-01  0.38798248809E+00  0.42791843800E+00  0.51100000000E-03 0. -1.
    9000002    1    1    2    0    0  0.17858716887E-01 -0.14511069537E+00  0.61810727210E-01  0.95133622536E+00  0.93800000000E+00 0. -1.
         22    1    1    2    0    0  0.15701584699E+00  0.18985892781E+00  0.35502067521E+01  0.35587453366E+01  0.00000000000E+00 0. -1.
</event>
<event>
 5    1  0.3241783E+002  0.1555161E+01  0.7818608E-02  0.3403516E+00
         11   -1    0    0    0    0  0.00000000000E+00  0.00000000000E+00  0.39999999674E+01  0.40000000000E+01  0.51100000000E-03 0.  1.
    9000002   -1    0    0    0    0 -0.00000000000E+00 -0.00000000000E+00  0.00000000000E+00  0.93800000000E+00  0.93800000000E+00 0.  1.
         11    1    1    2    0    0 -0.71560880471E-01 -0.26123921618E+00  0.14670732941E+01  0.14918683585E+01  0.51100000000E-03 0.  1.
    9000002    1    1    2    0    0  0.11101266410E+00  0.47451176418E-01  0.42981227053E-01  0.94671369041E+00  0.93800000000E+00 0.  1.
         22    1    1    2    0    0 -0.39451783625E-01  0.21378803976E+00  0.24899454462E+01  0.24994179511E+01  0.00000000000E+00 0.  1.
</event>
<event>
 5    1  0.3241783E+002  0.1599676E+01  0.7818608E-02  0.3353715E+00
         11   -1    0    0    0    0  0.00000000000E+00  0.00000000000E+00  0.39999999674E+01  0.40000000000E+01  0.51100000000E-03 0.  1.
    9000002   -1    0    0    0    0 -0.00000000000E+00 -0.00000000000E+00  0.00000000000E+00  0.93800000000E+00  0.93800000000E+00 0.  1.
         11    1    1    2    0    0 -0.25170434828E-01 -0.76907931139E-01  0.10207343999E+01  0.10239371841E+01  0.51100000000E-03 0.  1.
    9000002    1    1    2    0    0  0.99579637695E-01  0.29951921503E+00  0.66563350931E-01  0.99191861768E+00  0.93800000000E+00 0.  1.
         22    1    1    2    0    0 -0.74409202867E-01 -0.22261128389E+00  0.29127022165E+01  0.29221441982E+01  0.00000000000E+00 0.  1.
</event>
<event>
 5    1  0.3241783E+002  0.1598561E+01  0.7818608E-02  0.3354927E+00
         11   -1    0    0    0    0  0.00000000000E+00  0.00000000000E+00  0.39999999674E+01  0.40000000000E+01  0.51100000000E-03 0.  1.
    9000002   -1    0    0    0    0 -0.00000000000E+00 -0.00000000000E+00  0.00000000000E+00  0.93800000000E+00  0.93800000000E+00 0.  1.
         11    1    1    2    0    0  0.59841822090E-02  0.83241449878E-02  0.43694650403E+00  0.43706705473E+00  0.51100000000E-03 0.  1.
    9000002    1    1    2    0    0 -0.21796881506E+00  0.83893086331E-01  0.37039726611E-01  0.96734915910E+00  0.93800000000E+00 0.  1.
         22    1    1    2    0    0  0.21198463285E+00 -0.92217231319E-01  0.35260137367E+01  0.35335837862E+01  0.00000000000E+00 0.  1.
</event>
<event>
 5    1  0.3241783E+002  0.1599364E+01  0.7818608E-02  0.3354054E+00
         11   -1    0    0    0    0  0.00000000000E+00  0.00000000000E+00  0.39999999674E+01  0.40000000000E+01  0.51100000000E-03 0.  1.
    9000002   -1    0    0    0    0 -0.00000000000E+00 -0.00000000000E+00  0.00000000000E+00  0.93800000000E+00  0.93800000000E+00 0.  1.
         11    1    1    2    0    0 -0.76899489638E-02 -0.71750449322E-01  0.98427159993E+00  0.98691342368E+00  0.51100000000E-03 0.  1.
    9000002    1    1    2    0    0  0.52012687730E-01  0.35573499437E+00  0.87011113096E-01  0.10082993800E+01  0.93800000000E+00 0.  1.
         22    1    1    2    0    0 -0.44322738766E-01 -0.28398454504E+00  0.29287172543E+01  0.29427871963E+01  0.00000000000E+00 0.  1.
</event>
<event>
 5    1  0.3241783E+002  0.1599361E+01  0.7818608E-02  0.3354057E+00
         11   -1    0    0    0    0  0.00000000000E+00  0.00000000000E+00  0.39999999674E+01  0.40000000000E+01  0.51100000000E-03 0.  1.
    9000002   -1    0    0    0    0 -0.00000000000E+00 -0.00000000000E+00  0.00000000000E+00  0.93800000000E+00  0.93800000000E+00 0. -1.
         11    1    1    2    0    0  0.14885977387E-01 -0.35647077562E-02  0.12832043709E+00  0.12923116946E+00  0.51100000000E-03 0.  1.
    9000002    1    1    2    0    0 -0.24406375565E+00  0.18146828388E-01  0.40013570723E-01  0.97022755581E+00  0.93800000000E+00 0. -1.
         22    1    1    2    0    0  0.22917777826E+00 -0.14582120631E-01  0.38316659595E+01  0.38385412747E+01  0.00000000000E+00 0.  1.
</event>
<event>
 5    1  0.3241783E+002  0.1592905E+01  0.7818608E-02  0.3361100E+00
         11   -1    0    0    0    0  0.00000000000E+00  0.00000000000E+00  0.39999999674E+01  0.40000000000E+01  0.51100000000E-03 0. -1.
    9000002   -1    0    0    0    0 -0.00000000000E+00 -0.00000000000E+00  0.00000000000E+00  0.93800000000E+00  0.93800000000E+00 0.  1.
         11    1    1    2    0    0 -0.30231960135E-02  0.42550675920E-01  0.11938798682E+00  0.12678111947E+00  0.51100000000E-03 0. -1.
    9000002    1    1    2    0    0  0.11932911789E+00 -0.26116198621E+00  0.60219748802E-01  0.98280997124E+00  0.93800000000E+00 0.  1.
         22    1    1    2    0    0 -0.11630592188E+00  0.21861131029E+00  0.38203922317E+01  0.38284089093E+01  0.00000000000E+00 0. -1.
</event>
<event>
 5    1  0.3241783E+002  0.1458257E+01  0.7818608E-02  0.3523205E+00
         11   -1    0    0    0    0  0.00000000000E+00  0.00000000000E+00  0.39999999674E+01  0.40000000000E+01  0.51100000000E-03 0. -1.
    9000002   -1    0    0    0    0 -0.00000000000E+00 -0.00000000000E+00  0.00000000000E+00  0.93800000000E+00  0.93800000000E+00 0.  1.
         11    1    1    2    0    0 -0.30191866605E+00  0.33584156393E+00  0.11089118148E+01  0.11973429379E+01  0.51100000000E-03 0. -1.
    9000002    1    1    2    0    0  0.32808957444E+00  0.82592428290E-01  0.19987734865E+00  0.10169853650E+01  0.93800000000E+00 0.  1.
         22    1    1    2    0    0 -0.26170908386E-01 -0.41843399222E+00  0.26912108039E+01  0.27236716971E+01  0.00000000000E+00 0. -1.
</event>
<event>
 5    1  0.3241783E+002  0.1576582E+01  0.7818608E-02  0.3379179E+00
         11   -1    0    0    0    0  0.00000000000E+00  0.00000000000E+00  0.39999999674E+01  0.40000000000E+01  0.51100000000E-03 0. -1.
    9000002   -1    0    0    0    0 -0.00000000000E+00 -0.00000000000E+00  0.00000000000E+00  0.93800000000E+00  0.93800000000E+00 0.  1.
         11    1    1    2    0    0 -0.82901240262E-01  0.52338408888E-02  0.16431111762E+00  0.18411521724E+00  0.51100000000E-03 0. -1.
    9000002    1    1    2    0    0  0.21003654775E+00 -0.69836175921E+00  0.41064588327E+00  0.12570992561E+01  0.93800000000E+00 0.  1.
         22    1    1    2    0    0 -0.12713530749E+00  0.69312791832E+00  0.34250429665E+01  0.34967855267E+01  0.00000000000E+00 0. -1.
</event>
<event>
 5    1  0.3241783E+002  0.1599673E+01  0.7818608E-02  0.3353719E+00
         11   -1    0    0    0    0  0.00000000000E+00  0.00000000000E+00  0.39999999674E+01  0.40000000000E+01  0.51100000000E-03 0.  1.
    9000002   -1    0    0    0    0 -0.00000000000E+00 -0.00000000000E+00  0.00000000000E+00  0.93800000000E+00  0.93800000000E+00 0. -1.
         11    1    1    2    0    0  0.88324036869E-02  0.72455268381E-02  0.22630365222E+00  0.22659239427E+00  0.51100000000E-03 0. -1.
    9000002    1    1    2    0    0 -0.15907904961E+00 -0.14519206479E+00  0.30741896127E-01  0.96289975796E+00  0.93800000000E+00 0. -1.
         22    1    1    2    0    0  0.15024664592E+00  0.13794653795E+00  0.37429544190E+01  0.37485078478E+01  0.00000000000E+00 0.  1.
</event>
<event>
 5    1  0.3241783E+002  0.1599607E+01  0.7818608E-02  0.3353791E+00
         11   -1    0    0    0    0  0.00000000000E+00  0.00000000000E+00  0.39999999674E+01  0.40000000000E+01  0.51100000000E-03 0. -1.
    9000002   -1    0    0    0    0 -0.00000000000E+00 -0.00000000000E+00  0.00000000000E+00  0.93800000000E+00  0.93800000000E+00 0. -1.
         11    1    1    2    0    0  0.20498389820E-01  0.13120195593E-01  0.43939484049E+00  0.44006864293E+00  0.51100000000E-03 0. -1.
    9000002    1    1    2    0    0 -0.15206878899E+00 -0.16509065125E+00  0.33458245928E-01  0.96506129025E+00  0.93800000000E+00 0. -1.
         22    1    1    2    0    0  0.13157039917E+00  0.15197045566E+00  0.35271468809E+01  0.35328700668E+01  0.00000000000E+00 0. -1.
</event>
<event>
 5    1  0.3241783E+002  0.1599652E+01  0.7818608E-02  0.3353741E+00
         11   -1    0    0    0    0  0.00000000000E+00  0.00000000000E+00  0.39999999674E+01  0.40000000000E+01  0.51100000000E-03 0. -1.
    9000002   -1    0    0    0    0 -0.00000000000E+00 -0.00000000000E+00  0.00000000000E+00  0.93800000000E+00  0.93800000000E+00 0.  1.
         11    1    1    2    0    0 -0.84474458781E-01  0.61024197077E-01  0.78548916271E+00  0.79237199135E+00  0.51100000000E-03 0. -1.
    9000002    1    1    2    0    0  0.43342049241E+00 -0.29699049702E+00  0.18983340522E+00  0.10917588563E+01  0.93800000000E+00 0.  1.
         22    1    1    2    0    0 -0.34894603363E+00  0.23596629994E+00  0.30246773994E+01  0.30538691524E+01  0.00000000000E+00 0. -1.
</event>
<event>
 5    1  0.3241783E+002  0.1598692E+01  0.7818608E-02  0.3354784E+00
         11   -1    0    0    0    0  0.00000000000E+00  0.00000000000E+00  0.39999999674E+01  0.40000000000E+01  0.51100000000E-03 0. -1.
    9000002   -1    0    0    0    0 -0.00000000000E+00 -0.00000000000E+00  0.00000000000E+00  0.93800000000E+00  0.93800000000E+00 0. -1.
         11    1    1    2    0    0 -0.41387167199E-01 -0.56421998971E-01  0.79577230136E+00  0.79884301105E+00  0.51100000000E-03 0. -1.
    9000002    1    1    2    0    0  0.28058807484E+00  0.14960863859E+00  0.68348652453E-01  0.99278796869E+00  0.93800000000E+00 0. -1.
         22    1    1    2    0    0 -0.23920090765E+00 -0.93186639616E-01  0.31358790135E+01  0.31463690203E+01  0.00000000000E+00 0. -1.
</event>
<event>
 5    1  0.3241783E+002  0.1599552E+01  0.7818608E-02  0.3353850E+00
         11   -1    0    0    0    0  0.00000000000E+00  0.00000000000E+00  0.39999999674E+01  0.40000000000E+01  0.51100000000E-03 0. -1.
    9000002   -1    0    0    0    0 -0.00000000000E+00 -0.00000000000E+00  0.00000000000E+00  0.93800000000E+00  0.93800000000E+00 0. -1.
         11    1    1    2    0    0 -0.75959679116E-01  0.25029995923E-01  0.11752214471E+01  0.11779397626E+01  0.51100000000E-03 0. -1.
    9000002    1    1    2    0    0  0.26987399511E+00 -0.12239108289E+00  0.58657879155E-01  0.98544218359E+00  0.93800000000E+00 0. -1.
         22    1    1    2    0    0 -0.19391431600E+00  0.97361086968E-01  0.27661206411E+01  0.27746180538E+01  0.00000000000E+00 0. -1.
</event>
<event>
 5    1  0.3241783E+002  0.1599650E+01  0.7818608E-02  0.3353744E+00
         11   -1    0    0    0    0  0.00000000000E+00  0.00000000000E+00  0.39999999674E+01  0.40000000000E+01  0.51100000000E-03 0. -1.
    9000002   -1    0    0    0    0 -0.00000000000E+00 -0.00000000000E+00  0.00000000000E+00  0.93800000000E+00  0.93800000000E+00 0. -1.
         11    1    1    2    0    0 -0.92999440779E-01 -0.19553509592E-01  0.94189095877E+00  0.94667316168E+00  0.51100000000E-03 0. -1.
    9000002    1    1    2    0    0  0.37289498976E+00  0.99681920936E-01  0.10034048353E+00  0.10192641323E+01  0.93800000000E+00 0. -1.
         22    1    1    2    0    0 -0.27989554899E+00 -0.80128411344E-01  0.29577685251E+01  0.29720627060E+01  0.00000000000E+00 0. -1.
</event>
<event>
 5    1  0.3241783E+002  0.1585173E+01  0.7818608E-02  0.3369615E+00
         11   -1    0    0    0    0  0.00000000000E+00  0.00000000000E+00  0.39999999674E+01  0.40000000000E+01  0.51100000000E-03 0. -1.
    9000002   -1    0    0    0    0 -0.00000000000E+00 -0.00000000000E+00  0.00000000000E+00  0.93800000000E+00  0.93800000000E+00 0.  1.
         11    1    1    2    0    0  0.33959319440E-01  0.11332071763E+00  0.15083475171E+01  0.15129796145E+01  0.51100000000E-03 0. -1.
    9000002    1    1    2    0    0 -0.24206632024E+00  0.38708428944E-01  0.51049209369E-01  0.97084729368E+00  0.93800000000E+00 0.  1.
         22    1    1    2    0    0  0.20810700080E+00 -0.15202914657E+00  0.24406032409E+01  0.24541730918E+01  0.00000000000E+00 0. -1.
</event>
<event>
 5    1  0.3241783E+002  0.1599545E+01  0.7818608E-02  0.3353857E+00
         11   -1    0    0    0    0  0.00000000000E+00  0.00000000000E+00  0.39999999674E+01  0.40000000000E+01  0.51100000000E-03 0.  1.
    9000002   -1    0    0    0    0 -0.00000000000E+00 -0.00000000000E+00  0.00000000000E+00  0.93800000000E+00  0.93800000000E+00 0. -1.
         11    1    1    2    0    0  0.96198695879E-03 -0.60367644579E-04  0.16237231536E-01  0.16273840116E-01  0.51100000000E-03 0.  1.
    9000002    1    1    2    0    0  0.13282906012E+00 -0.17231531200E+00  0.31471617695E-01  0.96341610360E+00  0.93800000000E+00 0. -1.
         22    1    1    2    0    0 -0.13379104708E+00  0.17237567965E+00  0.39522911181E+01  0.39583100563E+01  0.00000000000E+00 0.  1.
</event>
<event>
 5    1  0.3241783E+002  0.1599677E+01  0.7818608E-02  0.3353714E+00
         11   -1    0    0    0    0  0.00000000000E+00  0.00000000000E+00  0.39999999674E+01  0.40000000000E+01  0.51100000000E-03 0.  1.
    9000002   -1    0    0    0    0 -0.00000000000E+00 -0.00000000000E+00  0.00000000000E+00  0.93800000000E+00  0.93800000000E+00 0. -1.
         11    1    1    2    0    0  0.12775047918E+00  0.35754478749E-01  0.11997527364E+01  0.12070648107E+01  0.51100000000E-03 0.  1.
    9000002    1    1    2    0    0 -0.41281897396E+00 -0.11680510451E+00  0.12463739246E+00  0.10389617016E+01  0.93800000000E+00 0. -1.
         22    1    1    2    0    0  0.28506849478E+00  0.81050625763E-01  0.26756098386E+01  0.26919734878E+01  0.00000000000E+00 0.  1.
</event>
<event>
 5    1  0.3241783E+002  0.1597893E+01  0.7818608E-02  0.3355653E+00
         11   -1    0    0    0    0  0.00000000000E+00  0.00000000000E+00  0.39999999674E+01  0.40000000000E+01  0.51100000000E-03 0.  1.
    9000002   -1    0    0    0    0 -0.00000000000E+00 -0.00000000000E+00  0.00000000000E+00  0.93800000000E+00  0.93800000000E+00 0. -1.
         11    1    1    2    0    0 -0.21505672742E+00 -0.48542983298E-01  0.21912018636E+01  0.22022651260E+01  0.51100000000E-03 0.  1.
    9000002    1    1    2    0    0  0.46552663929E+00  0.71481116385E-01  0.15270873733E+00  0.10606547791E+01  0.93800000000E+00 0. -1.
         22    1    1    2    0    0 -0.25046991187E+00 -0.22938133087E-01  0.16560893665E+01  0.16750800949E+01  0.00000000000E+00 0.  1.
</event>
<event>
 5    1  0.3241783E+002  0.1559388E+01  0.7818608E-02  0.3398657E+00
         11   -1    0    0    0    0  0.00000000000E+00  0.00000000000E+00  0.39999999674E+01  0.40000000000E+01  0.51100000000E-03 0. -1.
    9000002   -1    0    0    0    0 -0.00000000000E+00 -0.00000000000E+00  0.00000000000E+00  0.93800000000E+00  0.93800000000E+00 0.  1.
         11    1    1    2    0    0  0.14425790387E+00  0.11374120402E+00  0.26896576137E+01  0.26959239129E+01  0.51100000000E-03 0. -1.
    9000002    1    1    2    0    0  0.11440459671E+00 -0.21677425565E+00  0.71276602415E-01  0.97211308175E+00  0.93800000000E+00 0.  1.
         22    1    1    2    0    0 -0.25866250058E+00  0.10303305164E+00  0.12390657512E+01  0.12699630053E+01  0.00000000000E+00 0. -1.
</event>
<event>
 5    1  0.3241783E+002  0.1599658E+01  0.7818608E-02  0.3353735E+00
         11   -1    0    0    0    0  0.00000000000E+00  0.00000000000E+00  0.39999999674E+01  0.40000000000E+01  0.51100000000E-03 0.  1.
    9000002   -1    0    0    0    0 -0.00000000000E+00 -0.00000000000E+00  0.00000000000E+00  0.93800000000E+00  0.93800000000E+00 0.  1.
         11    1    1    2    0    0  0.29818826379E-01  0.53700939181E-01  0.85234979595E+00  0.85456034839E+00  0.51100000000E-03 0.  1.
    9000002    1    1    2    0    0 -0.15366268104E+00 -0.23607537380E+00  0.52858861744E-01  0.98080673984E+00  0.93800000000E+00 0.  1.
         22    1    1    2    0    0  0.12384385466E+00  0.18237443462E+00  0.30947913097E+01  0.31026329118E+01  0.00000000000E+00 0.  1.
</event>
<event>
 5    1  0.3241783E+002  0.1599673E+01  0.7818608E-02  0.3353719E+00
         11   -1    0    0    0    0  0.00000000000E+00  0.00000000000E+00  0.39999999674E+01  0.40000000000E+01  0.51100000000E-03 0.  1.
    9000002   -1    0    0    0    0 -0.00000000000E+00 -0.00000000000E+00  0.00000000000E+00  0.93800000000E+00  0.93800000000E+00 0.  1.
         11    1    1    2    0    0  0.34201863048E-01  0.26038599376E-02  0.40374011313E+00  0.40519487607E+00  0.51100000000E-03 0.  1.
    9000002    1    1    2    0    0 -0.33882657656E+00 -0.12558473633E-01  0.76994801486E-01  0.10003666146E+01  0.93800000000E+00 0.  1.
         22    1    1    2    0    0  0.30462471351E+00  0.99546136954E-02  0.35192650527E+01  0.35324385093E+01  0.00000000000E+00 0.  1.
</event>
<event>
 5    1  0.3241783E+002  0.1594936E+01  0.7818608E-02  0.3358878E+00
         11   -1    0    0    0    0  0.00000000000E+00  0.00000000000E+00  0.39999999674E+01  0.40000000000E+01  0.51100000000E-03 0.  1.
    9000002   -1    0    0    0    0 -0.00000000000E+00 -0.00000000000E+00  0.00000000000E+00  0.93800000000E+00  0.93800000000E+00 0.  1.
         11    1    1    2    0    0  0.45888521205E+00 -0.12034495431E+00  0.20445018695E+01  0.20988203118E+01  0.51100000000E-03 0.  1.
    9000002    1    1    2    0    0 -0.67943119893E+00  0.16066271554E+00  0.35350841110E+00  0.12215774470E+01  0.93800000000E+00 0.  1.
         22    1    1    2    0    0  0.22054598688E+00 -0.40317761237E-01  0.16019896868E+01  0.16176022412E+01  0.00000000000E+00 0.  1.
</event>
<event>
 5    1  0.3241783E+002  0.1469757E+01  0.7818608E-02  0.3508109E+00
         11   -1    0    0    0    0  0.00000000000E+00  0.00000000000E+00  0.39999999674E+01  0.40000000000E+01  0.51100000000E-03 0.  1.
    9000002   -1    0    0    0    0 -0.00000000000E+00 -0.00000000000E+00  0.00000000000E+00  0.93800000000E+00  0.93800000000E+00 0.  1.
         11    1    1    2    0    0  0.15700197196E+00  0.29806060545E-01  0.11491929321E+00  0.19683679920E+00  0.51100000000E-03 0.  1.
    9000002    1    1    2    0    0  0.23227851206E+00  0.13330436166E+00  0.15552808832E+00  0.98780379948E+00  0.93800000000E+00 0.  1.
         22    1    1    2    0    0 -0.38928048403E+00 -0.16311042221E+00  0.37295525858E+01  0.37533594013E+01  0.00000000000E+00 0.  1.
</event>
<event>
 5    1  0.3241783E+002  0.1599677E+01  0.7818608E-02  0.3353714E+00
         11   -1    0    0    0    0  0.00000000000E+00  0.00000000000E+00  0.39999999674E+01  0.40000000000E+01  0.51100000000E-03 0. -1.
    9000002   -1    0    0    0    0 -0.00000000000E+00 -0.00000000000E+00  0.00000000000E+00  0.93800000000E+00  0.93800000000E+00 0.  1.
         11    1    1    2    0    0  0.55093357643E-01  0.11421956246E+00  0.79766143905E+00  0.80767903214E+00  0.51100000000E-03 0. -1.
    9000002    1    1    2    0    0 -0.26024924072E+00 -0.53931498267E+00  0.25012563950E+00  0.11406126220E+01  0.93800000000E+00 0.  1.
         22    1    1    2    0    0  0.20515588308E+00  0.42509542021E+00  0.29522128888E+01  0.29897083459E+01  0.00000000000E+00 0. -1.
</event>
<event>
 5    1  0.3241783E+002  0.1599676E+01  0.7818608E-02  0.3353715E+00
         11   -1    0    0    0    0  0.00000000000E+00  0.00000000000E+00  0.39999999674E+01  0.40000000000E+01  0.51100000000E-03 0.  1.
    9000002   -1    0    0    0    0 -0.00000000000E+00 -0.00000000000E+00  0.00000000000E+00  0.93800000000E+00  0.93800000000E+00 0. -1.
         11    1    1    2    0    0 -0.26271811578E+00  0.20292116043E+00  0.17555523246E+01  0.17866622600E+01  0.51100000000E-03 0.  1.
    9000002    1    1    2    0    0  0.54645507183E+00 -0.42156659848E+00  0.33953359674E+00  0.12130369351E+01  0.93800000000E+00 0. -1.
         22    1    1    2    0    0 -0.28373695605E+00  0.21864543805E+00  0.19049140460E+01  0.19383008049E+01  0.00000000000E+00 0.  1.
</event>
<event>
 5    1  0.3241783E+002  0.1599634E+01  0.7818608E-02  0.3353761E+00
         11   -1    0    0    0    0  0.00000000000E+00  0.00000000000E+00  0.39999999674E+01  0.40000000000E+01  0.51100000000E-03 0. -1.
    9000002   -1    0    0    0    0 -0.00000000000E+00 -0.00000000000E+00  0.00000000000E+00  0.93800000000E+00  0.93800000000E+00 0. -1.
         11    1    1    2    0    0 -0.17719053083E+00  0.22070648073E+00  0.21063885016E+01  0.21253189445E+01  0.51100000000E-03 0. -1.
    9000002    1    1    2    0    0  0.33452038567E+00 -0.40270234618E+00  0.18842249053E+00  0.10906053837E+01  0.93800000000E+00 0. -1.
         22    1    1    2    0    0 -0.15732985484E+00  0.18199586546E+00  0.17051889752E+01  0.17220756718E+01  0.00000000000E+00 0. -1.
</event>
<event>
 5    1  0.3241783E+002  0.1599674E+01  0.7818608E-02  0.3353717E+00
         11   -1    0    0    0    0  0.00000000000E+00  0.00000000000E+00  0.39999999674E+01  0.40000000000E+01  0.51100000000E-03 0.  1.
    9000002   -1    0    0    0    0 -0.00000000000E+00 -0.00000000000E+00  0.00000000000E+00  0.93800000000E+00  0.93800000000E+00 0.  1.
         11    1    1    2    0    0 -0.69535430583E-01 -0.14842873112E+00  0.64552394877E+00  0.66600877914E+00  0.51100000000E-03 0.  1.
    9000002    1    1    2    0    0  0.36273657589E+00  0.79233337539E+00  0.57433956543E+00  0.14032390878E+01  0.93800000000E+00 0.  1.
         22    1    1    2    0    0 -0.29320114531E+00 -0.64390464427E+00  0.27801364532E+01  0.28687521330E+01  0.00000000000E+00 0.  1.
</event>
<event>
 5    1  0.3241783E+002  0.1597992E+01  0.7818608E-02  0.3355546E+00
         11   -1    0    0    0    0  0.00000000000E+00  0.00000000000E+00  0.39999999674E+01  0.40000000000E+01  0.51100000000E-03 0. -1.
    9000002   -1    0    0    0    0 -0.00000000000E+00 -0.00000000000E+00  0.00000000000E+00  0.93800000000E+00  0.93800000000E+00 0. -1.
         11    1    1    2    0    0  0.15686073008E-01 -0.37780040869E-01  0.92965422549E+00  0.93055393420E+00  0.51100000000E-03 0. -1.
    9000002    1    1    2    0    0 -0.19725737366E-01  0.33099698005E+00  0.74919268725E-01  0.99769985584E+00  0.93800000000E+00 0. -1.
         22    1    1    2    0    0  0.40396643572E-02 -0.29321693918E+00  0.29954264731E+01  0.30097462100E+01  0.00000000000E+00 0. -1.
</event>
<event>
 5    1  0.3241783E+002  0.1504963E+01  0.7818608E-02  0.3463446E+00
         11   -1    0    0    0    0  0.00000000000E+00  0.00000000000E+00  0.39999999674E+01  0.40000000000E+01  0.51100000000E-03 0.  1.
    9000002   -1    0    0    0    0 -0.00000000000E+00 -0.00000000000E+00  0.00000000000E+00  0.93800000000E+00  0.93800000000E+00 0.  1.
         11    1    1    2    0    0 -0.24326150812E+00 -0.34780588658E+00  0.94419931717E+00  0.10352090164E+01  0.51100000000E-03 0.  1.
    9000002    1    1    2    0    0  0.53821723641E-01  0.45599668356E+00  0.23102153932E+00  0.10696002548E+01  0.93800000000E+00 0.  1.
         22    1    1    2    0    0  0.18943978448E+00 -0.10819079698E+00  0.28247791109E+01  0.28331907288E+01  0.00000000000E+00 0.  1.
</event>
<event>
 5    1  0.3241783E+002  0.1599671E+01  0.7818608E-02  0.3353720E+00
         11   -1    0    0    0    0  0.00000000000E+00  0.00000000000E+00  0.39999999674E+01  0.40000000000E+01  0.51100000000E-03 0.  1.
    9000002   -1    0    0    0    0 -0.00000000000E+00 -0.00000000000E+00  0.00000000000E+00  0.93800000000E+00  0.93800000000E+00 0. -1.
         11    1    1    2    0    0  0.48316699324E-01  0.10795141935E+00  0.10926364674E+01  0.10990189822E+01  0.51100000000E-03 0.  1.
    9000002    1    1    2    0    0 -0.18011776853E+00 -0.38031825747E+00  0.11978093711E+00  0.10350245699E+01  0.93800000000E+00 0. -1.
         22    1    1    2    0    0  0.13180106920E+00  0.27236683812E+00  0.27875825629E+01  0.28039564478E+01  0.00000000000E+00 0.  1.
</event>
<event>
 5    1  0.3241783E+002  0.1514827E+01  0.7818608E-02  0.3451333E+00
         11   -1    0    0    0    0  0.00000000000E+00  0.00000000000E+00  0.39999999674E+01  0.40000000000E+01  0.51100000000E-03 0. -1.
    9000002   -1    0    0    0    0 -0.00000000000E+00 -0.00000000000E+00  0.00000000000E+00  0.93800000000E+00  0.93800000000E+00 0.  1.
         11    1    1    2    0    0  0.24758714236E+00  0.18731420662E+00  0.14141421177E+01  0.14478204983E+01  0.51100000000E-03 0. -1.
    9000002    1    1    2    0    0  0.69096266931E-01  0.28731216032E-01  0.68141317695E-01  0.94344423050E+00  0.93800000000E+00 0.  1.
         22    1    1    2    0    0 -0.31668340929E+00 -0.21604542265E+00  0.25177165320E+01  0.25467352712E+01  0.00000000000E+00 0. -1.
</event>
<event>
 5    1  0.3241783E+002  0.1599608E+01  0.7818608E-02  0.3353789E+00
         11   -1    0    0    0    0  0.00000000000E+00  0.00000000000E+00  0.39999999674E+01  0.40000000000E+01  0.51100000000E-03 0. -1.
    9000002   -1    0    0    0    0 -0.00000000000E+00 -0.00000000000E+00  0.00000000000E+00  0.93800000000E+00  0.93800000000E+00 0.  1.
         11    1    1    2    0    0 -0.32459034116E-01 -0.13023782528E+00  0.15115253591E+01  0.15174731142E+01  0.51100000000E-03 0. -1.
    9000002    1    1    2    0    0  0.59920516223E-01  0.33140198845E+00  0.75994285330E-01  0.99951832280E+00  0.93800000000E+00 0.  1.
         22    1    1    2    0    0 -0.27461482107E-01 -0.20116416317E+00  0.24124803229E+01  0.24210085630E+01  0.00000000000E+00 0. -1.
</event>
<event>
 5    1  0.3241783E+002  0.1599139E+01  0.7818608E-02  0.3354298E+00
         11   -1    0    0    0    0  0.00000000000E+00  0.00000000000E+00  0.39999999674E+01  0.40000000000E+01  0.51100000000E-03 0.  1.
    9000002   -1    0    0    0    0 -0.00000000000E+00 -0.00000000000E+00  0.00000000000E+00  0.93800000000E+00  0.93800000000E+00 0.  1.
         11    1    1    2    0    0 -0.24213113455E-01  0.17357156546E-01  0.31767916155E+00  0.31907343442E+00  0.51100000000E-03 0.  1.
    9000002    1    1    2    0    0  0.24034826425E+00 -0.37561175326E-01  0.39701218719E-01  0.96984448072E+00  0.93800000000E+00 0.  1.
         22    1    1    2    0    0 -0.21613515080E+00  0.20204018780E-01  0.36426195871E+01  0.36490820849E+01  0.00000000000E+00 0.  1.
</event>
<event>
 5    1  0.3241783E+002  0.1599484E+01  0.7818608E-02  0.3353924E+00
         11   -1    0    0    0    0  0.00000000000E+00  0.00000000000E+00  0.39999999674E+01  0.40000000000E+01  0.51100000000E-03 0.  1.
    9000002   -1    0    0    0    0 -0.00000000000E+00 -0.00000000000E+00  0.00000000000E+00  0.93800000000E+00  0.93800000000E+00 0.  1.
         11    1    1    2    0    0  0.31444994914E-01 -0.12268664659E+00  0.16546210334E+01  0.16594613060E+01  0.51100000000E-03 0.  1.
    9000002    1    1    2    0    0 -0.88697094048E-01  0.32751028644E+00  0.77260954224E-01  0.10004715974E+01  0.93800000000E+00 0.  1.
         22    1    1    2    0    0  0.57252099134E-01 -0.20482363985E+00  0.22681179798E+01  0.22780670966E+01  0.00000000000E+00 0.  1.
</event>
<event>
 5    1  0.3241783E+002  0.1599581E+01  0.7818608E-02  0.3353818E+00
         11   -1    0    0    0    0  0.00000000000E+00  0.00000000000E+00  0.39999999674E+01  0.40000000000E+01  0.51100000000E-03 0.  1.
    9000002   -1    0    0    0    0 -0.00000000000E+00 -0.00000000000E+00  0.00000000000E+00  0.93800000000E+00  0.93800000000E+00 0. -1.
         11    1    1    2    0    0  0.11152572586E+00 -0.72010437839E-01  0.10503714504E+01  0.10587275077E+01  0.51100000000E-03 0.  1.
    9000002    1    1    2    0    0 -0.39065053089E+00  0.23102548337E+00  0.14006151965E+00  0.10513999432E+01  0.93800000000E+00 0. -1.
         22    1    1    2    0    0  0.27912480502E+00 -0.15901504553E+00  0.28095669973E+01  0.28278725491E+01  0.00000000000E+00 0.  1.
</event>
<event>
 5    1  0.3241783E+002  0.1478106E+01  0.7818608E-02  0.3497310E+00
         11   -1    0    0    0    0  0.00000000000E+00  0.00000000000E+00  0.39999999674E+01  0.40000000000E+01  0.51100000000E-03 0.  1.
    9000002   -1    0    0    0    0 -0.00000000000E+00 -0.00000000000E+00  0.00000000000E+00  0.93800000000E+00  0.93800000000E+00 0. -1.
         11    1    1    2    0    0  0.16463035697E+00  0.36742048418E+00  0.11807931720E+01  0.12475470905E+01  0.51100000000E-03 0.  1.
    9000002    1    1    2    0    0 -0.13630708992E-01 -0.48952056904E-01  0.95702783081E-01  0.94423785287E+00  0.93800000000E+00 0. -1.
         22    1    1    2    0    0 -0.15099964798E+00 -0.31846842727E+00  0.27235040122E+01  0.27462150567E+01  0.00000000000E+00 0. -1.
</event>
<event>
 5    1  0.3241783E+002  0.1586890E+01  0.7818608E-02  0.3367716E+00
         11   -1    0    0    0    0  0.00000000000E+00  0.00000000000E+00  0.39999999674E+01  0.40000000000E+01  0.51100000000E-03 0. -1.
    9000002   -1    0    0    0    0 -0.00000000000E+00 -0.00000000000E+00  0.00000000000E+00  0.93800000000E+00  0.93800000000E+00 0.  1.
         11    1    1    2    0    0 -0.21956116943E+00 -0.24887563560E+00  0.18234998560E+01  0.18534557386E+01  0.51100000000E-03 0. -1.
    9000002    1    1    2    0    0  0.56654616205E+00  0.25684601266E+00  0.28442445548E+00  0.11608986600E+01  0.93800000000E+00 0.  1.
         22    1    1    2    0    0 -0.34698499262E+00 -0.79703770587E-02  0.18920756559E+01  0.19236456014E+01  0.00000000000E+00 0.  1.
</event>
<event>
 5    1  0.3241783E+002  0.1599675E+01  0.7818608E-02  0.3353716E+00
         11   -1    0    0    0    0  0.00000000000E+00  0.00000000000E+00  0.39999999674E+01  0.40000000000E+01  0.51100000000E-03 0. -1.
    9000002   -1    0    0    0    0 -0.00000000000E+00 -0.00000000000E+00  0.00000000000E+00  0.93800000000E+00  0.93800000000E+00 0.  1.
         11    1    1    2    0    0  0.13069291813E+00 -0.72610439028E-01  0.98601214760E+00  0.99728287414E+00  0.51100000000E-03 0. -1.
    9000002    1    1    2    0    0 -0.50494397648E+00  0.28005580344E+00  0.23152330983E+00  0.11255428537E+01  0.93800000000E+00 0.  1.
         22    1    1    2    0    0  0.37425105835E+00 -0.20744536441E+00  0.27824645099E+01  0.28151742722E+01  0.00000000000E+00 0. -1.
</event>
<event>
 5    1  0.3241783E+002  0.1599677E+01  0.7818608E-02  0.3353714E+00
         11   -1    0    0    0    0  0.00000000000E+00  0.00000000000E+00  0.39999999674E+01  0.40000000000E+01  0.51100000000E-03 0.  1.
    9000002   -1    0    0    0    0 -0.00000000000E+00 -0.00000000000E+00  0.00000000000E+00  0.93800000000E+00  0.93800000000E+00 0.  1.
         11    1    1    2    0    0 -0.10890982823E+00  0.15936711669E+00  0.18336153713E+01  0.18437474934E+01  0.51100000000E-03 0. -1.
    9000002    1    1    2    0    0  0.23105888212E+00 -0.33787927699E+00  0.11315347670E+00  0.10296593233E+01  0.93800000000E+00 0.  1.
         22    1    1    2    0    0 -0.12214905389E+00  0.17851216031E+00  0.20532311194E+01  0.20645931832E+01  0.00000000000E+00 0.  1.
</event>
<event>
 5    1  0.3241783E+002  0.1598483E+01  0.7818608E-02  0.3355012E+00
         11   -1    0    0    0    0  0.00000000000E+00  0.00000000000E+00  0.39999999674E+01  0.40000000000E+01  0.51100000000E-03 0. -1.
    9000002   -1    0    0    0    0 -0.00000000000E+00 -0.00000000000E+00  0.00000000000E+00  0.93800000000E+00  0.93800000000E+00 0.  1.
         11    1    1    2    0    0 -0.13031008694E-01  0.11337143464E-01  0.33529799784E+00  0.33574297682E+00  0.51100000000E-03 0. -1.
    9000002    1    1    2    0    0 -0.10234749742E+00 -0.22917814632E+00  0.42765614932E-01  0.97194162932E+00  0.93800000000E+00 0.  1.
         22    1    1    2    0    0  0.11537850612E+00  0.21784100286E+00  0.36219363546E+01  0.36303153939E+01  0.00000000000E+00 0. -1.
</event>
<event>
 5    1  0.3241783E+002  0.1599675E+01  0.7818608E-02  0.3353716E+00
         11   -1    0    0    0    0  0.00000000000E+00  0.00000000000E+00  0.39999999674E+01  0.40000000000E+01  0.51100000000E-03 0.  1.
    9000002   -1    0    0    0    0 -0.00000000000E+00 -0.00000000000E+00  0.00000000000E+00  0.93800000000E+00  0.93800000000E+00 0.  1.
         11    1    1    2    0    0  0.54064459062E-02  0.72055591307E-02  0.16411352098E+00  0.16436136599E+00  0.51100000000E-03 0. -1.
    9000002    1    1    2    0    0 -0.14155657583E+00 -0.17294802119E+00  0.33118687224E-01  0.96482647644E+00  0.93800000000E+00 0.  1.
         22    1    1    2    0    0  0.13615012992E+00  0.16574246206E+00  0.38027677592E+01  0.38088121576E+01  0.00000000000E+00 0.  1.
</event>
<event>
 5    1  0.3241783E+002  0.1599614E+01  0.7818608E-02  0.3353783E+00
         11   -1    0    0    0    0  0.00000000000E+00  0.00000000000E+00  0.39999999674E+01  0.40000000000E+01  0.51100000000E-03 0. -1.
    9000002   -1    0    0    0    0 -0.00000000000E+00 -0.00000000000E+00  0.00000000000E+00  0.93800000000E+00  0.93800000000E+00 0. -1.
         11    1    1    2    0    0 -0.81975755363E-01  0.12253956451E-01  0.10192426222E+01  0.10226074359E+01  0.51100000000E-03 0. -1.
    9000002    1    1    2    0    0  0.32072515682E+00 -0.79216201311E-01  0.73076489262E-01  0.99715796444E+00  0.93800000000E+00 0. -1.
         22    1    1    2    0    0 -0.23874940145E+00  0.66962244860E-01  0.29076808559E+01  0.29182345997E+01  0.00000000000E+00 0. -1.
</event>
<event>
 5    1  0.3241783E+002  0.1599173E+01  0.7818608E-02  0.3354262E+00
         11   -1    0    0    0    0  0.00000000000E+00  0.00000000000E+00  0.39999999674E+01  0.40000000000E+01  0.51100000000E-03 0.  1.
    9000002   -1    0    0    0    0 -0.00000000000E+00 -0.00000000000E+00  0.00000000000E+00  0.93800000000E+00  0.93800000000E+00 0. -1.
         11    1    1    2    0    0 -0.15013548851E-01 -0.97966000096E-01  0.13448498633E+01  0.13484970003E+01  0.51100000000E-03 0.  1.
    9000002    1    1    2    0    0 -0.65154532922E-02  0.34120023677E+00  0.78417310400E-01  0.10012259122E+01  0.93800000000E+00 0. -1.
         22    1    1    2    0    0  0.21529002143E-01 -0.24323423668E+00  0.25767327936E+01  0.25882770875E+01  0.00000000000E+00 0.  1.
</event>
<event>
 5    1  0.3241783E+002  0.1599531E+01  0.7818608E-02  0.3353872E+00
         11   -1    0    0    0    0  0.00000000000E+00  0.00000000000E+00  0.39999999674E+01  0.40000000000E+01  0.51100000000E-03 0. -1.
    9000002   -1    0    0    0    0 -0.00000000000E+00 -0.00000000000E+00  0.00000000000E+00  0.93800000000E+00  0.93800000000E+00 0.  1.
         11    1    1    2    0    0 -0.47794364151E-02  0.10547858937E-01  0.17737829069E+00  0.17775662989E+00  0.51100000000E-03 0. -1.
    9000002    1    1    2    0    0 -0.14275230571E-01 -0.29162835713E+00  0.56943501151E-01  0.98404138288E+00  0.93800000000E+00 0.  1.
         22    1    1    2    0    0  0.19054666986E-01  0.28108049820E+00  0.37656781755E+01  0.37762019872E+01  0.00000000000E+00 0. -1.
</event>
<event>
 5    1  0.3241783E+002  0.1543287E+01  0.7818608E-02  0.3417315E+00
         11   -1    0    0    0    0  0.00000000000E+00  0.00000000000E+00  0.39999999674E+01  0.40000000000E+01  0.51100000000E-03 0. -1.
    9000002   -1    0    0    0    0 -0.00000000000E+00 -0.00000000000E+00  0.00000000000E+00  0.93800000000E+00  0.93800000000E+00 0.  1.
         11    1    1    2    0    0 -0.13200323548E+00 -0.24443159665E+00  0.11921123046E+01  0.12240521506E+01  0.51100000000E-03 0. -1.
    9000002    1    1    2    0    0  0.24710225885E+00 -0.42445611480E-01  0.86183800661E-01  0.97474755899E+00  0.93800000000E+00 0.  1.
         22    1    1    2    0    0 -0.11509902337E+00  0.28687720813E+00  0.27217038621E+01  0.27392002904E+01  0.00000000000E+00 0. -1.
</event>
<event>
 5    1  0.3241783E+002  0.1598670E+01  0.7818608E-02  0.3354809E+00
         11   -1    0    0    0    0  0.00000000000E+00  0.00000000000E+00  0.39999999674E+01  0.40000000000E+01  0.51100000000E-03 0.  1.
    9000002   -1    0    0    0    0 -0.00000000000E+00 -0.00000000000E+00  0.00000000000E+00  0.93800000000E+00  0.93800000000E+00 0.  1.
         11    1    1    2    0    0 -0.28726612586E-01  0.78128202020E-01  0.10565233318E+01  0.10597976439E+01  0.51100000000E-03 0.  1.
    9000002    1    1    2    0    0 -0.15897900712E-01 -0.31895379231E+00  0.68959066890E-01  0.99326915677E+00  0.93800000000E+00 0.  1.
         22    1    1    2    0    0  0.44624513298E-01  0.24082559029E+00  0.28745175687E+01  0.28849331993E+01  0.00000000000E+00 0.  1.
</event>
<event>
 5    1  0.3241783E+002  0.1599677E+01  0.7818608E-02  0.3353714E+00
         11   -1    0    0    0    0  0.00000000000E+00  0.00000000000E+00  0.39999999674E+01  0.40000000000E+01  0.51100000000E-03 0.  1.
    9000002   -1    0    0    0    0 -0.00000000000E+00 -0.00000000000E+00  0.00000000000E+00  0.93800000000E+00  0.93800000000E+00 0. -1.
         11    1    1    2    0    0 -0.76421845060E-01  0.92535087601E-02  0.76432977817E+00  0.76819671748E+00  0.51100000000E-03 0. -1.
    9000002    1    1    2    0    0  0.38871234262E+00 -0.46208010750E-01  0.10324653124E+00  0.10216341379E+01  0.93800000000E+00 0. -1.
         22    1    1    2    0    0 -0.31229049756E+00  0.36954501990E-01  0.31324236580E+01  0.31481691446E+01  0.00000000000E+00 0.  1.
</event>
<event>
 5    1  0.3241783E+002  0.1585311E+01  0.7818608E-02  0.3369462E+00
         11   -1    0    0    0    0  0.00000000000E+00  0.00000000000E+00  0.39999999674E+01  0.40000000000E+01  0.51100000000E-03 0.  1.
    9000002   -1    0    0    0    0 -0.00000000000E+00 -0.00000000000E+00  0.00000000000E+00  0.93800000000E+00  0.93800000000E+00 0. -1.
         11    1    1    2    0    0 -0.10085003365E+00 -0.89325658277E-01  0.59484105581E+00  0.60990650538E+00  0.51100000000E-03 0.  1.
    9000002    1    1    2    0    0  0.34750670794E+00 -0.21051934868E-01  0.92897607314E-01  0.10048273789E+01  0.93800000000E+00 0. -1.
         22    1    1    2    0    0 -0.24665667429E+00  0.11037759315E+00  0.33122613042E+01  0.33232661157E+01  0.00000000000E+00 0. -1.
</event>
<event>
 5    1  0.3241783E+002  0.1493672E+01  0.7818608E-02  0.3477522E+00
         11   -1    0    0    0    0  0.00000000000E+00  0.00000000000E+00  0.39999999674E+01  0.40000000000E+01  0.51100000000E-03 0.  1.
    9000002   -1    0    0    0    0 -0.00000000000E+00 -0.00000000000E+00  0.00000000000E+00  0.93800000000E+00  0.93800000000E+00 0.  1.
         11    1    1    2    0    0 -0.26030650606E+00 -0.30450557349E+00  0.59304766005E+00  0.71567374522E+00  0.51100000000E-03 0.  1.
    9000002    1    1    2    0    0  0.55249502800E+00  0.29381126220E+00  0.39280857392E+00  0.11940345010E+01  0.93800000000E+00 0.  1.
         22    1    1    2    0    0 -0.29218852194E+00  0.10694311290E-01  0.30141437334E+01  0.30282917538E+01  0.00000000000E+00 0.  1.
</event>
<event>
 5    1  0.3241783E+002  0.1599665E+01  0.7818608E-02  0.3353727E+00
         11   -1    0    0    0    0  0.00000000000E+00  0.00000000000E+00  0.39999999674E+01  0.40000000000E+01  0.51100000000E-03 0.  1.
    9000002   -1    0    0    0    0 -0.00000000000E+00 -0.00000000000E+00  0.00000000000E+00  0.93800000000E+00  0.93800000000E+00 0. -1.
         11    1    1    2    0    0 -0.10509345491E-01  0.15968549677E-02  0.15861083072E+00  0.15896745903E+00  0.51100000000E-03 0.  1.
    9000002    1    1    2    0    0  0.26355532419E+00 -0.16143519459E-02  0.46202458671E-01  0.97541923409E+00  0.93800000000E+00 0. -1.
         22    1    1    2    0    0 -0.25304597870E+00  0.17496978232E-04  0.37951866780E+01  0.38036133069E+01  0.00000000000E+00 0.  1.
</event>
<event>
 5    1  0.3241783E+002  0.1593286E+01  0.7818608E-02  0.3360683E+00
         11   -1    0    0    0    0  0.00000000000E+00  0.00000000000E+00  0.39999999674E+01  0.40000000000E+01  0.51100000000E-03 0.  1.
    9000002   -1    0    0    0    0 -0.00000000000E+00 -0.00000000000E+00  0.00000000000E+00  0.93800000000E+00  0.93800000000E+00 0.  1.
         11    1    1    2    0    0 -0.10503440923E-01 -0.27631685583E-01  0.22416344213E+00  0.22610471518E+00  0.51100000000E-03 0.  1.
    9000002    1    1    2    0    0 -0.22647743514E+00 -0.18129067729E+00  0.61085733637E-01  0.98373462130E+00  0.93800000000E+00 0.  1.
         22    1    1    2    0    0  0.23698087606E+00  0.20892236287E+00  0.37147507916E+01  0.37281606635E+01  0.00000000000E+00 0.  1.
</event>
<event>
 5    1  0.3241783E+002  0.1595347E+01  0.7818608E-02  0.3358430E+00
         11   -1    0    0    0    0  0.00000000000E+00  0.00000000000E+00  0.39999999674E+01  0.40000000000E+01  0.51100000000E-03 0. -1.
    9000002   -1    0    0    0    0 -0.00000000000E+00 -0.00000000000E+00  0.00000000000E+00  0.93800000000E+00  0.93800000000E+00 0.  1.
         11    1    1    2    0    0  0.33858417576E-01  0.44054461584E-02  0.21390766346E+00  0.21661613515E+00  0.51100000000E-03 0. -1.
    9000002    1    1    2    0    0 -0.33357879078E-01  0.21538371358E+00  0.34757197769E-01  0.96361556389E+00  0.93800000000E+00 0.  1.
         22    1    1    2    0    0 -0.50053849805E-03 -0.21978915973E+00  0.37513351061E+01  0.37577683010E+01  0.00000000000E+00 0. -1.
</event>
<event>
 5    1  0.3241783E+002  0.1581829E+01  0.7818608E-02  0.3373324E+00
         11   -1    0    0    0    0  0.00000000000E+00  0.00000000000E+00  0.39999999674E+01  0.40000000000E+01  0.51100000000E-03 0.  1.
    9000002   -1    0    0    0    0 -0.00000000000E+00 -0.00000000000E+00  0.00000000000E+00  0.93800000000E+00  0.93800000000E+00 0. -1.
         11    1    1    2    0    0 -0.74318542886E-01  0.52494251307E-01  0.16098520323E+01  0.16124213839E+01  0.51100000000E-03 0.  1.
    9000002    1    1    2    0    0 -0.20472004856E+00 -0.14988631949E+00  0.56565173711E-01  0.97335493317E+00  0.93800000000E+00 0. -1.
         22    1    1    2    0    0  0.27903859145E+00  0.97392068181E-01  0.23335827614E+01  0.23522236830E+01  0.00000000000E+00 0.  1.
</event>
<event>
 5    1  0.3241783E+002  0.1599663E+01  0.7818608E-02  0.3353730E+00
         11   -1    0    0    0    0  0.00000000000E+00  0.00000000000E+00  0.39999999674E+01  0.40000000000E+01  0.51100000000E-03 0. -1.
    9000002   -1    0    0    0    0 -0.00000000000E+00 -0.00000000000E+00  0.00000000000E+00  0.93800000000E+00  0.93800000000E+00 0. -1.
         11    1    1    2    0    0 -0.68086699578E-01  0.13621143675E+00  0.15500938954E+01  0.15575560022E+01  0.51100000000E-03 0. -1.
    9000002    1    1    2    0    0  0.16413076671E+00 -0.33476840594E+00  0.93462334065E-01  0.10137001539E+01  0.93800000000E+00 0. -1.
         22    1    1    2    0    0 -0.96044067131E-01  0.19855696919E+00  0.23564437379E+01  0.23667438439E+01  0.00000000000E+00 0. -1.
</event>
<event>
 5    1  0.3241783E+002  0.1598741E+01  0.7818608E-02  0.3354731E+00
         11   -1    0    0    0    0  0.00000000000E+00  0.00000000000E+00  0.39999999674E+01  0.40000000000E+01  0.51100000000E-03 0. -1.
    9000002   -1    0    0    0    0 -0.00000000000E+00 -0.00000000000E+00  0.00000000000E+00  0.93800000000E+00  0.93800000000E+00 0.  1.
         11    1    1    2    0    0 -0.13107808142E-01  0.16911084671E-01  0.25151824404E+00  0.25242719272E+00  0.51100000000E-03 0. -1.
    9000002    1    1    2    0    0 -0.76419277530E-01 -0.26907845361E+00  0.52827558141E-01  0.98024378145E+00  0.93800000000E+00 0.  1.
         22    1    1    2    0    0  0.89527085672E-01  0.25216736894E+00  0.36956541652E+01  0.37053290258E+01  0.00000000000E+00 0. -1.
</event>
<event>
 5    1  0.3241783E+002  0.1599671E+01  0.7818608E-02  0.3353721E+00
         11   -1    0    0    0    0  0.00000000000E+00  0.00000000000E+00  0.39999999674E+01  0.40000000000E+01  0.51100000000E-03 0.  1.
    9000002   -1    0    0    0    0 -0.00000000000E+00 -0.00000000000E+00  0.00000000000E+00  0.93800000000E+00  0.93800000000E+00 0. -1.
         11    1    1    2    0    0  0.32120249684E-01 -0.12921671271E+00  0.84743227989E+00  0.85782888702E+00  0.51100000000E-03 0.  1.
    9000002    1    1    2    0    0 -0.14626769210E+00  0.56337759116E+00  0.23549240995E+00  0.11287556082E+01  0.93800000000E+00 0. -1.
         22    1    1    2    0    0  0.11414744242E+00 -0.43416087844E+00  0.29170752775E+01  0.29514155047E+01  0.00000000000E+00 0.  1.
</event>
<event>
 5    1  0.3241783E+002  0.1518388E+01  0.7818608E-02  0.3447003E+00
         11   -1    0    0    0    0  0.00000000000E+00  0.00000000000E+00  0.39999999674E+01  0.40000000000E+01  0.51100000000E-03 0.  1.
    9000002   -1    0    0    0    0 -0.00000000000E+00 -0.00000000000E+00  0.00000000000E+00  0.93800000000E+00  0.93800000000E+00 0.  1.
         11    1    1    2    0    0  0.48937130360E-01  0.14649914065E+00  0.20590326571E+00  0.25739708019E+00  0.51100000000E-03 0.  1.
    9000002    1    1    2    0    0 -0.21683858035E+00  0.19151953164E+00  0.12199231441E+00  0.98915359055E+00  0.93800000000E+00 0.  1.
         22    1    1    2    0    0  0.16790144999E+00 -0.33801867229E+00  0.36721043872E+01  0.36914493293E+01  0.00000000000E+00 0.  1.
</event>
<event>
 5    1  0.3241783E+002  0.1599216E+01  0.7818608E-02  0.3354214E+00
         11   -1    0    0    0    0  0.00000000000E+00  0.00000000000E+00  0.39999999674E+01  0.40000000000E+01  0.51100000000E-03 0.  1.
    9000002   -1    0    0    0    0 -0.00000000000E+00 -0.00000000000E+00  0.00000000000E+00  0.93800000000E+00  0.93800000000E+00 0. -1.
         11    1    1    2    0    0  0.98984439403E-03  0.12122266844E-01  0.96735123312E-01  0.97498073563E-01  0.51100000000E-03 0.  1.
    9000002    1    1    2    0    0 -0.21431431206E+00 -0.21841918450E+00  0.62863880947E-01  0.98865233123E+00  0.93800000000E+00 0. -1.
         22    1    1    2    0    0  0.21332446766E+00  0.20629691766E+00  0.38404009631E+01  0.38518495952E+01  0.00000000000E+00 0.  1.
</event>
<event>
 5    1  0.3241783E+002  0.1599677E+01  0.7818608E-02  0.3353714E+00
         11   -1    0    0    0    0  0.00000000000E+00  0.00000000000E+00  0.39999999674E+01  0.40000000000E+01  0.51100000000E-03 0. -1.
    9000002   -1    0    0    0    0 -0.00000000000E+00 -0.00000000000E+00  0.00000000000E+00  0.93800000000E+00  0.93800000000E+00 0. -1.
         11    1    1    2    0    0  0.10625719327E+00 -0.14426619044E+00  0.17419343066E+01  0.17511249854E+01  0.51100000000E-03 0. -1.
    9000002    1    1    2    0    0 -0.23630507176E+00  0.32197399032E+00  0.10758253523E+00  0.10251464965E+01  0.93800000000E+00 0. -1.
         22    1    1    2    0    0  0.13004787849E+00 -0.17770779989E+00  0.21504831255E+01  0.21617285181E+01  0.00000000000E+00 0. -1.
</event>
<event>
 5    1  0.3241783E+002  0.1557759E+01  0.7818608E-02  0.3400526E+00
         11   -1    0    0    0    0  0.00000000000E+00  0.00000000000E+00  0.39999999674E+01  0.40000000000E+01  0.51100000000E-03 0.  1.
    9000002   -1    0    0    0    0 -0.00000000000E+00 -0.00000000000E+00  0.00000000000E+00  0.93800000000E+00  0.93800000000E+00 0. -1.
         11    1    1    2    0    0  0.17466566312E+00  0.67234880334E-01  0.10505944628E+01  0.10671352348E+01  0.51100000000E-03 0.  1.
    9000002    1    1    2    0    0  0.81476834170E-01  0.10139174675E+00  0.42606079487E-01  0.94793356245E+00  0.93800000000E+00 0. -1.
         22    1    1    2    0    0 -0.25614249729E+00 -0.16862662708E+00  0.29067994251E+01  0.29229312028E+01  0.00000000000E+00 0.  1.
</event>
<event>
 5    1  0.3241783E+002  0.1599477E+01  0.7818608E-02  0.3353932E+00
         11   -1    0    0    0    0  0.00000000000E+00  0.00000000000E+00  0.39999999674E+01  0.40000000000E+01  0.51100000000E-03 0.  1.
    9000002   -1    0    0    0    0 -0.00000000000E+00 -0.00000000000E+00  0.00000000000E+00  0.93800000000E+00  0.93800000000E+00 0.  1.
         11    1    1    2    0    0 -0.20380499886E-01  0.50443767366E-02  0.22723200985E+00  0.22820047751E+00  0.51100000000E-03 0.  1.
    9000002    1    1    2    0    0  0.26343869237E+00  0.15754804212E-01  0.46471420142E-01  0.97552639707E+00  0.93800000000E+00 0.  1.
         22    1    1    2    0    0 -0.24305819248E+00 -0.20799180949E-01  0.37262965374E+01  0.37342731254E+01  0.00000000000E+00 0.  1.
</event>
<event>
 5    1  0.3241783E+002  0.1599668E+01  0.7818608E-02  0.3353724E+00
         11   -1    0    0    0    0  0.00000000000E+00  0.00000000000E+00  0.39999999674E+01  0.40000000000E+01  0.51100000000E-03 0.  1.
    9000002   -1    0    0    0    0 -0.00000000000E+00 -0.00000000000E+00  0.00000000000E+00  0.93800000000E+00  0.93800000000E+00 0. -1.
         11    1    1    2    0    0 -0.89514729405E-02  0.96527275421E-02  0.11828366571E+00  0.11901508607E+00  0.51100000000E-03 0.  1.
    9000002    1    1    2    0    0  0.28017850315E+00 -0.35159074111E+00  0.13727345697E+00  0.10491920915E+01  0.93800000000E+00 0. -1.
         22    1    1    2    0    0 -0.27122703021E+00  0.34193801356E+00  0.37444428447E+01  0.37697928224E+01  0.00000000000E+00 0.  1.
</event>
<event>
 5    1  0.3241783E+002  0.1599631E+01  0.7818608E-02  0.3353764E+00
         11   -1    0    0    0    0  0.00000000000E+00  0.00000000000E+00  0.39999999674E+01  0.40000000000E+01  0.51100000000E-03 0. -1.
    9000002   -1    0    0    0    0 -0.00000000000E+00 -0.00000000000E+00  0.00000000000E+00  0.93800000000E+00  0.93800000000E+00 0. -1.
         11    1    1    2    0    0 -0.54318629618E-01 -0.39210309257E-01  0.69345172570E+00  0.69668035631E+00  0.51100000000E-03 0. -1.
    9000002    1    1    2    0    0  0.33526394561E+00  0.23651726480E+00  0.11374114566E+00  0.10301084302E+01  0.93800000000E+00 0. -1.
         22    1    1    2    0    0 -0.28094531599E+00 -0.19730695554E+00  0.31928070960E+01  0.32112112135E+01  0.00000000000E+00 0. -1.
</event>
<event>
 5    1  0.3241783E+002  0.1599677E+01  0.7818608E-02  0.3353714E+00
         11   -1    0    0    0    0  0.00000000000E+00  0.00000000000E+00  0.39999999674E+01  0.40000000000E+01  0.51100000000E-03 0.  1.
    9000002   -1    0    0    0    0 -0.00000000000E+00 -0.00000000000E+00  0.00000000000E+00  0.93800000000E+00  0.93800000000E+00 0.  1.
         11    1    1    2    0    0 -0.47101402622E-01  0.45507563512E+00  0.22897110042E+01  0.23349709034E+01  0.51100000000E-03 0.  1.
    9000002    1    1    2    0    0  0.73483010900E-01 -0.71950988445E+00  0.37625216210E+00  0.12427807193E+01  0.93800000000E+00 0.  1.
         22    1    1    2    0    0 -0.26381608278E-01  0.26443424933E+00  0.13340368010E+01  0.13602483773E+01  0.00000000000E+00 0. -1.
</event>
<event>
 5    1  0.3241783E+002  0.1548734E+01  0.7818608E-02  0.3410957E+00
         11   -1    0    0    0    0  0.00000000000E+00  0.00000000000E+00  0.39999999674E+01  0.40000000000E+01  0.51100000000E-03 0. -1.
    9000002   -1    0    0    0    0 -0.00000000000E+00 -0.00000000000E+00  0.00000000000E+00  0.93800000000E+00  0.93800000000E+00 0. -1.
         11    1    1    2    0    0  0.11597951552E+00 -0.34255486340E+00  0.17068823856E+01  0.17447758658E+01  0.51100000000E-03 0. -1.
    9000002    1    1    2    0    0  0.19124597869E+00  0.36470856900E+00  0.15863079838E+00  0.10366267867E+01  0.93800000000E+00 0. -1.
         22    1    1    2    0    0 -0.30722549420E+00 -0.22153705595E-01  0.21344867834E+01  0.21565973476E+01  0.00000000000E+00 0.  1.
</event>
<event>
 5    1  0.3241783E+002  0.1599657E+01  0.7818608E-02  0.3353736E+00
         11   -1    0    0    0    0  0.00000000000E+00  0.00000000000E+00  0.39999999674E+01  0.40000000000E+01  0.51100000000E-03 0. -1.
    9000002   -1    0    0    0    0 -0.00000000000E+00 -0.00000000000E+00  0.00000000000E+00  0.93800000000E+00  0.93800000000E+00 0.  1.
         11    1    1    2    0    0 -0.84672341294E-02  0.50715306400E-02  0.11905567388E+00  0.11946517937E+00  0.51100000000E-03 0. -1.
    9000002    1    1    2    0    0  0.27635039472E+00 -0.10849533025E+00  0.58798759900E-01  0.98561760917E+00  0.93800000000E+00 0.  1.
         22    1    1    2    0    0 -0.26788316059E+00  0.10342379961E+00  0.38221455336E+01  0.38329172115E+01  0.00000000000E+00 0. -1.
</event>
<event>
 5    1  0.3241783E+002  0.1586950E+01  0.7818608E-02  0.3367650E+00
         11   -1    0    0    0    0  0.00000000000E+00  0.00000000000E+00  0.39999999674E+01  0.40000000000E+01  0.51100000000E-03 0. -1.
    9000002   -1    0    0    0    0 -0.00000000000E+00 -0.00000000000E+00  0.00000000000E+00  0.93800000000E+00  0.93800000000E+00 0.  1.
         11    1    1    2    0    0 -0.97156233501E-03 -0.33241382077E-01  0.44640789067E-01  0.55668614005E-01  0.51100000000E-03 0. -1.
    9000002    1    1    2    0    0  0.25248613557E+00  0.22234997842E+00  0.86018310133E-01  0.10002159323E+01  0.93800000000E+00 0.  1.
         22    1    1    2    0    0 -0.25151457324E+00 -0.18910859634E+00  0.38693408682E+01  0.38821154537E+01  0.00000000000E+00 0. -1.
</event>
<event>
 5    1  0.3241783E+002  0.1599659E+01  0.7818608E-02  0.3353733E+00
         11   -1    0    0    0    0  0.00000000000E+00  0.00000000000E+00  0.39999999674E+01  0.40000000000E+01  0.51100000000E-03 0.  1.
    9000002   -1    0    0    0    0 -0.00000000000E+00 -0.00000000000E+00  0.00000000000E+00  0.93800000000E+00  0.93800000000E+00 0.  1.
         11    1    1    2    0    0 -0.59482765012E-01  0.67987235352E-01  0.10976518885E+01  0.11013629705E+01  0.51100000000E-03 0.  1.
    9000002    1    1    2    0    0  0.22091307711E+00 -0.22933192609E+00  0.67776273750E-01  0.99289140557E+00  0.93800000000E+00 0.  1.
         22    1    1    2    0    0 -0.16143031210E+00  0.16134469074E+00  0.28345718052E+01  0.28437456239E+01  0.00000000000E+00 0.  1.
</event>
<event>
 5    1  0.3241783E+002  0.1599675E+01  0.7818608E-02  0.3353716E+00
         11   -1    0    0    0    0  0.00000000000E+00  0.00000000000E+00  0.39999999674E+01  0.40000000000E+01  0.51100000000E-03 0. -1.
    9000002   -1    0    0    0    0 -0.00000000000E+00 -0.00000000000E+00  0.00000000000E+00  0.93800000000E+00  0.93800000000E+00 0. -1.
         11    1    1    2    0    0  0.12135558084E-01  0.36455031990E-02  0.21634490211E+00  0.21671626440E+00  0.51100000000E-03 0.  1.
    9000002    1    1    2    0    0 -0.21336472007E+00 -0.70489728716E-01  0.33482012622E-01  0.96512089957E+00  0.93800000000E+00 0. -1.
         22    1    1    2    0    0  0.20122916199E+00  0.66844225517E-01  0.37501730526E+01  0.37561628360E+01  0.00000000000E+00 0. -1.
</event>
<event>
 5    1  0.3241783E+002  0.1596636E+01  0.7818608E-02  0.3357023E+00
         11   -1    0    0    0    0  0.00000000000E+00  0.00000000000E+00  0.39999999674E+01  0.40000000000E+01  0.51100000000E-03 0. -1.
    9000002   -1    0    0    0    0 -0.00000000000E+00 -0.00000000000E+00  0.00000000000E+00  0.93800000000E+00  0.93800000000E+00 0. -1.
         11    1    1    2    0    0  0.18362795848E+00  0.36117539315E+00  0.26850553139E+01  0.27154537727E+01  0.51100000000E-03 0. -1.
    9000002    1    1    2    0    0 -0.33760226978E+00 -0.51530041555E+00  0.26879341884E+00  0.11539513477E+01  0.93800000000E+00 0. -1.
         22    1    1    2    0    0  0.15397431130E+00  0.15412502240E+00  0.10461512346E+01  0.10685948796E+01  0.00000000000E+00 0.  1.
</event>
<event>
 5    1  0.3241783E+002  0.1599433E+01  0.7818608E-02  0.3353979E+00
         11   -1    0    0    0    0  0.00000000000E+00  0.00000000000E+00  0.39999999674E+01  0.40000000000E+01  0.51100000000E-03 0. -1.
    9000002   -1    0    0    0    0 -0.00000000000E+00 -0.00000000000E+00  0.00000000000E+00  0.93800000000E+00  0.93800000000E+00 0.  1.
         11    1    1    2    0    0  0.30855563472E+00  0.12701689136E-01  0.16517666428E+01  0.16803872220E+01  0.51100000000E-03 0. -1.
    9000002    1    1    2    0    0 -0.67777258286E+00 -0.69082777771E-01  0.33035139125E+00  0.12054559909E+01  0.93800000000E+00 0.  1.
         22    1    1    2    0    0  0.36921694814E+00  0.56381088635E-01  0.20178819334E+01  0.20521567871E+01  0.00000000000E+00 0. -1.
</event>
<event>
 5    1  0.3241783E+002  0.1558738E+01  0.7818608E-02  0.3399403E+00
         11   -1    0    0    0    0  0.00000000000E+00  0.00000000000E+00  0.39999999674E+01  0.40000000000E+01  0.51100000000E-03 0.  1.
    9000002   -1    0    0    0    0 -0.00000000000E+00 -0.00000000000E+00  0.00000000000E+00  0.93800000000E+00  0.93800000000E+00 0. -1.
         11    1    1    2    0    0  0.22543055025E+00 -0.10921229812E+00  0.62527328225E+00  0.67358236146E+00  0.51100000000E-03 0.  1.
    9000002    1    1    2    0    0 -0.65167135139E+00 -0.23049410907E+00  0.38758036860E+00  0.12279518014E+01  0.93800000000E+00 0. -1.
         22    1    1    2    0    0  0.42624080114E+00  0.33970640720E+00  0.29871463165E+01  0.30364658371E+01  0.00000000000E+00 0.  1.
</event>
<event>
 5    1  0.3241783E+002  0.1598774E+01  0.7818608E-02  0.3354695E+00
         11   -1    0    0    0    0  0.00000000000E+00  0.00000000000E+00  0.39999999674E+01  0.40000000000E+01  0.51100000000E-03 0. -1.
    9000002   -1    0    0    0    0 -0.00000000000E+00 -0.00000000000E+00  0.00000000000E+00  0.93800000000E+00  0.93800000000E+00 0.  1.
         11    1    1    2    0    0  0.12678654862E-02 -0.24166685672E-02  0.38657434127E+00  0.38658431192E+00  0.51100000000E-03 0. -1.
    9000002    1    1    2    0    0 -0.45561908000E-01 -0.19298806160E+00  0.26704303889E-01  0.95910239246E+00  0.93800000000E+00 0.  1.
         22    1    1    2    0    0  0.44294042514E-01  0.19540473017E+00  0.35867213222E+01  0.35923132956E+01  0.00000000000E+00 0. -1.
</event>
<event>
 5    1  0.3241783E+002  0.1599661E+01  0.7818608E-02  0.3353732E+00
         11   -1    0    0    0    0  0.00000000000E+00  0.00000000000E+00  0.39999999674E+01  0.40000000000E+01  0.51100000000E-03 0. -1.
    9000002   -1    0    0    0    0 -0.00000000000E+00 -0.00000000000E+00  0.00000000000E+00  0.93800000000E+00  0.93800000000E+00 0. -1.
         11    1    1    2    0    0  0.23931835136E-01 -0.89555260836E-01  0.10471337573E+01  0.10512289210E+01  0.51100000000E-03 0. -1.
    9000002    1    1    2    0    0 -0.73437579442E-01  0.33529760194E+00  0.78952933038E-01  0.10019456700E+01  0.93800000000E+00 0. -1.
         22    1    1    2    0    0  0.49505744306E-01 -0.24574234110E+00  0.28739132770E+01  0.28848254090E+01  0.00000000000E+00 0. -1.
</event>
<event>
 5    1  0.3241783E+002  0.1599668E+01  0.7818608E-02  0.3353723E+00
         11   -1    0    0    0    0  0.00000000000E+00  0.00000000000E+00  0.39999999674E+01  0.40000000000E+01  0.51100000000E-03 0. -1.
    9000002   -1    0    0    0    0 -0.00000000000E+00 -0.00000000000E+00  0.00000000000E+00  0.93800000000E+00  0.93800000000E+00 0. -1.
         11    1    1    2    0    0 -0.29046780928E-01  0.98340441802E-01  0.10469123537E+01  0.10519221908E+01  0.51100000000E-03 0. -1.
    9000002    1    1    2    0    0  0.11975951794E+00 -0.36455135230E+00  0.99121002782E-01  0.10182872894E+01  0.93800000000E+00 0. -1.
         22    1    1    2    0    0 -0.90712737015E-01  0.26621091050E+00  0.28539666108E+01  0.28677905198E+01  0.00000000000E+00 0. -1.
</event>
<event>
 5    1  0.3241783E+002  0.1599677E+01  0.7818608E-02  0.3353714E+00
         11   -1    0    0    0    0  0.00000000000E+00  0.00000000000E+00  0.39999999674E+01  0.40000000000E+01  0.51100000000E-03 0. -1.
    9000002   -1    0    0    0    0 -0.00000000000E+00 -0.00000000000E+00  0.00000000000E+00  0.93800000000E+00  0.93800000000E+00 0. -1.
         11    1    1    2    0    0 -0.17931219090E+00 -0.10658878983E+00  0.19093286047E+01  0.19206899838E+01  0.51100000000E-03 0. -1.
    9000002    1    1    2    0    0  0.36401771678E+00  0.21612178939E+00  0.12126089819E+00  0.10362266795E+01  0.93800000000E+00 0. -1.
         22    1    1    2    0    0 -0.18470552588E+00 -0.10953299956E+00  0.19694104645E+01  0.19810833367E+01  0.00000000000E+00 0. -1.
</event>
<event>
 5    1  0.3241783E+002  0.1599663E+01  0.7818608E-02  0.3353729E+00
         11   -1    0    0    0    0  0.00000000000E+00  0.00000000000E+00  0.39999999674E+01  0.40000000000E+01  0.51100000000E-03 0.  1.
    9000002   -1    0    0    0    0 -0.00000000000E+00 -0.00000000000E+00  0.00000000000E+00  0.93800000000E+00  0.93800000000E+00 0. -1.
         11    1    1    2    0    0 -0.11599010537E-01 -0.10335791280E-01  0.12388171102E+00  0.12485313402E+00  0.51100000000E-03 0.  1.
    9000002    1    1    2    0    0  0.39858806654E+00  0.29641937818E+00  0.16882497706E+00  0.10747477692E+01  0.93800000000E+00 0. -1.
         22    1    1    2    0    0 -0.38698905601E+00 -0.28608358690E+00  0.37072932793E+01  0.37383990968E+01  0.00000000000E+00 0.  1.
</event>
<event>
 5    1  0.3241783E+002  0.1558051E+01  0.7818608E-02  0.3400191E+00
         11   -1    0    0    0    0  0.00000000000E+00  0.00000000000E+00  0.39999999674E+01  0.40000000000E+01  0.51100000000E-03 0.  1.
    9000002   -1    0    0    0    0 -0.00000000000E+00 -0.00000000000E+00  0.00000000000E+00  0.93800000000E+00  0.93800000000E+00 0.  1.
         11    1    1    2    0    0  0.68664165676E-01  0.19455792349E+00  0.30589576729E+01  0.30659076729E+01  0.51100000000E-03 0.  1.
    9000002    1    1    2    0    0  0.15066314317E+00 -0.34204108955E+00  0.12876631490E+00  0.10178979583E+01  0.93800000000E+00 0.  1.
         22    1    1    2    0    0 -0.21932730884E+00  0.14748316606E+00  0.81227597957E+00  0.85419436879E+00  0.00000000000E+00 0.  1.
</event>
<event>
 5    1  0.3241783E+002  0.1578386E+01  0.7818608E-02  0.3377162E+00
         11   -1    0    0    0    0  0.00000000000E+00  0.00000000000E+00  0.39999999674E+01  0.40000000000E+01  0.51100000000E-03 0. -1.
    9000002   -1    0    0    0    0 -0.00000000000E+00 -0.00000000000E+00  0.00000000000E+00  0.93800000000E+00  0.93800000000E+00 0.  1.
         11    1    1    2    0    0  0.65275139669E-01  0.11089458309E+00  0.25122057507E+01  0.25154992442E+01  0.51100000000E-03 0. -1.
    9000002    1    1    2    0    0  0.14160204026E+00 -0.66774288645E-01  0.32098871772E-01  0.95151683169E+00  0.93800000000E+00 0.  1.
         22    1    1    2    0    0 -0.20687717992E+00 -0.44120294443E-01  0.14556953448E+01  0.14709839241E+01  0.00000000000E+00 0. -1.
</event>
<event>
 5    1  0.3241783E+002  0.1599602E+01  0.7818608E-02  0.3353795E+00
         11   -1    0    0    0    0  0.00000000000E+00  0.00000000000E+00  0.39999999674E+01  0.40000000000E+01  0.51100000000E-03 0. -1.
    9000002   -1    0    0    0    0 -0.00000000000E+00 -0.00000000000E+00  0.00000000000E+00  0.93800000000E+00  0.93800000000E+00 0. -1.
         11    1    1    2    0    0 -0.56322372979E-01 -0.14375338026E-01  0.99515352098E+00  0.99684986406E+00  0.51100000000E-03 0. -1.
    9000002    1    1    2    0    0  0.25139115931E+00  0.80157253313E-01  0.46357896357E-01  0.97550794707E+00  0.93800000000E+00 0. -1.
         22    1    1    2    0    0 -0.19506878633E+00 -0.65781915286E-01  0.29584885500E+01  0.29656421889E+01  0.00000000000E+00 0. -1.
</event>
<event>
 5    1  0.3241783E+002  0.1583788E+01  0.7818608E-02  0.3371149E+00
         11   -1    0    0    0    0  0.00000000000E+00  0.00000000000E+00  0.39999999674E+01  0.40000000000E+01  0.51100000000E-03 0. -1.
    9000002   -1    0    0    0    0 -0.00000000000E+00 -0.00000000000E+00  0.00000000000E+00  0.93800000000E+00  0.93800000000E+00 0.  1.
         11    1    1    2    0    0 -0.22837754700E+00  0.30289272697E-01  0.14551575957E+01  0.14732812472E+01  0.51100000000E-03 0. -1.
    9000002    1    1    2    0    0  0.25929014507E+00 -0.25613863561E+00  0.10223891884E+00  0.10115014466E+01  0.93800000000E+00 0.  1.
         22    1    1    2    0    0 -0.30912598066E-01  0.22584936291E+00  0.24426034528E+01  0.24532173062E+01  0.00000000000E+00 0. -1.
</event>
<event>
 5    1  0.3241783E+002  0.1596714E+01  0.7818608E-02  0.3356937E+00
         11   -1    0    0    0    0  0.00000000000E+00  0.00000000000E+00  0.39999999674E+01  0.40000000000E+01  0.51100000000E-03 0.  1.
    9000002   -1    0    0    0    0 -0.00000000000E+00 -0.00000000000E+00  0.00000000000E+00  0.93800000000E+00  0.93800000000E+00 0. -1.
         11    1    1    2    0    0 -0.22616209992E+00  0.79746357924E-01  0.25144344521E+01  0.25258443444E+01  0.51100000000E-03 0.  1.
    9000002    1    1    2    0    0  0.39450095303E+00 -0.20671960208E+00  0.13718815464E+00  0.10473913240E+01  0.93800000000E+00 0. -1.
         22    1    1    2    0    0 -0.16833885311E+00  0.12697324416E+00  0.13483773606E+01  0.13647643316E+01  0.00000000000E+00 0.  1.
</event>
<event>
 5    1  0.3241783E+002  0.1589659E+01  0.7818608E-02  0.3364664E+00
         11   -1    0    0    0    0  0.00000000000E+00  0.00000000000E+00  0.39999999674E+01  0.40000000000E+01  0.51100000000E-03 0. -1.
    9000002   -1    0    0    0    0 -0.00000000000E+00 -0.00000000000E+00  0.00000000000E+00  0.93800000000E+00  0.93800000000E+00 0.  1.
         11    1    1    2    0    0  0.41382028851E-01  0.26920481768E-01  0.29157423116E+00  0.29572449687E+00  0.51100000000E-03 0. -1.
    9000002    1    1    2    0    0 -0.18401830488E+00  0.40398946752E+00  0.14238969617E+00  0.10474679241E+01  0.93800000000E+00 0.  1.
         22    1    1    2    0    0  0.14263627603E+00 -0.43090994929E+00  0.35660360400E+01  0.35948075791E+01  0.00000000000E+00 0. -1.
</event>
<event>
 5    1  0.3241783E+002  0.1599672E+01  0.7818608E-02  0.3353719E+00
         11   -1    0    0    0    0  0.00000000000E+00  0.00000000000E+00  0.39999999674E+01  0.40000000000E+01  0.51100000000E-03 0.  1.
    9000002   -1    0    0    0    0 -0.00000000000E+00 -0.00000000000E+00  0.00000000000E+00  0.93800000000E+00  0.93800000000E+00 0.  1.
         11    1    1    2    0    0  0.18358996161E-01  0.11861283259E-01  0.30108781468E+00  0.30188056587E+00  0.51100000000E-03 0.  1.
    9000002    1    1    2    0    0 -0.22445378564E+00 -0.16286679639E+00  0.51204396626E-01  0.97947485189E+00  0.93800000000E+00 0.  1.
         22    1    1    2    0    0  0.20609478948E+00  0.15100551313E+00  0.36477077561E+01  0.36566445822E+01  0.00000000000E+00 0.  1.
</event>
<event>
 5    1  0.3241783E+002  0.1599153E+01  0.7818608E-02  0.3354283E+00
         11   -1    0    0    0    0  0.00000000000E+00  0.00000000000E+00  0.39999999674E+01  0.40000000000E+01  0.51100000000E-03 0. -1.
    9000002   -1    0    0    0    0 -0.00000000000E+00 -0.00000000000E+00  0.00000000000E+00  0.93800000000E+00  0.93800000000E+00 0.  1.
         11    1    1    2    0    0 -0.55216772573E-01  0.43530090707E-01  0.71521262642E+00  0.71866064515E+00  0.51100000000E-03 0. -1.
    9000002    1    1    2    0    0  0.29838378756E+00 -0.12245526804E+00  0.69965066131E-01  0.99436778298E+00  0.93800000000E+00 0.  1.
         22    1    1    2    0    0 -0.24316701498E+00  0.78925177334E-01  0.32148222748E+01  0.32249715719E+01  0.00000000000E+00 0. -1.
</event>
<event>
 5    1  0.3241783E+002  0.1599677E+01  0.7818608E-02  0.3353714E+00
         11   -1    0    0    0    0  0.00000000000E+00  0.00000000000E+00  0.39999999674E+01  0.40000000000E+01  0.51100000000E-03 0. -1.
    9000002   -1    0    0    0    0 -0.00000000000E+00 -0.00000000000E+00  0.00000000000E+00  0.93800000000E+00  0.93800000000E+00 0.  1.
         11    1    1    2    0    0 -0.10657327111E+00  0.46490527580E+00  0.22729955127E+01  0.23224994379E+01  0.51100000000E-03 0. -1.
    9000002    1    1    2    0    0  0.16768198560E+00 -0.73423954471E+00  0.41159136667E+00  0.12714072559E+01  0.93800000000E+00 0.  1.
         22    1    1    2    0    0 -0.61108714488E-01  0.26933426891E+00  0.13154130880E+01  0.13440933061E+01  0.00000000000E+00 0. -1.
</event>
<event>
 5    1  0.3241783E+002  0.1552254E+01  0.7818608E-02  0.3406874E+00
         11   -1    0    0    0    0  0.00000000000E+00  0.00000000000E+00  0.39999999674E+01  0.40000000000E+01  0.51100000000E-03 0. -1.
    9000002   -1    0    0    0    0 -0.00000000000E+00 -0.00000000000E+00  0.00000000000E+00  0.93800000000E+00  0.93800000000E+00 0.  1.
         11    1    1    2    0    0  0.22912398928E+00 -0.26618487563E+00  0.16953032512E+01  0.17313016968E+01  0.51100000000E-03 0. -1.
    9000002    1    1    2    0    0  0.16691928976E-01  0.35929518139E+00  0.12630658434E+00  0.10125062968E+01  0.93800000000E+00 0.  1.
         22    1    1    2    0    0 -0.24581591826E+00 -0.93110305754E-01  0.21783901318E+01  0.21941920064E+01  0.00000000000E+00 0. -1.
</event>
<event>
 5    1  0.3241783E+002  0.1599677E+01  0.7818608E-02  0.3353714E+00
         11   -1    0    0    0    0  0.00000000000E+00  0.00000000000E+00  0.39999999674E+01  0.40000000000E+01  0.51100000000E-03 0.  1.
    9000002   -1    0    0    0    0 -0.00000000000E+00 -0.00000000000E+00  0.00000000000E+00  0.93800000000E+00  0.93800000000E+00 0.  1.
         11    1    1    2    0    0 -0.17560200613E-01 -0.18260338661E+00  0.18374594990E+01  0.18465941701E+01  0.51100000000E-03 0.  1.
    9000002    1    1    2    0    0  0.37308700013E-01  0.38792931301E+00  0.10231375533E+00  0.10208786390E+01  0.93800000000E+00 0.  1.
         22    1    1    2    0    0 -0.19748499401E-01 -0.20532592640E+00  0.20602267131E+01  0.20705271909E+01  0.00000000000E+00 0.  1.
</event>
<event>
 5    1  0.3241783E+002  0.1599603E+01  0.7818608E-02  0.3353795E+00
         11   -1    0    0    0    0  0.00000000000E+00  0.00000000000E+00  0.39999999674E+01  0.40000000000E+01  0.51100000000E-03 0.  1.
    9000002   -1    0    0    0    0 -0.00000000000E+00 -0.00000000000E+00  0.00000000000E+00  0.93800000000E+00  0.93800000000E+00 0.  1.
         11    1    1    2    0    0 -0.10052761720E+00  0.48985480345E-01  0.14356667228E+01  0.14400154788E+01  0.51100000000E-03 0.  1.
    9000002    1    1    2    0    0  0.30125531125E+00 -0.14142760942E+00  0.74185690472E-01  0.99805012296E+00  0.93800000000E+00 0.  1.
         22    1    1    2    0    0 -0.20072769405E+00  0.92442129080E-01  0.24901475541E+01  0.24999343982E+01  0.00000000000E+00 0.  1.
</event>
<event>
 5    1  0.3241783E+002  0.1599670E+01  0.7818608E-02  0.3353721E+00
         11   -1    0    0    0    0  0.00000000000E+00  0.00000000000E+00  0.39999999674E+01  0.40000000000E+01  0.51100000000E-03 0. -1.
    9000002   -1    0    0    0    0 -0.00000000000E+00 -0.00000000000E+00  0.00000000000E+00  0.93800000000E+00  0.93800000000E+00 0.  1.
         11    1    1    2    0    0  0.45865961287E-02 -0.16963244608E-01  0.25686405475E+00  0.25746493407E+00  0.51100000000E-03 0. -1.
    9000002    1    1    2    0    0 -0.89210169429E-01  0.27327695205E+00  0.55071731475E-01  0.98260655527E+00  0.93800000000E+00 0.  1.
         22    1    1    2    0    0  0.84623573300E-01 -0.25631370745E+00  0.36880641811E+01  0.36979285107E+01  0.00000000000E+00 0. -1.
</event>
<event>
 5    1  0.3241783E+002  0.1478047E+01  0.7818608E-02  0.3497385E+00
         11   -1    0    0    0    0  0.00000000000E+00  0.00000000000E+00  0.39999999674E+01  0.40000000000E+01  0.51100000000E-03 0. -1.
    9000002   -1    0    0    0    0 -0.00000000000E+00 -0.00000000000E+00  0.00000000000E+00  0.93800000000E+00  0.93800000000E+00 0. -1.
         11    1    1    2    0    0 -0.30106620403E+00 -0.28813678023E+00  0.12264111911E+01  0.12952792495E+01  0.51100000000E-03 0. -1.
    9000002    1    1    2    0    0  0.49793716839E-01  0.63023608506E-01  0.98644738672E-01  0.94658659083E+00  0.93800000000E+00 0. -1.
         22    1    1    2    0    0  0.25127248719E+00  0.22511317172E+00  0.26749440376E+01  0.26961341597E+01  0.00000000000E+00 0.  1.
</event>
<event>
 5    1  0.3241783E+002  0.1599282E+01  0.7818608E-02  0.3354143E+00
         11   -1    0    0    0    0  0.00000000000E+00  0.00000000000E+00  0.39999999674E+01  0.40000000000E+01  0.51100000000E-03 0. -1.
    9000002   -1    0    0    0    0 -0.00000000000E+00 -0.00000000000E+00  0.00000000000E+00  0.93800000000E+00  0.93800000000E+00 0. -1.
         11    1    1    2    0    0 -0.42783930816E-01 -0.71773842198E-01  0.10409794323E+01  0.10443277209E+01  0.51100000000E-03 0. -1.
    9000002    1    1    2    0    0  0.18077234466E+00  0.34554975174E+00  0.10277974663E+00  0.10210244600E+01  0.93800000000E+00 0. -1.
         22    1    1    2    0    0 -0.13798841385E+00 -0.27377590954E+00  0.28562407885E+01  0.28726478191E+01  0.00000000000E+00 0. -1.
</event>
<event>
 5    1  0.3241783E+002  0.1599621E+01  0.7818608E-02  0.3353775E+00
         11   -1    0    0    0    0  0.00000000000E+00  0.00000000000E+00  0.39999999674E+01  0.40000000000E+01  0.51100000000E-03 0. -1.
    9000002   -1    0    0    0    0 -0.00000000000E+00 -0.00000000000E+00  0.00000000000E+00  0.93800000000E+00  0.93800000000E+00 0.  1.
         11    1    1    2    0    0  0.15784205789E+00 -0.47923373738E+00  0.20559967850E+01  0.21170031014E+01  0.51100000000E-03 0. -1.
    9000002    1    1    2    0    0 -0.25867057371E+00  0.79713143408E+00  0.52445880471E+00  0.13628022699E+01  0.93800000000E+00 0.  1.
         22    1    1    2    0    0  0.10082851581E+00 -0.31789769670E+00  0.14195443777E+01  0.14581946288E+01  0.00000000000E+00 0. -1.
</event>
<event>
 5    1  0.3241783E+002  0.1599135E+01  0.7818608E-02  0.3354302E+00
         11   -1    0    0    0    0  0.00000000000E+00  0.00000000000E+00  0.39999999674E+01  0.40000000000E+01  0.51100000000E-03 0. -1.
    9000002   -1    0    0    0    0 -0.00000000000E+00 -0.00000000000E+00  0.00000000000E+00  0.93800000000E+00  0.93800000000E+00 0. -1.
         11    1    1    2    0    0 -0.15557839216E+00  0.67391928356E-01  0.15892726137E+01  0.15982909653E+01  0.51100000000E-03 0. -1.
    9000002    1    1    2    0    0  0.31829007938E+00 -0.18726856156E+00  0.92085265051E-01  0.10122755479E+01  0.93800000000E+00 0. -1.
         22    1    1    2    0    0 -0.16271168722E+00  0.11987663320E+00  0.23186420886E+01  0.23274334868E+01  0.00000000000E+00 0. -1.
</event>
<event>
 5    1  0.3241783E+002  0.1599639E+01  0.7818608E-02  0.3353755E+00
         11   -1    0    0    0    0  0.00000000000E+00  0.00000000000E+00  0.39999999674E+01  0.40000000000E+01  0.51100000000E-03 0.  1.
    9000002   -1    0    0    0    0 -0.00000000000E+00 -0.00000000000E+00  0.00000000000E+00  0.93800000000E+00  0.93800000000E+00 0.  1.
         11    1    1    2    0    0  0.30234779585E-01 -0.41894462227E-01  0.50575191402E+00  0.50838425184E+00  0.51100000000E-03 0.  1.
    9000002    1    1    2    0    0 -0.22613263301E+00  0.28621931484E+00  0.89396135562E-01  0.10103925638E+01  0.93800000000E+00 0.  1.
         22    1    1    2    0    0  0.19589785343E+00 -0.24432485261E+00  0.34048519178E+01  0.34192231844E+01  0.00000000000E+00 0.  1.
</event>
<event>
 5    1  0.3241783E+002  0.1599674E+01  0.7818608E-02  0.3353717E+00
         11   -1    0    0    0    0  0.00000000000E+00  0.00000000000E+00  0.39999999674E+01  0.40000000000E+01  0.51100000000E-03 0.  1.
    9000002   -1    0    0    0    0 -0.00000000000E+00 -0.00000000000E+00  0.00000000000E+00  0.93800000000E+00  0.93800000000E+00 0.  1.
         11    1    1    2    0    0  0.10486895309E-01  0.40719194987E-02  0.17146642925E+00  0.17183583149E+00  0.51100000000E-03 0.  1.
    9000002    1    1    2    0    0 -0.24304313786E+00 -0.10972450672E+00  0.47301978387E-01  0.97631496526E+00  0.93800000000E+00 0.  1.
         22    1    1    2    0    0  0.23255624255E+00  0.10565258722E+00  0.37812315597E+01  0.37898492032E+01  0.00000000000E+00 0.  1.
</event>
<event>
 5    1  0.3241783E+002  0.1597704E+01  0.7818608E-02  0.3355859E+00
         11   -1    0    0    0    0  0.00000000000E+00  0.00000000000E+00  0.39999999674E+01  0.40000000000E+01  0.51100000000E-03 0. -1.
    9000002   -1    0    0    0    0 -0.00000000000E+00 -0.00000000000E+00  0.00000000000E+00  0.93800000000E+00  0.93800000000E+00 0. -1.
         11    1    1    2    0    0 -0.87646316397E-02 -0.11279148985E-01  0.61456903200E+00  0.61473522283E+00  0.51100000000E-03 0. -1.
    9000002    1    1    2    0    0 -0.18359732386E+00  0.14086700384E+00  0.37022698179E-01  0.96683306226E+00  0.93800000000E+00 0. -1.
         22    1    1    2    0    0  0.19236195550E+00 -0.12958785486E+00  0.33484082372E+01  0.33564317149E+01  0.00000000000E+00 0. -1.
</event>
<event>
 5    1  0.3241783E+002  0.1596748E+01  0.7818608E-02  0.3356900E+00
         11   -1    0    0    0    0  0.00000000000E+00  0.00000000000E+00  0.39999999674E+01  0.40000000000E+01  0.51100000000E-03 0.  1.
    9000002   -1    0    0    0    0 -0.00000000000E+00 -0.00000000000E+00  0.00000000000E+00  0.93800000000E+00  0.93800000000E+00 0. -1.
         11    1    1    2    0    0 -0.61561467922E-01 -0.70568800040E-01  0.64368805579E+00  0.65046471400E+00  0.51100000000E-03 0.  1.
    9000002    1    1    2    0    0  0.97408180945E-01  0.32988253490E+00  0.81629578173E-01  0.10024062193E+01  0.93800000000E+00 0. -1.
         22    1    1    2    0    0 -0.35846713023E-01 -0.25931373486E+00  0.32746823334E+01  0.32851290667E+01  0.00000000000E+00 0.  1.
</event>
<event>
 5    1  0.3241783E+002  0.1498073E+01  0.7818608E-02  0.3472008E+00
         11   -1    0    0    0    0  0.00000000000E+00  0.00000000000E+00  0.39999999674E+01  0.40000000000E+01  0.51100000000E-03 0. -1.
    9000002   -1    0    0    0    0 -0.00000000000E+00 -0.00000000000E+00  0.00000000000E+00  0.93800000000E+00  0.93800000000E+00 0. -1.
         11    1    1    2    0    0  0.64162185668E-03 -0.12822988450E+00  0.60540783538E-01  0.14180536855E+00  0.51100000000E-03 0. -1.
    9000002    1    1    2    0    0 -0.27186622300E+00  0.23193180321E+00  0.17300851856E+00  0.10185674018E+01  0.93800000000E+00 0. -1.
         22    1    1    2    0    0  0.27122460114E+00 -0.10370191871E+00  0.37664506653E+01  0.37776272296E+01  0.00000000000E+00 0. -1.
</event>
<event>
 5    1  0.3241783E+002  0.1599667E+01  0.7818608E-02  0.3353725E+00
         11   -1    0    0    0    0  0.00000000000E+00  0.00000000000E+00  0.39999999674E+01  0.40000000000E+01  0.51100000000E-03 0.  1.
    9000002   -1    0    0    0    0 -0.00000000000E+00 -0.00000000000E+00  0.00000000000E+00  0.93800000000E+00  0.93800000000E+00 0.  1.
         11    1    1    2    0    0  0.60689541441E-01  0.23479233118E-01  0.95217291975E+00  0.95439406173E+00  0.51100000000E-03 0.  1.
    9000002    1    1    2    0    0 -0.24659295394E+00 -0.11003075365E+00  0.48522052755E-01  0.97729895185E+00  0.93800000000E+00 0.  1.
         22    1    1    2    0    0  0.18590341249E+00  0.86551520535E-01  0.29993049949E+01  0.30063069864E+01  0.00000000000E+00 0.  1.
</event>
<event>
 5    1  0.3241783E+002  0.1599632E+01  0.7818608E-02  0.3353762E+00
         11   -1    0    0    0    0  0.00000000000E+00  0.00000000000E+00  0.39999999674E+01  0.40000000000E+01  0.51100000000E-03 0.  1.
    9000002   -1    0    0    0    0 -0.00000000000E+00 -0.00000000000E+00  0.00000000000E+00  0.93800000000E+00  0.93800000000E+00 0.  1.
         11    1    1    2    0    0  0.58422657606E-01  0.13367071850E+00  0.14560023466E+01  0.14632922340E+01  0.51100000000E-03 0.  1.
    9000002    1    1    2    0    0 -0.17697663279E+00 -0.35598151046E+00  0.10660713138E+00  0.10243303397E+01  0.93800000000E+00 0.  1.
         22    1    1    2    0    0  0.11855397519E+00  0.22231079196E+00  0.24373904894E+01  0.24503774263E+01  0.00000000000E+00 0.  1.
</event>
<event>
 5    1  0.3241783E+002  0.1599677E+01  0.7818608E-02  0.3353715E+00
         11   -1    0    0    0    0  0.00000000000E+00  0.00000000000E+00  0.39999999674E+01  0.40000000000E+01  0.51100000000E-03 0.  1.
    9000002   -1    0    0    0    0 -0.00000000000E+00 -0.00000000000E+00  0.00000000000E+00  0.93800000000E+00  0.93800000000E+00 0.  1.
         11    1    1    2    0    0 -0.11169829214E+00  0.75355955698E-01  0.13850240191E+01  0.13915627270E+01  0.51100000000E-03 0.  1.
    9000002    1    1    2    0    0  0.31484967627E+00 -0.21459408492E+00  0.97696134915E-01  0.10171378838E+01  0.93800000000E+00 0.  1.
         22    1    1    2    0    0 -0.20315138413E+00  0.13923812922E+00  0.25172798134E+01  0.25292993892E+01  0.00000000000E+00 0. -1.
</event>
<event>
 5    1  0.3241783E+002  0.1596264E+01  0.7818608E-02  0.3357428E+00
         11   -1    0    0    0    0  0.00000000000E+00  0.00000000000E+00  0.39999999674E+01  0.40000000000E+01  0.51100000000E-03 0.  1.
    9000002   -1    0    0    0    0 -0.00000000000E+00 -0.00000000000E+00  0.00000000000E+00  0.93800000000E+00  0.93800000000E+00 0. -1.
         11    1    1    2    0    0  0.34464947485E-02 -0.52037267734E-01  0.27491122624E+00  0.27981457967E+00  0.51100000000E-03 0.  1.
    9000002    1    1    2    0    0  0.74749838069E-01  0.24584230736E+00  0.46504620257E-01  0.97366968633E+00  0.93800000000E+00 0. -1.
         22    1    1    2    0    0 -0.78196332818E-01 -0.19380503962E+00  0.36785841209E+01  0.36845157340E+01  0.00000000000E+00 0.  1.
</event>
<event>
 5    1  0.3241783E+002  0.1599667E+01  0.7818608E-02  0.3353724E+00
         11   -1    0    0    0    0  0.00000000000E+00  0.00000000000E+00  0.39999999674E+01  0.40000000000E+01  0.51100000000E-03 0. -1.
    9000002   -1    0    0    0    0 -0.00000000000E+00 -0.00000000000E+00  0.00000000000E+00  0.93800000000E+00  0.93800000000E+00 0.  1.
         11    1    1    2    0    0  0.14016594762E+00 -0.21063172700E+00  0.21771916964E+01  0.21918430968E+01  0.51100000000E-03 0. -1.
    9000002    1    1    2    0    0 -0.25394469147E+00  0.37710509233E+00  0.14048977448E+00  0.10517972874E+01  0.93800000000E+00 0.  1.
         22    1    1    2    0    0  0.11377874384E+00 -0.16647336533E+00  0.16823184965E+01  0.16943596158E+01  0.00000000000E+00 0.  1.
</event>
<event>
 5    1  0.3241783E+002  0.1598790E+01  0.7818608E-02  0.3354678E+00
         11   -1    0    0    0    0  0.00000000000E+00  0.00000000000E+00  0.39999999674E+01  0.40000000000E+01  0.51100000000E-03 0. -1.
    9000002   -1    0    0    0    0 -0.00000000000E+00 -0.00000000000E+00  0.00000000000E+00  0.93800000000E+00  0.93800000000E+00 0. -1.
         11    1    1    2    0    0  0.39760377114E-01  0.39614890190E+00  0.24908315097E+01  0.25224505368E+01  0.51100000000E-03 0. -1.
    9000002    1    1    2    0    0 -0.13734062461E-01 -0.61558722322E+00  0.26632865343E+00  0.11532177615E+01  0.93800000000E+00 0. -1.
         22    1    1    2    0    0 -0.26026314653E-01  0.21943832132E+00  0.12428398042E+01  0.12623317016E+01  0.00000000000E+00 0. -1.
</event>
<event>
 5    1  0.3241783E+002  0.1599673E+01  0.7818608E-02  0.3353718E+00
         11   -1    0    0    0    0  0.00000000000E+00  0.00000000000E+00  0.39999999674E+01  0.40000000000E+01  0.51100000000E-03 0. -1.
    9000002   -1    0    0    0    0 -0.00000000000E+00 -0.00000000000E+00  0.00000000000E+00  0.93800000000E+00  0.93800000000E+00 0.  1.
         11    1    1    2    0    0  0.16902286149E-01 -0.30738934888E-01  0.56749633717E+00  0.56857974218E+00  0.51100000000E-03 0. -1.
    9000002    1    1    2    0    0 -0.10921345080E+00  0.22172835166E+00  0.40576404543E-01  0.97086635763E+00  0.93800000000E+00 0.  1.
         22    1    1    2    0    0  0.92311164650E-01 -0.19098941677E+00  0.33919272256E+01  0.33985539002E+01  0.00000000000E+00 0. -1.
</event>
<event>
 5    1  0.3241783E+002  0.1599510E+01  0.7818608E-02  0.3353895E+00
         11   -1    0    0    0    0  0.00000000000E+00  0.00000000000E+00  0.39999999674E+01  0.40000000000E+01  0.51100000000E-03 0.  1.
    9000002   -1    0    0    0    0 -0.00000000000E+00 -0.00000000000E+00  0.00000000000E+00  0.93800000000E+00  0.93800000000E+00 0. -1.
         11    1    1    2    0    0  0.58745153434E-01  0.60569495753E-01  0.11446396479E+01  0.11477455474E+01  0.51100000000E-03 0.  1.
    9000002    1    1    2    0    0 -0.23111672837E+00 -0.16950466435E+00  0.54864093306E-01  0.98234456384E+00  0.93800000000E+00 0. -1.
         22    1    1    2    0    0  0.17237157494E+00  0.10893516860E+00  0.28004962261E+01  0.28079098888E+01  0.00000000000E+00 0.  1.
</event>
<event>
 5    1  0.3241783E+002  0.1599425E+01  0.7818608E-02  0.3353988E+00
         11   -1    0    0    0    0  0.00000000000E+00  0.00000000000E+00  0.39999999674E+01  0.40000000000E+01  0.51100000000E-03 0.  1.
    9000002   -1    0    0    0    0 -0.00000000000E+00 -0.00000000000E+00  0.00000000000E+00  0.93800000000E+00  0.93800000000E+00 0. -1.
         11    1    1    2    0    0  0.52570606234E-01 -0.60347536476E-01  0.47118140145E+00  0.47793061001E+00  0.51100000000E-03 0.  1.
    9000002    1    1    2    0    0 -0.37846978163E+00  0.56517357905E+00  0.32920874901E+00  0.12045260273E+01  0.93800000000E+00 0. -1.
         22    1    1    2    0    0  0.32589917540E+00 -0.50482604257E+00  0.31996098169E+01  0.32555433627E+01  0.00000000000E+00 0.  1.
</event>
<event>
 5    1  0.3241783E+002  0.1599104E+01  0.7818608E-02  0.3354336E+00
         11   -1    0    0    0    0  0.00000000000E+00  0.00000000000E+00  0.39999999674E+01  0.40000000000E+01  0.51100000000E-03 0. -1.
    9000002   -1    0    0    0    0 -0.00000000000E+00 -0.00000000000E+00  0.00000000000E+00  0.93800000000E+00  0.93800000000E+00 0.  1.
         11    1    1    2    0    0 -0.48748163782E-01  0.66233388971E-01  0.12893003600E+01  0.12919206341E+01  0.51100000000E-03 0. -1.
    9000002    1    1    2    0    0  0.13147244154E+00 -0.28291165363E+00  0.65451105383E-01  0.99068251920E+00  0.93800000000E+00 0.  1.
         22    1    1    2    0    0 -0.82724277755E-01  0.21667826466E+00  0.26452485020E+01  0.26553968468E+01  0.00000000000E+00 0. -1.
</event>
<event>
 5    1  0.3241783E+002  0.1563222E+01  0.7818608E-02  0.3394275E+00
         11   -1    0    0    0    0  0.00000000000E+00  0.00000000000E+00  0.39999999674E+01  0.40000000000E+01  0.51100000000E-03 0. -1.
    9000002   -1    0    0    0    0 -0.00000000000E+00 -0.00000000000E+00  0.00000000000E+00  0.93800000000E+00  0.93800000000E+00 0. -1.
         11    1    1    2    0    0 -0.41030207730E+00 -0.42873585804E+00  0.16282012747E+01  0.17329748650E+01  0.51100000000E-03 0. -1.
    9000002    1    1    2    0    0  0.66736628107E+00  0.45883319855E+00  0.53453585562E+00  0.13496215166E+01  0.93800000000E+00 0. -1.
         22    1    1    2    0    0 -0.25706420376E+00 -0.30097340517E-01  0.18372628370E+01  0.18554036184E+01  0.00000000000E+00 0. -1.
</event>
<event>
 5    1  0.3241783E+002  0.1597760E+01  0.7818608E-02  0.3355798E+00
         11   -1    0    0    0    0  0.00000000000E+00  0.00000000000E+00  0.39999999674E+01  0.40000000000E+01  0.51100000000E-03 0. -1.
    9000002   -1    0    0    0    0 -0.00000000000E+00 -0.00000000000E+00  0.00000000000E+00  0.93800000000E+00  0.93800000000E+00 0. -1.
         11    1    1    2    0    0  0.23001680560E+00 -0.16793800765E+00  0.21987869719E+01  0.22171547790E+01  0.51100000000E-03 0. -1.
    9000002    1    1    2    0    0 -0.47554935801E+00  0.24480855895E+00  0.19882270343E+00  0.10979311863E+01  0.93800000000E+00 0.  1.
         22    1    1    2    0    0  0.24553255240E+00 -0.76870551294E-01  0.16023902920E+01  0.16229140347E+01  0.00000000000E+00 0.  1.
</event>
<event>
 5    1  0.3241783E+002  0.1599674E+01  0.7818608E-02  0.3353718E+00
         11   -1    0    0    0    0  0.00000000000E+00  0.00000000000E+00  0.39999999674E+01  0.40000000000E+01  0.51100000000E-03 0.  1.
    9000002   -1    0    0    0    0 -0.00000000000E+00 -0.00000000000E+00  0.00000000000E+00  0.93800000000E+00  0.93800000000E+00 0. -1.
         11    1    1    2    0    0 -0.19490148737E-01  0.26220920452E-02  0.36822988944E+00  0.36875500520E+00  0.51100000000E-03 0.  1.
    9000002    1    1    2    0    0  0.22301030373E+00 -0.28900204762E-01  0.33533764371E-01  0.96516181584E+00  0.93800000000E+00 0. -1.
         22    1    1    2    0    0 -0.20352015499E+00  0.26278112716E-01  0.35982363135E+01  0.36040831790E+01  0.00000000000E+00 0.  1.
</event>
<event>
 5    1  0.3241783E+002  0.1599675E+01  0.7818608E-02  0.3353716E+00
         11   -1    0    0    0    0  0.00000000000E+00  0.00000000000E+00  0.39999999674E+01  0.40000000000E+01  0.51100000000E-03 0.  1.
    9000002   -1    0    0    0    0 -0.00000000000E+00 -0.00000000000E+00  0.00000000000E+00  0.93800000000E+00  0.93800000000E+00 0.  1.
         11    1    1    2    0    0 -0.12631904753E+00 -0.83789137441E-02  0.13083298944E+01  0.13144405965E+01  0.51100000000E-03 0.  1.
    9000002    1    1    2    0    0  0.37590710106E+00  0.29327781132E-01  0.95622606801E-01  0.10154575079E+01  0.93800000000E+00 0.  1.
         22    1    1    2    0    0 -0.24958805353E+00 -0.20948867388E-01  0.25960474661E+01  0.26081018956E+01  0.00000000000E+00 0.  1.
</event>
<event>
 5    1  0.3241783E+002  0.1591104E+01  0.7818608E-02  0.3363076E+00
         11   -1    0    0    0    0  0.00000000000E+00  0.00000000000E+00  0.39999999674E+01  0.40000000000E+01  0.51100000000E-03 0. -1.
    9000002   -1    0    0    0    0 -0.00000000000E+00 -0.00000000000E+00  0.00000000000E+00  0.93800000000E+00  0.93800000000E+00 0.  1.
         11    1    1    2    0    0  0.10099855732E-02 -0.45753549303E-01  0.23083137250E+00  0.23532486268E+00  0.51100000000E-03 0. -1.
    9000002    1    1    2    0    0  0.16074730889E+00 -0.94457137751E-01  0.29417738838E-01  0.95680261891E+00  0.93800000000E+00 0.  1.
         22    1    1    2    0    0 -0.16175729447E+00  0.14021068705E+00  0.37397508560E+01  0.37458725184E+01  0.00000000000E+00 0. -1.
</event>
<event>
 5    1  0.3241783E+002  0.1599677E+01  0.7818608E-02  0.3353714E+00
         11   -1    0    0    0    0  0.00000000000E+00  0.00000000000E+00  0.39999999674E+01  0.40000000000E+01  0.51100000000E-03 0.  1.
    9000002   -1    0    0    0    0 -0.00000000000E+00 -0.00000000000E+00  0.00000000000E+00  0.93800000000E+00  0.93800000000E+00 0.  1.
         11    1    1    2    0    0  0.92711477705E-02  0.21362938978E+00  0.18462101336E+01  0.18585520140E+01  0.51100000000E-03 0.  1.
    9000002    1    1    2    0    0 -0.17881625986E-01 -0.44782757957E+00  0.13639118753E+00  0.10484826415E+01  0.93800000000E+00 0.  1.
         22    1    1    2    0    0  0.86104782154E-02  0.23419818978E+00  0.20173986463E+01  0.20309653445E+01  0.00000000000E+00 0.  1.
</event>
<event>
 5    1  0.3241783E+002  0.1596500E+01  0.7818608E-02  0.3357171E+00
         11   -1    0    0    0    0  0.00000000000E+00  0.00000000000E+00  0.39999999674E+01  0.40000000000E+01  0.51100000000E-03 0. -1.
    9000002   -1    0    0    0    0 -0.00000000000E+00 -0.00000000000E+00  0.00000000000E+00  0.93800000000E+00  0.93800000000E+00 0. -1.
         11    1    1    2    0    0  0.65328812146E-01 -0.11192950194E+00  0.11563680112E+01  0.11636078830E+01  0.51100000000E-03 0. -1.
    9000002    1    1    2    0    0 -0.29223459513E+00  0.18184282015E+00  0.81937112520E-01  0.10025096310E+01  0.93800000000E+00 0. -1.
         22    1    1    2    0    0  0.22690578299E+00 -0.69913318212E-01  0.27616948437E+01  0.27718824860E+01  0.00000000000E+00 0. -1.
</event>
<event>
 5    1  0.3241783E+002  0.1599648E+01  0.7818608E-02  0.3353745E+00
         11   -1    0    0    0    0  0.00000000000E+00  0.00000000000E+00  0.39999999674E+01  0.40000000000E+01  0.51100000000E-03 0.  1.
    9000002   -1    0    0    0    0 -0.00000000000E+00 -0.00000000000E+00  0.00000000000E+00  0.93800000000E+00  0.93800000000E+00 0.  1.
         11    1    1    2    0    0  0.27353292323E+00 -0.49334631508E-03  0.14465059423E+01  0.14721413675E+01  0.51100000000E-03 0.  1.
    9000002    1    1    2    0    0 -0.68026426773E+00 -0.69455597339E-02  0.32907859732E+00  0.12045515506E+01  0.93800000000E+00 0.  1.
         22    1    1    2    0    0  0.40673134450E+00  0.74389060490E-02  0.22244154277E+01  0.22613070820E+01  0.00000000000E+00 0.  1.
</event>
<event>
 5    1  0.3241783E+002  0.1560229E+01  0.7818608E-02  0.3397694E+00
         11   -1    0    0    0    0  0.00000000000E+00  0.00000000000E+00  0.39999999674E+01  0.40000000000E+01  0.51100000000E-03 0. -1.
    9000002   -1    0    0    0    0 -0.00000000000E+00 -0.00000000000E+00  0.00000000000E+00  0.93800000000E+00  0.93800000000E+00 0.  1.
         11    1    1    2    0    0 -0.41915997029E-01 -0.21015613928E+00  0.12561154171E+01  0.12742640056E+01  0.51100000000E-03 0. -1.
    9000002    1    1    2    0    0 -0.45081161407E+00  0.27741174749E+00  0.23025415503E+00  0.11013852028E+01  0.93800000000E+00 0.  1.
         22    1    1    2    0    0  0.49272761110E+00 -0.67255608211E-01  0.25136303952E+01  0.25623507916E+01  0.00000000000E+00 0. -1.
</event>
<event>
 5    1  0.3241783E+002  0.1599608E+01  0.7818608E-02  0.3353789E+00
         11   -1    0    0    0    0  0.00000000000E+00  0.00000000000E+00  0.39999999674E+01  0.40000000000E+01  0.51100000000E-03 0. -1.
    9000002   -1    0    0    0    0 -0.00000000000E+00 -0.00000000000E+00  0.00000000000E+00  0.93800000000E+00  0.93800000000E+00 0.  1.
         11    1    1    2    0    0  0.73795135343E-01 -0.56101809917E-01  0.11093628102E+01  0.11132291951E+01  0.51100000000E-03 0. -1.
    9000002    1    1    2    0    0 -0.26048567611E+00  0.16710292106E+00  0.64005203934E-01  0.98980646584E+00  0.93800000000E+00 0.  1.
         22    1    1    2    0    0  0.18669054076E+00 -0.11100111114E+00  0.28266319532E+01  0.28349643390E+01  0.00000000000E+00 0. -1.
</event>
<event>
 5    1  0.3241783E+002  0.1599296E+01  0.7818608E-02  0.3354128E+00
         11   -1    0    0    0    0  0.00000000000E+00  0.00000000000E+00  0.39999999674E+01  0.40000000000E+01  0.51100000000E-03 0.  1.
    9000002   -1    0    0    0    0 -0.00000000000E+00 -0.00000000000E+00  0.00000000000E+00  0.93800000000E+00  0.93800000000E+00 0.  1.
         11    1    1    2    0    0  0.60977716237E-01 -0.89963703343E-01  0.96136904375E+00  0.96749286778E+00  0.51100000000E-03 0.  1.
    9000002    1    1    2    0    0 -0.16563799351E+00  0.37751382993E+00  0.11514011286E+00  0.10310450438E+01  0.93800000000E+00 0.  1.
         22    1    1    2    0    0  0.10466027728E+00 -0.28755012658E+00  0.29234908107E+01  0.29394620885E+01  0.00000000000E+00 0.  1.
</event>
<event>
 5    1  0.3241783E+002  0.1599465E+01  0.7818608E-02  0.3353944E+00
         11   -1    0    0    0    0  0.00000000000E+00  0.00000000000E+00  0.39999999674E+01  0.40000000000E+01  0.51100000000E-03 0.  1.
    9000002   -1    0    0    0    0 -0.00000000000E+00 -0.00000000000E+00  0.00000000000E+00  0.93800000000E+00  0.93800000000E+00 0. -1.
         11    1    1    2    0    0  0.51096479634E-01 -0.58607970394E-01  0.88392803592E+00  0.88734141019E+00  0.51100000000E-03 0.  1.
    9000002    1    1    2    0    0 -0.18591910642E+00  0.21177958147E+00  0.53057345977E-01  0.98085451889E+00  0.93800000000E+00 0. -1.
         22    1    1    2    0    0  0.13482262678E+00 -0.15317161107E+00  0.30630145855E+01  0.30698040709E+01  0.00000000000E+00 0.  1.
</event>
<event>
 5    1  0.3241783E+002  0.1599632E+01  0.7818608E-02  0.3353763E+00
         11   -1    0    0    0    0  0.00000000000E+00  0.00000000000E+00  0.39999999674E+01  0.40000000000E+01  0.51100000000E-03 0. -1.
    9000002   -1    0    0    0    0 -0.00000000000E+00 -0.00000000000E+00  0.00000000000E+00  0.93800000000E+00  0.93800000000E+00 0. -1.
         11    1    1    2    0    0 -0.94335747156E-03  0.18986936409E-01  0.29031784638E+00  0.29094003974E+00  0.51100000000E-03 0. -1.
    9000002    1    1    2    0    0 -0.41406826440E-01 -0.24137869977E+00  0.39861836241E-01  0.97026345287E+00  0.93800000000E+00 0. -1.
         22    1    1    2    0    0  0.42350183912E-01  0.22239176336E+00  0.36698202847E+01  0.36767965074E+01  0.00000000000E+00 0. -1.
</event>
<event>
 5    1  0.3241783E+002  0.1590842E+01  0.7818608E-02  0.3363364E+00
         11   -1    0    0    0    0  0.00000000000E+00  0.00000000000E+00  0.39999999674E+01  0.40000000000E+01  0.51100000000E-03 0.  1.
    9000002   -1    0    0    0    0 -0.00000000000E+00 -0.00000000000E+00  0.00000000000E+00  0.93800000000E+00  0.93800000000E+00 0.  1.
         11    1    1    2    0    0 -0.10832232573E+00  0.37124461149E-01  0.26225713219E+01  0.26250700089E+01  0.51100000000E-03 0.  1.
    9000002    1    1    2    0    0  0.31654729185E+00 -0.12775882155E-01  0.74073932301E-01  0.99282242047E+00  0.93800000000E+00 0.  1.
         22    1    1    2    0    0 -0.20822496611E+00 -0.24348578994E-01  0.13033547131E+01  0.13201075706E+01  0.00000000000E+00 0.  1.
</event>
<event>
 5    1  0.3241783E+002  0.1599676E+01  0.7818608E-02  0.3353715E+00
         11   -1    0    0    0    0  0.00000000000E+00  0.00000000000E+00  0.39999999674E+01  0.40000000000E+01  0.51100000000E-03 0.  1.
    9000002   -1    0    0    0    0 -0.00000000000E+00 -0.00000000000E+00  0.00000000000E+00  0.93800000000E+00  0.93800000000E+00 0.  1.
         11    1    1    2    0    0  0.26510143308E+00  0.27255479599E+00  0.18833644049E+01  0.19213606193E+01  0.51100000000E-03 0.  1.
    9000002    1    1    2    0    0 -0.50949730387E+00 -0.52151932835E+00  0.38298669725E+00  0.12482358442E+01  0.93800000000E+00 0.  1.
         22    1    1    2    0    0  0.24439587080E+00  0.24896453236E+00  0.17336488652E+01  0.17684035365E+01  0.00000000000E+00 0.  1.
</event>
<event>
 5    1  0.3241783E+002  0.1599676E+01  0.7818608E-02  0.3353715E+00
         11   -1    0    0    0    0  0.00000000000E+00  0.00000000000E+00  0.39999999674E+01  0.40000000000E+01  0.51100000000E-03 0.  1.
    9000002   -1    0    0    0    0 -0.00000000000E+00 -0.00000000000E+00  0.00000000000E+00  0.93800000000E+00  0.93800000000E+00 0.  1.
         11    1    1    2    0    0 -0.15056664348E+00 -0.51109036768E-01  0.17287874898E+01  0.17360843568E+01  0.51100000000E-03 0.  1.
    9000002    1    1    2    0    0  0.34355611973E+00  0.11547569224E+00  0.88206161110E-01  0.10094502314E+01  0.93800000000E+00 0.  1.
         22    1    1    2    0    0 -0.19298947625E+00 -0.64366655475E-01  0.21830063164E+01  0.21924654118E+01  0.00000000000E+00 0.  1.
</event>
<event>
 5    1  0.3241783E+002  0.1598626E+01  0.7818608E-02  0.3354856E+00
         11   -1    0    0    0    0  0.00000000000E+00  0.00000000000E+00  0.39999999674E+01  0.40000000000E+01  0.51100000000E-03 0.  1.
    9000002   -1    0    0    0    0 -0.00000000000E+00 -0.00000000000E+00  0.00000000000E+00  0.93800000000E+00  0.93800000000E+00 0. -1.
         11    1    1    2    0    0 -0.46822274652E-01 -0.15885690094E-01  0.88257405585E+00  0.88395809048E+00  0.51100000000E-03 0.  1.
    9000002    1    1    2    0    0  0.35169634632E+00  0.53728617313E-01  0.85775788724E-01  0.10068657161E+01  0.93800000000E+00 0. -1.
         22    1    1    2    0    0 -0.30487407166E+00 -0.37842927218E-01  0.30316501228E+01  0.30471761934E+01  0.00000000000E+00 0.  1.
</event>
<event>
 5    1  0.3241783E+002  0.1599676E+01  0.7818608E-02  0.3353715E+00
         11   -1    0    0    0    0  0.00000000000E+00  0.00000000000E+00  0.39999999674E+01  0.40000000000E+01  0.51100000000E-03 0.  1.
    9000002   -1    0    0    0    0 -0.00000000000E+00 -0.00000000000E+00  0.00000000000E+00  0.93800000000E+00  0.93800000000E+00 0.  1.
         11    1    1    2    0    0 -0.17875215550E-01  0.14803034787E-01  0.30465737994E+00  0.30554055940E+00  0.51100000000E-03 0.  1.
    9000002    1    1    2    0    0  0.22425153389E+00 -0.19031062301E+00  0.57679477980E-01  0.98472219730E+00  0.93800000000E+00 0.  1.
         22    1    1    2    0    0 -0.20637631834E+00  0.17550758822E+00  0.36376631094E+01  0.36477372433E+01  0.00000000000E+00 0.  1.
</event>
<event>
 5    1  0.3241783E+002  0.1599662E+01  0.7818608E-02  0.3353730E+00
         11   -1    0    0    0    0  0.00000000000E+00  0.00000000000E+00  0.39999999674E+01  0.40000000000E+01  0.51100000000E-03 0.  1.
    9000002   -1    0    0    0    0 -0.00000000000E+00 -0.00000000000E+00  0.00000000000E+00  0.93800000000E+00  0.93800000000E+00 0.  1.
         11    1    1    2    0    0  0.50927754526E-01 -0.31437737745E-01  0.89694898174E+00  0.89894366036E+00  0.51100000000E-03 0.  1.
    9000002    1    1    2    0    0 -0.24086597681E+00  0.14142583393E+00  0.51961488269E-01  0.98008248712E+00  0.93800000000E+00 0.  1.
         22    1    1    2    0    0  0.18993822228E+00 -0.10998809619E+00  0.30510894973E+01  0.30589738525E+01  0.00000000000E+00 0.  1.
</event>
<event>
 5    1  0.3241783E+002  0.1599676E+01  0.7818608E-02  0.3353715E+00
         11   -1    0    0    0    0  0.00000000000E+00  0.00000000000E+00  0.39999999674E+01  0.40000000000E+01  0.51100000000E-03 0. -1.
    9000002   -1    0    0    0    0 -0.00000000000E+00 -0.00000000000E+00  0.00000000000E+00  0.93800000000E+00  0.93800000000E+00 0.  1.
         11    1    1    2    0    0  0.30151590636E-01  0.82222830014E-01  0.11545905789E+01  0.11579073271E+01  0.51100000000E-03 0. -1.
    9000002    1    1    2    0    0 -0.10510412285E+00 -0.28237065887E+00  0.60568292130E-01  0.98706260371E+00  0.93800000000E+00 0.  1.
         22    1    1    2    0    0  0.74952532212E-01  0.20014782886E+00  0.27848410963E+01  0.27930300692E+01  0.00000000000E+00 0. -1.
</event>
<event>
 5    1  0.3241783E+002  0.1550497E+01  0.7818608E-02  0.3408909E+00
         11   -1    0    0    0    0  0.00000000000E+00  0.00000000000E+00  0.39999999674E+01  0.40000000000E+01  0.51100000000E-03 0. -1.
    9000002   -1    0    0    0    0 -0.00000000000E+00 -0.00000000000E+00  0.00000000000E+00  0.93800000000E+00  0.93800000000E+00 0. -1.
         11    1    1    2    0    0 -0.52151123271E+00  0.94698520155E-01  0.15985527088E+01  0.16841356238E+01  0.51100000000E-03 0. -1.
    9000002    1    1    2    0    0  0.59093556703E+00 -0.36935128519E+00  0.40395790842E+00  0.12363863506E+01  0.93800000000E+00 0. -1.
         22    1    1    2    0    0 -0.69424334324E-01  0.27465276504E+00  0.19974893502E+01  0.20174780256E+01  0.00000000000E+00 0.  1.
</event>
<event>
 5    1  0.3241783E+002  0.1599377E+01  0.7818608E-02  0.3354039E+00
         11   -1    0    0    0    0  0.00000000000E+00  0.00000000000E+00  0.39999999674E+01  0.40000000000E+01  0.51100000000E-03 0. -1.
    9000002   -1    0    0    0    0 -0.00000000000E+00 -0.00000000000E+00  0.00000000000E+00  0.93800000000E+00  0.93800000000E+00 0.  1.
         11    1    1    2    0    0 -0.81042090774E-01  0.65452982535E-01  0.15447245854E+01  0.15482332574E+01  0.51100000000E-03 0. -1.
    9000002    1    1    2    0    0  0.25792667969E+00 -0.17369797533E+00  0.64810915221E-01  0.99032399419E+00  0.93800000000E+00 0.  1.
         22    1    1    2    0    0 -0.17688458892E+00  0.10824499280E+00  0.23904644667E+01  0.23994427484E+01  0.00000000000E+00 0. -1.
</event>
<event>
 5    1  0.3241783E+002  0.1599667E+01  0.7818608E-02  0.3353725E+00
         11   -1    0    0    0    0  0.00000000000E+00  0.00000000000E+00  0.39999999674E+01  0.40000000000E+01  0.51100000000E-03 0.  1.
    9000002   -1    0    0    0    0 -0.00000000000E+00 -0.00000000000E+00  0.00000000000E+00  0.93800000000E+00  0.93800000000E+00 0.  1.
         11    1    1    2    0    0 -0.71919305224E-03 -0.17822153827E-02  0.29936059577E-01  0.30002038503E-01  0.51100000000E-03 0. -1.
    9000002    1    1    2    0    0  0.14771939385E+00  0.20869270760E+00  0.43454206807E-01  0.97319367734E+00  0.93800000000E+00 0.  1.
         22    1    1    2    0    0 -0.14700020080E+00 -0.20691049222E+00  0.39266097010E+01  0.39348042842E+01  0.00000000000E+00 0.  1.
</event>
<event>
 5    1  0.3241783E+002  0.1584785E+01  0.7818608E-02  0.3370045E+00
         11   -1    0    0    0    0  0.00000000000E+00  0.00000000000E+00  0.39999999674E+01  0.40000000000E+01  0.51100000000E-03 0. -1.
    9000002   -1    0    0    0    0 -0.00000000000E+00 -0.00000000000E+00  0.00000000000E+00  0.93800000000E+00  0.93800000000E+00 0. -1.
         11    1    1    2    0    0  0.27378498815E+00  0.36752495909E+00  0.18176375053E+01  0.18745237200E+01  0.51100000000E-03 0. -1.
    9000002    1    1    2    0    0 -0.45485504313E+00 -0.46137345163E+00  0.31185959584E+00  0.11818878879E+01  0.93800000000E+00 0. -1.
         22    1    1    2    0    0  0.18107005498E+00  0.93848492541E-01  0.18705028662E+01  0.18815883920E+01  0.00000000000E+00 0.  1.
</event>
<event>
 5    1  0.3241783E+002  0.1598376E+01  0.7818608E-02  0.3355128E+00
         11   -1    0    0    0    0  0.00000000000E+00  0.00000000000E+00  0.39999999674E+01  0.40000000000E+01  0.51100000000E-03 0.  1.
    9000002   -1    0    0    0    0 -0.00000000000E+00 -0.00000000000E+00  0.00000000000E+00  0.93800000000E+00  0.93800000000E+00 0. -1.
         11    1    1    2    0    0  0.63252503672E-01  0.18710362637E-01  0.55322258851E+00  0.55714132000E+00  0.51100000000E-03 0.  1.
    9000002    1    1    2    0    0 -0.32939242987E+00  0.45639318734E-01  0.75045161964E-01  0.99802710214E+00  0.93800000000E+00 0. -1.
         22    1    1    2    0    0  0.26613992619E+00 -0.64349681371E-01  0.33717322169E+01  0.33828315779E+01  0.00000000000E+00 0.  1.
</event>
<event>
 5    1  0.3241783E+002  0.1513359E+01  0.7818608E-02  0.3453126E+00
         11   -1    0    0    0    0  0.00000000000E+00  0.00000000000E+00  0.39999999674E+01  0.40000000000E+01  0.51100000000E-03 0. -1.
    9000002   -1    0    0    0    0 -0.00000000000E+00 -0.00000000000E+00  0.00000000000E+00  0.93800000000E+00  0.93800000000E+00 0. -1.
         11    1    1    2    0    0 -0.17977445866E+00  0.26260526179E+00  0.33117145713E+01  0.33269707006E+01  0.51100000000E-03 0. -1.
    9000002    1    1    2    0    0  0.84175742483E-01 -0.31171377352E-01  0.71078139332E-01  0.94496206923E+00  0.93800000000E+00 0. -1.
         22    1    1    2    0    0  0.95598716177E-01 -0.23143388444E+00  0.61720725668E+00  0.66606723017E+00  0.00000000000E+00 0. -1.
</event>
<event>
 5    1  0.3241783E+002  0.1599614E+01  0.7818608E-02  0.3353783E+00
         11   -1    0    0    0    0  0.00000000000E+00  0.00000000000E+00  0.39999999674E+01  0.40000000000E+01  0.51100000000E-03 0. -1.
    9000002   -1    0    0    0    0 -0.00000000000E+00 -0.00000000000E+00  0.00000000000E+00  0.93800000000E+00  0.93800000000E+00 0. -1.
         11    1    1    2    0    0  0.37187306085E-01 -0.10532731906E+00  0.12920360897E+01  0.12968555271E+01  0.51100000000E-03 0. -1.
    9000002    1    1    2    0    0 -0.88349585089E-01  0.30886781944E+00  0.69040900931E-01  0.99388914124E+00  0.93800000000E+00 0. -1.
         22    1    1    2    0    0  0.51162279004E-01 -0.20354050038E+00  0.26389229767E+01  0.26472553317E+01  0.00000000000E+00 0. -1.
</event>
<event>
 5    1  0.3241783E+002  0.1524872E+01  0.7818608E-02  0.3439171E+00
         11   -1    0    0    0    0  0.00000000000E+00  0.00000000000E+00  0.39999999674E+01  0.40000000000E+01  0.51100000000E-03 0. -1.
    9000002   -1    0    0    0    0 -0.00000000000E+00 -0.00000000000E+00  0.00000000000E+00  0.93800000000E+00  0.93800000000E+00 0. -1.
         11    1    1    2    0    0 -0.26471832403E+00  0.20261754131E+00  0.25663176476E+01  0.25878787044E+01  0.51100000000E-03 0. -1.
    9000002    1    1    2    0    0 -0.24860715561E-01 -0.48485897429E+00  0.23084079312E+00  0.10811279998E+01  0.93800000000E+00 0. -1.
         22    1    1    2    0    0  0.28957903960E+00  0.28224143298E+00  0.12028415266E+01  0.12689932958E+01  0.00000000000E+00 0. -1.
</event>
<event>
 5    1  0.3241783E+002  0.1599677E+01  0.7818608E-02  0.3353714E+00
         11   -1    0    0    0    0  0.00000000000E+00  0.00000000000E+00  0.39999999674E+01  0.40000000000E+01  0.51100000000E-03 0. -1.
    9000002   -1    0    0    0    0 -0.00000000000E+00 -0.00000000000E+00  0.00000000000E+00  0.93800000000E+00  0.93800000000E+00 0. -1.
         11    1    1    2    0    0 -0.24230957467E+00 -0.49765253579E-01  0.18183214794E+01  0.18350705092E+01  0.51100000000E-03 0. -1.
    9000002    1    1    2    0    0  0.50761522682E+00  0.10447923485E+00  0.18444190151E+00  0.10874060622E+01  0.93800000000E+00 0. -1.
         22    1    1    2    0    0 -0.26530565215E+00 -0.54713981272E-01  0.19972365865E+01  0.20155234286E+01  0.00000000000E+00 0. -1.
</event>
<event>
 5    1  0.3241783E+002  0.1591431E+01  0.7818608E-02  0.3362717E+00
         11   -1    0    0    0    0  0.00000000000E+00  0.00000000000E+00  0.39999999674E+01  0.40000000000E+01  0.51100000000E-03 0. -1.
    9000002   -1    0    0    0    0 -0.00000000000E+00 -0.00000000000E+00  0.00000000000E+00  0.93800000000E+00  0.93800000000E+00 0.  1.
         11    1    1    2    0    0  0.27387910924E+00  0.18026030883E+00  0.94295288397E+00  0.99833058048E+00  0.51100000000E-03 0. -1.
    9000002    1    1    2    0    0 -0.72467698843E+00 -0.42159976418E+00  0.53635095624E+00  0.13676327895E+01  0.93800000000E+00 0.  1.
         22    1    1    2    0    0  0.45079787919E+00  0.24133945535E+00  0.25206961272E+01  0.25720366300E+01  0.00000000000E+00 0. -1.
</event>
<event>
 5    1  0.3241783E+002  0.1527262E+01  0.7818608E-02  0.3436303E+00
         11   -1    0    0    0    0  0.00000000000E+00  0.00000000000E+00  0.39999999674E+01  0.40000000000E+01  0.51100000000E-03 0. -1.
    9000002   -1    0    0    0    0 -0.00000000000E+00 -0.00000000000E+00  0.00000000000E+00  0.93800000000E+00  0.93800000000E+00 0. -1.
         11    1    1    2    0    0 -0.11847934032E+00 -0.14061145115E+00  0.27017946174E+00  0.32681208200E+00  0.51100000000E-03 0. -1.
    9000002    1    1    2    0    0 -0.18748625153E+00  0.38380088159E+00  0.18777434011E+00  0.10476437438E+01  0.93800000000E+00 0. -1.
         22    1    1    2    0    0  0.30596559185E+00 -0.24318943044E+00  0.35420461655E+01  0.35635441741E+01  0.00000000000E+00 0. -1.
</event>
<event>
 5    1  0.3241783E+002  0.1599677E+01  0.7818608E-02  0.3353714E+00
         11   -1    0    0    0    0  0.00000000000E+00  0.00000000000E+00  0.39999999674E+01  0.40000000000E+01  0.51100000000E-03 0.  1.
    9000002   -1    0    0    0    0 -0.00000000000E+00 -0.00000000000E+00  0.00000000000E+00  0.93800000000E+00  0.93800000000E+00 0. -1.
         11    1    1    2    0    0  0.79412434463E-01  0.38947031764E+00  0.21199489188E+01  0.21568906191E+01  0.51100000000E-03 0.  1.
    9000002    1    1    2    0    0 -0.13662981619E+00 -0.67373613016E+00  0.33662478823E+00  0.12106809356E+01  0.93800000000E+00 0. -1.
         22    1    1    2    0    0  0.57217381729E-01  0.28426581251E+00  0.15434262603E+01  0.15704284453E+01  0.00000000000E+00 0.  1.
</event>
<event>
 5    1  0.3241783E+002  0.1577234E+01  0.7818608E-02  0.3378449E+00
         11   -1    0    0    0    0  0.00000000000E+00  0.00000000000E+00  0.39999999674E+01  0.40000000000E+01  0.51100000000E-03 0. -1.
    9000002   -1    0    0    0    0 -0.00000000000E+00 -0.00000000000E+00  0.00000000000E+00  0.93800000000E+00  0.93800000000E+00 0.  1.
         11    1    1    2    0    0 -0.10154355561E+00 -0.12616143502E+00  0.13064602150E+01  0.13164597813E+01  0.51100000000E-03 0. -1.
    9000002    1    1    2    0    0 -0.97464428320E-01  0.66897497097E-01  0.25841422702E-01  0.94577289506E+00  0.93800000000E+00 0.  1.
         22    1    1    2    0    0  0.19900798393E+00  0.59263937928E-01  0.26676983297E+01  0.26757673236E+01  0.00000000000E+00 0. -1.
</event>
<event>
 5    1  0.4822557E+002  0.1581738E+01  0.7818608E-02  0.3373426E+00
         11   -1    0    0    0    0  0.00000000000E+00  0.00000000000E+00  0.39999999674E+01  0.40000000000E+01  0.51100000000E-03 0. -1.
    9000002   -1    0    0    0    0 -0.00000000000E+00 -0.00000000000E+00  0.00000000000E+00  0.93800000000E+00  0.93800000000E+00 0. -1.
         11    1    1    2    0    0 -0.16975583008E-01 -0.10357238196E+00  0.22048245782E+01  0.22073212477E+01  0.51100000000E-03 0. -1.
    9000002    1    1    2    0    0  0.50073156284E-01 -0.10170616806E+00  0.21719675151E-01  0.94507524033E+00  0.93800000000E+00 0. -1.
         22    1    1    2    0    0 -0.33097573276E-01  0.20527855002E+00  0.17734557140E+01  0.17856035120E+01  0.00000000000E+00 0. -1.
</event>
<event>
 5    1  0.3241783E+002  0.1598111E+01  0.7818608E-02  0.3355416E+00
         11   -1    0    0    0    0  0.00000000000E+00  0.00000000000E+00  0.39999999674E+01  0.40000000000E+01  0.51100000000E-03 0.  1.
    9000002   -1    0    0    0    0 -0.00000000000E+00 -0.00000000000E+00  0.00000000000E+00  0.93800000000E+00  0.93800000000E+00 0.  1.
         11    1    1    2    0    0  0.15031345488E+00  0.32686705846E+00  0.17249575791E+01  0.17620769334E+01  0.51100000000E-03 0.  1.
    9000002    1    1    2    0    0 -0.30932917232E+00 -0.59500381461E+00  0.32064227688E+00  0.11968164212E+01  0.93800000000E+00 0.  1.
         22    1    1    2    0    0  0.15901571744E+00  0.26813675615E+00  0.19544001114E+01  0.19791066454E+01  0.00000000000E+00 0.  1.
</event>
<event>
 5    1  0.3760773E+002  0.1552116E+01  0.7818608E-02  0.3407033E+00
         11   -1    0    0    0    0  0.00000000000E+00  0.00000000000E+00  0.39999999674E+01  0.40000000000E+01  0.51100000000E-03 0.  1.
    9000002   -1    0    0    0    0 -0.00000000000E+00 -0.00000000000E+00  0.00000000000E+00  0.93800000000E+00  0.93800000000E+00 0.  1.
         11    1    1    2    0    0  0.26466929782E+00 -0.68089705963E-02  0.25954271378E+01  0.26088960286E+01  0.51100000000E-03 0.  1.
    9000002    1    1    2    0    0 -0.33234522029E-01 -0.77309513586E-01  0.40133517179E-01  0.94262187199E+00  0.93800000000E+00 0.  1.
         22    1    1    2    0    0 -0.23143477579E+00  0.84118484182E-01  0.13644393124E+01  0.13864820994E+01  0.00000000000E+00 0. -1.
</event>
<event>
 5    1  0.3241783E+002  0.1599673E+01  0.7818608E-02  0.3353718E+00
         11   -1    0    0    0    0  0.00000000000E+00  0.00000000000E+00  0.39999999674E+01  0.40000000000E+01  0.51100000000E-03 0.  1.
    9000002   -1    0    0    0    0 -0.00000000000E+00 -0.00000000000E+00  0.00000000000E+00  0.93800000000E+00  0.93800000000E+00 0. -1.
         11    1    1    2    0    0 -0.23680851671E-01 -0.21910811051E-02  0.13224922748E+00  0.13437151061E+00  0.51100000000E-03 0. -1.
    9000002    1    1    2    0    0  0.65503172175E+00  0.80331526544E-01  0.30807009355E+00  0.11875482698E+01  0.93800000000E+00 0. -1.
         22    1    1    2    0    0 -0.63135087008E+00 -0.78140445439E-01  0.35596806463E+01  0.36160802196E+01  0.00000000000E+00 0.  1.
</event>
<event>
 5    1  0.3241783E+002  0.1599676E+01  0.7818608E-02  0.3353716E+00
         11   -1    0    0    0    0  0.00000000000E+00  0.00000000000E+00  0.39999999674E+01  0.40000000000E+01  0.51100000000E-03 0. -1.
    9000002   -1    0    0    0    0 -0.00000000000E+00 -0.00000000000E+00  0.00000000000E+00  0.93800000000E+00  0.93800000000E+00 0. -1.
         11    1    1    2    0    0 -0.77027726998E-01 -0.47738520256E-01  0.10535776026E+01  0.10574678543E+01  0.51100000000E-03 0. -1.
    9000002    1    1    2    0    0  0.28583577598E+00  0.17323162453E+00  0.74777863175E-01  0.99857248880E+00  0.93800000000E+00 0. -1.
         22    1    1    2    0    0 -0.20880804899E+00 -0.12549310428E+00  0.28716445015E+01  0.28819596569E+01  0.00000000000E+00 0.  1.
</event>
<event>
 5    1  0.3241783E+002  0.1598607E+01  0.7818608E-02  0.3354876E+00
         11   -1    0    0    0    0  0.00000000000E+00  0.00000000000E+00  0.39999999674E+01  0.40000000000E+01  0.51100000000E-03 0. -1.
    9000002   -1    0    0    0    0 -0.00000000000E+00 -0.00000000000E+00  0.00000000000E+00  0.93800000000E+00  0.93800000000E+00 0. -1.
         11    1    1    2    0    0  0.13090327136E+00 -0.87251688409E-03  0.54253783895E+00  0.55810751254E+00  0.51100000000E-03 0. -1.
    9000002    1    1    2    0    0 -0.70450646354E+00 -0.74540719285E-01  0.36072085676E+00  0.12295727764E+01  0.93800000000E+00 0. -1.
         22    1    1    2    0    0  0.57360319218E+00  0.75413236169E-01  0.30967412717E+01  0.31503197110E+01  0.00000000000E+00 0. -1.
</event>
<event>
 5    1  0.3241783E+002  0.1579258E+01  0.7818608E-02  0.3376188E+00
         11   -1    0    0    0    0  0.00000000000E+00  0.00000000000E+00  0.39999999674E+01  0.40000000000E+01  0.51100000000E-03 0. -1.
    9000002   -1    0    0    0    0 -0.00000000000E+00 -0.00000000000E+00  0.00000000000E+00  0.93800000000E+00  0.93800000000E+00 0.  1.
         11    1    1    2    0    0  0.40331170955E-01  0.73544350857E-01  0.26197038933E+00  0.27507111972E+00  0.51100000000E-03 0. -1.
    9000002    1    1    2    0    0  0.18337546328E+00 -0.76089853008E-01  0.41544869279E-01  0.95968026052E+00  0.93800000000E+00 0.  1.
         22    1    1    2    0    0 -0.22370663424E+00  0.25455021503E-02  0.36964847087E+01  0.37032486198E+01  0.00000000000E+00 0. -1.
</event>
<event>
 5    1  0.3241783E+002  0.1599670E+01  0.7818608E-02  0.3353721E+00
         11   -1    0    0    0    0  0.00000000000E+00  0.00000000000E+00  0.39999999674E+01  0.40000000000E+01  0.51100000000E-03 0. -1.
    9000002   -1    0    0    0    0 -0.00000000000E+00 -0.00000000000E+00  0.00000000000E+00  0.93800000000E+00  0.93800000000E+00 0.  1.
         11    1    1    2    0    0  0.25886292598E-01 -0.11199724362E+00  0.93592373530E+00  0.94295651126E+00  0.51100000000E-03 0. -1.
    9000002    1    1    2    0    0 -0.11045953640E+00  0.46991792894E+00  0.15907219672E+00  0.10668515046E+01  0.93800000000E+00 0.  1.
         22    1    1    2    0    0  0.84573243801E-01 -0.35792068532E+00  0.29050040353E+01  0.29281919841E+01  0.00000000000E+00 0. -1.
</event>
<event>
 5    1  0.3241783E+002  0.1598671E+01  0.7818608E-02  0.3354807E+00
         11   -1    0    0    0    0  0.00000000000E+00  0.00000000000E+00  0.39999999674E+01  0.40000000000E+01  0.51100000000E-03 0.  1.
    9000002   -1    0    0    0    0 -0.00000000000E+00 -0.00000000000E+00  0.00000000000E+00  0.93800000000E+00  0.93800000000E+00 0. -1.
         11    1    1    2    0    0  0.68877548216E-01  0.57688883560E-01  0.13921149808E+01  0.13950112920E+01  0.51100000000E-03 0.  1.
    9000002    1    1    2    0    0 -0.15388313521E+00 -0.25806394268E+00  0.61015510422E-01  0.98683530051E+00  0.93800000000E+00 0. -1.
         22    1    1    2    0    0  0.85005586990E-01  0.20037505912E+00  0.25468694762E+01  0.25561534075E+01  0.00000000000E+00 0. -1.
</event>
<event>
 5    1  0.3241783E+002  0.1418907E+01  0.7818608E-02  0.3577043E+00
         11   -1    0    0    0    0  0.00000000000E+00  0.00000000000E+00  0.39999999674E+01  0.40000000000E+01  0.51100000000E-03 0.  1.
    9000002   -1    0    0    0    0 -0.00000000000E+00 -0.00000000000E+00  0.00000000000E+00  0.93800000000E+00  0.93800000000E+00 0. -1.
         11    1    1    2    0    0 -0.55585575501E+00 -0.34230562199E+00  0.15853079487E+01  0.17144533567E+01  0.51100000000E-03 0.  1.
    9000002    1    1    2    0    0  0.25399477575E+00  0.23895168053E+00  0.24468280941E+00  0.10302062555E+01  0.93800000000E+00 0. -1.
         22    1    1    2    0    0  0.30186097926E+00  0.10335394146E+00  0.21700092093E+01  0.21933403877E+01  0.00000000000E+00 0. -1.
</event>
<event>
 5    1  0.3241783E+002  0.1599659E+01  0.7818608E-02  0.3353733E+00
         11   -1    0    0    0    0  0.00000000000E+00  0.00000000000E+00  0.39999999674E+01  0.40000000000E+01  0.51100000000E-03 0.  1.
    9000002   -1    0    0    0    0 -0.00000000000E+00 -0.00000000000E+00  0.00000000000E+00  0.93800000000E+00  0.93800000000E+00 0. -1.
         11    1    1    2    0    0 -0.76713039339E-01 -0.76442436988E-02  0.11066028104E+01  0.11092850697E+01  0.51100000000E-03 0.  1.
    9000002    1    1    2    0    0  0.28886204104E+00  0.32267608198E-01  0.56324964184E-01  0.98361525958E+00  0.93800000000E+00 0. -1.
         22    1    1    2    0    0 -0.21214900170E+00 -0.24623364499E-01  0.28370721928E+01  0.28450996707E+01  0.00000000000E+00 0.  1.
</event>
<event>
 5    1  0.3241783E+002  0.1560114E+01  0.7818608E-02  0.3397826E+00
         11   -1    0    0    0    0  0.00000000000E+00  0.00000000000E+00  0.39999999674E+01  0.40000000000E+01  0.51100000000E-03 0. -1.
    9000002   -1    0    0    0    0 -0.00000000000E+00 -0.00000000000E+00  0.00000000000E+00  0.93800000000E+00  0.93800000000E+00 0.  1.
         11    1    1    2    0    0  0.97871697228E-01 -0.16532725291E+00  0.16359027794E+01  0.16471460575E+01  0.51100000000E-03 0. -1.
    9000002    1    1    2    0    0 -0.12117551828E+00 -0.15829091600E+00  0.56557573814E-01  0.96061557320E+00  0.93800000000E+00 0.  1.
         22    1    1    2    0    0  0.23303821050E-01  0.32361816891E+00  0.23075396141E+01  0.23302383693E+01  0.00000000000E+00 0. -1.
</event>
<event>
 5    1  0.3241783E+002  0.1598604E+01  0.7818608E-02  0.3354880E+00
         11   -1    0    0    0    0  0.00000000000E+00  0.00000000000E+00  0.39999999674E+01  0.40000000000E+01  0.51100000000E-03 0.  1.
    9000002   -1    0    0    0    0 -0.00000000000E+00 -0.00000000000E+00  0.00000000000E+00  0.93800000000E+00  0.93800000000E+00 0.  1.
         11    1    1    2    0    0 -0.16049130608E+00  0.70484212505E-01  0.12521325206E+01  0.12643423563E+01  0.51100000000E-03 0.  1.
    9000002    1    1    2    0    0  0.41838784617E+00 -0.30269270263E+00  0.18404674570E+00  0.10864568407E+01  0.93800000000E+00 0.  1.
         22    1    1    2    0    0 -0.25789654009E+00  0.23220849012E+00  0.25638207011E+01  0.25872008031E+01  0.00000000000E+00 0.  1.
</event>
<event>
 5    1  0.3241783E+002  0.1599677E+01  0.7818608E-02  0.3353714E+00
         11   -1    0    0    0    0  0.00000000000E+00  0.00000000000E+00  0.39999999674E+01  0.40000000000E+01  0.51100000000E-03 0. -1.
    9000002   -1    0    0    0    0 -0.00000000000E+00 -0.00000000000E+00  0.00000000000E+00  0.93800000000E+00  0.93800000000E+00 0.  1.
         11    1    1    2    0    0 -0.65345251971E-03 -0.66720974261E-01  0.91268350794E+00  0.91511942510E+00  0.51100000000E-03 0.  1.
    9000002    1    1    2    0    0  0.32086053782E-02  0.28805819806E+00  0.55302143071E-01  0.98279710401E+00  0.93800000000E+00 0.  1.
         22    1    1    2    0    0 -0.25551528585E-02 -0.22133722380E+00  0.30320143164E+01  0.30400834709E+01  0.00000000000E+00 0. -1.
</event>
<event>
 5    1  0.3241783E+002  0.1598858E+01  0.7818608E-02  0.3354604E+00
         11   -1    0    0    0    0  0.00000000000E+00  0.00000000000E+00  0.39999999674E+01  0.40000000000E+01  0.51100000000E-03 0.  1.
    9000002   -1    0    0    0    0 -0.00000000000E+00 -0.00000000000E+00  0.00000000000E+00  0.93800000000E+00  0.93800000000E+00 0.  1.
         11    1    1    2    0    0 -0.40710299581E-01 -0.11249849561E+00  0.14730438694E+01  0.14778943610E+01  0.51100000000E-03 0.  1.
    9000002    1    1    2    0    0  0.47287909209E-01  0.36316729014E+00  0.90764932673E-01  0.10110434709E+01  0.93800000000E+00 0.  1.
         22    1    1    2    0    0 -0.65776096280E-02 -0.25066879453E+00  0.24361911653E+01  0.24490621681E+01  0.00000000000E+00 0.  1.
</event>
<event>
 5    1  0.3241783E+002  0.1599671E+01  0.7818608E-02  0.3353720E+00
         11   -1    0    0    0    0  0.00000000000E+00  0.00000000000E+00  0.39999999674E+01  0.40000000000E+01  0.51100000000E-03 0.  1.
    9000002   -1    0    0    0    0 -0.00000000000E+00 -0.00000000000E+00  0.00000000000E+00  0.93800000000E+00  0.93800000000E+00 0.  1.
         11    1    1    2    0    0  0.42770077293E-01  0.56880054394E-01  0.10368712562E+01  0.10393107731E+01  0.51100000000E-03 0.  1.
    9000002    1    1    2    0    0 -0.15897532815E+00 -0.22545312581E+00  0.50664198446E-01  0.97903683685E+00  0.93800000000E+00 0.  1.
         22    1    1    2    0    0  0.11620525086E+00  0.16857307141E+00  0.29124645127E+01  0.29196523900E+01  0.00000000000E+00 0.  1.
</event>
<event>
 5    1  0.3241783E+002  0.1599677E+01  0.7818608E-02  0.3353714E+00
         11   -1    0    0    0    0  0.00000000000E+00  0.00000000000E+00  0.39999999674E+01  0.40000000000E+01  0.51100000000E-03 0. -1.
    9000002   -1    0    0    0    0 -0.00000000000E+00 -0.00000000000E+00  0.00000000000E+00  0.93800000000E+00  0.93800000000E+00 0.  1.
         11    1    1    2    0    0  0.64554489416E-01 -0.39281724428E-01  0.99131951580E+00  0.99419564448E+00  0.51100000000E-03 0. -1.
    9000002    1    1    2    0    0 -0.25801373541E+00  0.15616861233E+00  0.60689506973E-01  0.98716105038E+00  0.93800000000E+00 0.  1.
         22    1    1    2    0    0  0.19345924600E+00 -0.11688688791E+00  0.29479909446E+01  0.29566433051E+01  0.00000000000E+00 0. -1.
</event>
<event>
 5    1  0.3241783E+002  0.1599657E+01  0.7818608E-02  0.3353736E+00
         11   -1    0    0    0    0  0.00000000000E+00  0.00000000000E+00  0.39999999674E+01  0.40000000000E+01  0.51100000000E-03 0. -1.
    9000002   -1    0    0    0    0 -0.00000000000E+00 -0.00000000000E+00  0.00000000000E+00  0.93800000000E+00  0.93800000000E+00 0.  1.
         11    1    1    2    0    0 -0.93630514360E-01  0.11696710640E+00  0.12581935877E+01  0.12670830053E+01  0.51100000000E-03 0. -1.
    9000002    1    1    2    0    0  0.29823537439E+00 -0.34804059896E+00  0.14287550032E+00  0.10537238754E+01  0.93800000000E+00 0.  1.
         22    1    1    2    0    0 -0.20460486003E+00  0.23107349255E+00  0.25989308794E+01  0.26171931193E+01  0.00000000000E+00 0.  1.
</event>
<event>
 5    1  0.3241783E+002  0.1566651E+01  0.7818608E-02  0.3390374E+00
         11   -1    0    0    0    0  0.00000000000E+00  0.00000000000E+00  0.39999999674E+01  0.40000000000E+01  0.51100000000E-03 0. -1.
    9000002   -1    0    0    0    0 -0.00000000000E+00 -0.00000000000E+00  0.00000000000E+00  0.93800000000E+00  0.93800000000E+00 0.  1.
         11    1    1    2    0    0 -0.44508476495E-01 -0.97156651886E-01  0.33540571027E+00  0.35201941862E+00  0.51100000000E-03 0. -1.
    9000002    1    1    2    0    0 -0.31501489878E-01 -0.18997681548E+00  0.49645090999E-01  0.95884939868E+00  0.93800000000E+00 0.  1.
         22    1    1    2    0    0  0.76009966373E-01  0.28713346737E+00  0.36149491661E+01  0.36271311827E+01  0.00000000000E+00 0. -1.
</event>
<event>
 5    1  0.4262004E+002  0.1592025E+01  0.7818608E-02  0.3362065E+00
         11   -1    0    0    0    0  0.00000000000E+00  0.00000000000E+00  0.39999999674E+01  0.40000000000E+01  0.51100000000E-03 0. -1.
    9000002   -1    0    0    0    0 -0.00000000000E+00 -0.00000000000E+00  0.00000000000E+00  0.93800000000E+00  0.93800000000E+00 0. -1.
         11    1    1    2    0    0 -0.22252997071E-02  0.52810176741E-01  0.73751285722E+00  0.73940472166E+00  0.51100000000E-03 0. -1.
    9000002    1    1    2    0    0 -0.47663776078E-01  0.15234227321E+00  0.22515195919E-01  0.95175151053E+00  0.93800000000E+00 0. -1.
         22    1    1    2    0    0  0.49889075785E-01 -0.20515244995E+00  0.32399719142E+01  0.32468437678E+01  0.00000000000E+00 0. -1.
</event>
<event>
 5    1  0.3241783E+002  0.1512662E+01  0.7818608E-02  0.3453978E+00
         11   -1    0    0    0    0  0.00000000000E+00  0.00000000000E+00  0.39999999674E+01  0.40000000000E+01  0.51100000000E-03 0. -1.
    9000002   -1    0    0    0    0 -0.00000000000E+00 -0.00000000000E+00  0.00000000000E+00  0.93800000000E+00  0.93800000000E+00 0. -1.
         11    1    1    2    0    0 -0.11628485032E+00  0.31255301437E+00  0.28637305979E+01  0.28830825086E+01  0.51100000000E-03 0. -1.
    9000002    1    1    2    0    0  0.27780592103E+00 -0.15484533977E-01  0.12224950845E+00  0.98600448420E+00  0.93800000000E+00 0. -1.
         22    1    1    2    0    0 -0.16152107071E+00 -0.29706848040E+00  0.10140198610E+01  0.10689130072E+01  0.00000000000E+00 0. -1.
</event>
<event>
 5    1  0.3241783E+002  0.1597607E+01  0.7818608E-02  0.3355964E+00
         11   -1    0    0    0    0  0.00000000000E+00  0.00000000000E+00  0.39999999674E+01  0.40000000000E+01  0.51100000000E-03 0.  1.
    9000002   -1    0    0    0    0 -0.00000000000E+00 -0.00000000000E+00  0.00000000000E+00  0.93800000000E+00  0.93800000000E+00 0. -1.
         11    1    1    2    0    0  0.18794310840E-01  0.21885232678E-01  0.73712927569E+00  0.73769371675E+00  0.51100000000E-03 0.  1.
    9000002    1    1    2    0    0  0.63695359086E-01 -0.27600952635E+00  0.55055130931E-01  0.98138342397E+00  0.93800000000E+00 0. -1.
         22    1    1    2    0    0 -0.82489669925E-01  0.25412429367E+00  0.32078155607E+01  0.32189228593E+01  0.00000000000E+00 0.  1.
</event>
<event>
 5    1  0.3241783E+002  0.1593193E+01  0.7818608E-02  0.3360785E+00
         11   -1    0    0    0    0  0.00000000000E+00  0.00000000000E+00  0.39999999674E+01  0.40000000000E+01  0.51100000000E-03 0.  1.
    9000002   -1    0    0    0    0 -0.00000000000E+00 -0.00000000000E+00  0.00000000000E+00  0.93800000000E+00  0.93800000000E+00 0. -1.
         11    1    1    2    0    0  0.14481205561E+00 -0.17838900015E+00  0.15416037124E+01  0.15586325526E+01  0.51100000000E-03 0.  1.
    9000002    1    1    2    0    0 -0.12740238342E+00  0.41310980486E+00  0.13215467296E+00  0.10412492189E+01  0.93800000000E+00 0. -1.
         22    1    1    2    0    0 -0.17409672183E-01 -0.23472080471E+00  0.23262415820E+01  0.23381182285E+01  0.00000000000E+00 0.  1.
</event>
<event>
 5    1  0.3241783E+002  0.1599634E+01  0.7818608E-02  0.3353761E+00
         11   -1    0    0    0    0  0.00000000000E+00  0.00000000000E+00  0.39999999674E+01  0.40000000000E+01  0.51100000000E-03 0. -1.
    9000002   -1    0    0    0    0 -0.00000000000E+00 -0.00000000000E+00  0.00000000000E+00  0.93800000000E+00  0.93800000000E+00 0. -1.
         11    1    1    2    0    0 -0.11347500242E+00 -0.64973500299E-01  0.11015015748E+01  0.11092358236E+01  0.51100000000E-03 0. -1.
    9000002    1    1    2    0    0  0.41756063240E+00  0.21347976499E+00  0.14984020462E+00  0.10593519617E+01  0.93800000000E+00 0. -1.
         22    1    1    2    0    0 -0.30408562997E+00 -0.14850626469E+00  0.27486581879E+01  0.27694122147E+01  0.00000000000E+00 0. -1.
</event>
<event>
 5    1  0.3241783E+002  0.1599675E+01  0.7818608E-02  0.3353716E+00
         11   -1    0    0    0    0  0.00000000000E+00  0.00000000000E+00  0.39999999674E+01  0.40000000000E+01  0.51100000000E-03 0.  1.
    9000002   -1    0    0    0    0 -0.00000000000E+00 -0.00000000000E+00  0.00000000000E+00  0.93800000000E+00  0.93800000000E+00 0.  1.
         11    1    1    2    0    0  0.33789192047E-01 -0.31868374459E-01  0.58840485485E+00  0.59023540823E+00  0.51100000000E-03 0.  1.
    9000002    1    1    2    0    0 -0.22141434599E+00  0.21794383382E+00  0.64458703638E-01  0.99021348798E+00  0.93800000000E+00 0.  1.
         22    1    1    2    0    0  0.18762515395E+00 -0.18607545936E+00  0.33471364089E+01  0.33575511038E+01  0.00000000000E+00 0.  1.
</event>
<event>
 5    1  0.3241783E+002  0.1598514E+01  0.7818608E-02  0.3354978E+00
         11   -1    0    0    0    0  0.00000000000E+00  0.00000000000E+00  0.39999999674E+01  0.40000000000E+01  0.51100000000E-03 0. -1.
    9000002   -1    0    0    0    0 -0.00000000000E+00 -0.00000000000E+00  0.00000000000E+00  0.93800000000E+00  0.93800000000E+00 0. -1.
         11    1    1    2    0    0 -0.29457265606E-02 -0.47829850918E-02  0.12614503524E+00  0.12627107859E+00  0.51100000000E-03 0. -1.
    9000002    1    1    2    0    0 -0.19132730931E+00 -0.20177343637E+00  0.52380158401E-01  0.97974810023E+00  0.93800000000E+00 0. -1.
         22    1    1    2    0    0  0.19427303587E+00  0.20655642146E+00  0.38214747737E+01  0.38319808212E+01  0.00000000000E+00 0. -1.
</event>
<event>
 5    1  0.3241783E+002  0.1599552E+01  0.7818608E-02  0.3353850E+00
         11   -1    0    0    0    0  0.00000000000E+00  0.00000000000E+00  0.39999999674E+01  0.40000000000E+01  0.51100000000E-03 0.  1.
    9000002   -1    0    0    0    0 -0.00000000000E+00 -0.00000000000E+00  0.00000000000E+00  0.93800000000E+00  0.93800000000E+00 0.  1.
         11    1    1    2    0    0  0.22256476905E-01  0.45366141695E-01  0.59928445848E+00  0.60141130757E+00  0.51100000000E-03 0.  1.
    9000002    1    1    2    0    0 -0.82647691294E-01 -0.29877626031E+00  0.64267383252E-01  0.98998595503E+00  0.93800000000E+00 0.  1.
         22    1    1    2    0    0  0.60391214389E-01  0.25341011861E+00  0.33364481256E+01  0.33466027374E+01  0.00000000000E+00 0.  1.
</event>
<event>
 5    1  0.3241783E+002  0.1598765E+01  0.7818608E-02  0.3354705E+00
         11   -1    0    0    0    0  0.00000000000E+00  0.00000000000E+00  0.39999999674E+01  0.40000000000E+01  0.51100000000E-03 0. -1.
    9000002   -1    0    0    0    0 -0.00000000000E+00 -0.00000000000E+00  0.00000000000E+00  0.93800000000E+00  0.93800000000E+00 0.  1.
         11    1    1    2    0    0 -0.19485254530E-01  0.13848586057E-01  0.10645852284E+00  0.10911066257E+00  0.51100000000E-03 0. -1.
    9000002    1    1    2    0    0  0.29253395154E+00 -0.66426243906E+00  0.38026794877E+00  0.12454992628E+01  0.93800000000E+00 0.  1.
         22    1    1    2    0    0 -0.27304869701E+00  0.65041385300E+00  0.35132734958E+01  0.35833900746E+01  0.00000000000E+00 0. -1.
</event>
<event>
 5    1  0.3241783E+002  0.1599614E+01  0.7818608E-02  0.3353782E+00
         11   -1    0    0    0    0  0.00000000000E+00  0.00000000000E+00  0.39999999674E+01  0.40000000000E+01  0.51100000000E-03 0.  1.
    9000002   -1    0    0    0    0 -0.00000000000E+00 -0.00000000000E+00  0.00000000000E+00  0.93800000000E+00  0.93800000000E+00 0. -1.
         11    1    1    2    0    0  0.74373557086E-01 -0.80237839007E-02  0.84918484029E+00  0.85247343724E+00  0.51100000000E-03 0.  1.
    9000002    1    1    2    0    0 -0.32529070126E+00  0.68294168606E-01  0.73987016323E-01  0.99789589255E+00  0.93800000000E+00 0. -1.
         22    1    1    2    0    0  0.25091714417E+00 -0.60270384706E-01  0.30768281108E+01  0.30876306702E+01  0.00000000000E+00 0.  1.
</event>
<event>
 5    1  0.3241783E+002  0.1599411E+01  0.7818608E-02  0.3354003E+00
         11   -1    0    0    0    0  0.00000000000E+00  0.00000000000E+00  0.39999999674E+01  0.40000000000E+01  0.51100000000E-03 0. -1.
    9000002   -1    0    0    0    0 -0.00000000000E+00 -0.00000000000E+00  0.00000000000E+00  0.93800000000E+00  0.93800000000E+00 0.  1.
         11    1    1    2    0    0  0.25757593666E+00  0.72189128765E-01  0.19346366528E+01  0.19530427217E+01  0.51100000000E-03 0. -1.
    9000002    1    1    2    0    0 -0.50853119141E+00 -0.18024283628E+00  0.20091117576E+00  0.11005910926E+01  0.93800000000E+00 0.  1.
         22    1    1    2    0    0  0.25095525475E+00  0.10805370751E+00  0.18644521388E+01  0.18843661856E+01  0.00000000000E+00 0. -1.
</event>
<event>
 5    1  0.3241783E+002  0.1599673E+01  0.7818608E-02  0.3353719E+00
         11   -1    0    0    0    0  0.00000000000E+00  0.00000000000E+00  0.39999999674E+01  0.40000000000E+01  0.51100000000E-03 0. -1.
    9000002   -1    0    0    0    0 -0.00000000000E+00 -0.00000000000E+00  0.00000000000E+00  0.93800000000E+00  0.93800000000E+00 0.  1.
         11    1    1    2    0    0 -0.25521498007E+00  0.41146574569E-01  0.17323735619E+01  0.17515553504E+01  0.51100000000E-03 0. -1.
    9000002    1    1    2    0    0  0.55766219756E+00 -0.94984044232E-01  0.22170664986E+00  0.11175897878E+01  0.93800000000E+00 0.  1.
         22    1    1    2    0    0 -0.30244721748E+00  0.53837469663E-01  0.20459197556E+01  0.20688548617E+01  0.00000000000E+00 0. -1.
</event>
<event>
 5    1  0.3241783E+002  0.1599026E+01  0.7818608E-02  0.3354421E+00
         11   -1    0    0    0    0  0.00000000000E+00  0.00000000000E+00  0.39999999674E+01  0.40000000000E+01  0.51100000000E-03 0.  1.
    9000002   -1    0    0    0    0 -0.00000000000E+00 -0.00000000000E+00  0.00000000000E+00  0.93800000000E+00  0.93800000000E+00 0. -1.
         11    1    1    2    0    0 -0.34949127129E-01  0.20269754296E-02  0.24154294065E+00  0.24406721086E+00  0.51100000000E-03 0.  1.
    9000002    1    1    2    0    0  0.32825854705E+00 -0.59366763625E-01  0.75000881164E-01  0.99837228453E+00  0.93800000000E+00 0. -1.
         22    1    1    2    0    0 -0.29330941992E+00  0.57339788195E-01  0.36834561455E+01  0.36955605046E+01  0.00000000000E+00 0.  1.
</event>
<event>
 5    1  0.3241783E+002  0.1599676E+01  0.7818608E-02  0.3353715E+00
         11   -1    0    0    0    0  0.00000000000E+00  0.00000000000E+00  0.39999999674E+01  0.40000000000E+01  0.51100000000E-03 0. -1.
    9000002   -1    0    0    0    0 -0.00000000000E+00 -0.00000000000E+00  0.00000000000E+00  0.93800000000E+00  0.93800000000E+00 0.  1.
         11    1    1    2    0    0  0.49100439633E-02  0.16275032096E-01  0.28895527333E+00  0.28945534424E+00  0.51100000000E-03 0. -1.
    9000002    1    1    2    0    0 -0.63557000246E-01 -0.22574726491E+00  0.36495559444E-01  0.96756252808E+00  0.93800000000E+00 0.  1.
         22    1    1    2    0    0  0.58646956282E-01  0.20947223281E+00  0.36745491346E+01  0.36809821277E+01  0.00000000000E+00 0. -1.
</event>
<event>
 5    1  0.3241783E+002  0.1599677E+01  0.7818608E-02  0.3353714E+00
         11   -1    0    0    0    0  0.00000000000E+00  0.00000000000E+00  0.39999999674E+01  0.40000000000E+01  0.51100000000E-03 0. -1.
    9000002   -1    0    0    0    0 -0.00000000000E+00 -0.00000000000E+00  0.00000000000E+00  0.93800000000E+00  0.93800000000E+00 0.  1.
         11    1    1    2    0    0 -0.11654054075E+00 -0.28722998722E-01  0.10569509968E+01  0.10637445084E+01  0.51100000000E-03 0. -1.
    9000002    1    1    2    0    0  0.42623709386E+00  0.10647014319E+00  0.13088903975E+00  0.10440258102E+01  0.93800000000E+00 0.  1.
         22    1    1    2    0    0 -0.30969655311E+00 -0.77747144472E-01  0.28121599308E+01  0.28302296815E+01  0.00000000000E+00 0. -1.
</event>
<event>
 5    1  0.3241783E+002  0.1598729E+01  0.7818608E-02  0.3354744E+00
         11   -1    0    0    0    0  0.00000000000E+00  0.00000000000E+00  0.39999999674E+01  0.40000000000E+01  0.51100000000E-03 0.  1.
    9000002   -1    0    0    0    0 -0.00000000000E+00 -0.00000000000E+00  0.00000000000E+00  0.93800000000E+00  0.93800000000E+00 0. -1.
         11    1    1    2    0    0 -0.19712522976E+00  0.16209028600E+00  0.14795962735E+01  0.15014449742E+01  0.51100000000E-03 0.  1.
    9000002    1    1    2    0    0  0.46454888324E+00 -0.32867287517E+00  0.22541279952E+00  0.11200385949E+01  0.93800000000E+00 0. -1.
         22    1    1    2    0    0 -0.26742365348E+00  0.16658258917E+00  0.22949908944E+01  0.23165164309E+01  0.00000000000E+00 0.  1.
</event>
<event>
 5    1  0.3241783E+002  0.1599528E+01  0.7818608E-02  0.3353876E+00
         11   -1    0    0    0    0  0.00000000000E+00  0.00000000000E+00  0.39999999674E+01  0.40000000000E+01  0.51100000000E-03 0. -1.
    9000002   -1    0    0    0    0 -0.00000000000E+00 -0.00000000000E+00  0.00000000000E+00  0.93800000000E+00  0.93800000000E+00 0. -1.
         11    1    1    2    0    0 -0.23016694439E-01 -0.13058209378E-01  0.23189336336E+00  0.23339896775E+00  0.51100000000E-03 0. -1.
    9000002    1    1    2    0    0  0.32427578031E+00  0.31722714237E+00  0.13997221233E+00  0.10512963720E+01  0.93800000000E+00 0. -1.
         22    1    1    2    0    0 -0.30125908587E+00 -0.30416893299E+00  0.36281343917E+01  0.36533046603E+01  0.00000000000E+00 0. -1.
</event>
<event>
 5    1  0.3241783E+002  0.1592429E+01  0.7818608E-02  0.3361622E+00
         11   -1    0    0    0    0  0.00000000000E+00  0.00000000000E+00  0.39999999674E+01  0.40000000000E+01  0.51100000000E-03 0. -1.
    9000002   -1    0    0    0    0 -0.00000000000E+00 -0.00000000000E+00  0.00000000000E+00  0.93800000000E+00  0.93800000000E+00 0.  1.
         11    1    1    2    0    0  0.13169716797E+00 -0.13576067904E+00  0.12718710922E+01  0.12858582513E+01  0.51100000000E-03 0. -1.
    9000002    1    1    2    0    0 -0.11699815611E+00  0.34759082453E+00  0.96281158262E-01  0.10117420676E+01  0.93800000000E+00 0.  1.
         22    1    1    2    0    0 -0.14699011863E-01 -0.21183014549E+00  0.26318477169E+01  0.26403996812E+01  0.00000000000E+00 0. -1.
</event>
<event>
 5    1  0.3241783E+002  0.1599627E+01  0.7818608E-02  0.3353768E+00
         11   -1    0    0    0    0  0.00000000000E+00  0.00000000000E+00  0.39999999674E+01  0.40000000000E+01  0.51100000000E-03 0.  1.
    9000002   -1    0    0    0    0 -0.00000000000E+00 -0.00000000000E+00  0.00000000000E+00  0.93800000000E+00  0.93800000000E+00 0.  1.
         11    1    1    2    0    0  0.67810601652E-01 -0.99116259270E-01  0.92078998752E+00  0.92858859178E+00  0.51100000000E-03 0.  1.
    9000002    1    1    2    0    0 -0.29327956828E+00  0.43744918861E+00  0.19080516841E+00  0.10925316060E+01  0.93800000000E+00 0.  1.
         22    1    1    2    0    0  0.22546896663E+00 -0.33833292934E+00  0.28884048114E+01  0.29168798022E+01  0.00000000000E+00 0.  1.
</event>
<event>
 5    1  0.3241783E+002  0.1599414E+01  0.7818608E-02  0.3354000E+00
         11   -1    0    0    0    0  0.00000000000E+00  0.00000000000E+00  0.39999999674E+01  0.40000000000E+01  0.51100000000E-03 0. -1.
    9000002   -1    0    0    0    0 -0.00000000000E+00 -0.00000000000E+00  0.00000000000E+00  0.93800000000E+00  0.93800000000E+00 0. -1.
         11    1    1    2    0    0  0.16238748303E+00  0.39328433914E-01  0.17077357899E+01  0.17158899177E+01  0.51100000000E-03 0. -1.
    9000002    1    1    2    0    0 -0.38326199846E+00 -0.13165445493E+00  0.11106633874E+00  0.10278143736E+01  0.93800000000E+00 0. -1.
         22    1    1    2    0    0  0.22087451543E+00  0.92326021013E-01  0.21811978387E+01  0.21942957087E+01  0.00000000000E+00 0. -1.
</event>
<event>
 5    1  0.3241783E+002  0.1599645E+01  0.7818608E-02  0.3353749E+00
         11   -1    0    0    0    0  0.00000000000E+00  0.00000000000E+00  0.39999999674E+01  0.40000000000E+01  0.51100000000E-03 0.  1.
    9000002   -1    0    0    0    0 -0.00000000000E+00 -0.00000000000E+00  0.00000000000E+00  0.93800000000E+00  0.93800000000E+00 0. -1.
         11    1    1    2    0    0 -0.54651986456E-01  0.46655593717E-01  0.10023904347E+01  0.10049628992E+01  0.51100000000E-03 0.  1.
    9000002    1    1    2    0    0  0.23814267416E+00 -0.18102059208E+00  0.59713911204E-01  0.98635193476E+00  0.93800000000E+00 0. -1.
         22    1    1    2    0    0 -0.18349068770E+00  0.13436499836E+00  0.29378956215E+01  0.29466851661E+01  0.00000000000E+00 0.  1.
</event>
<event>
 5    1  0.3241783E+002  0.1595005E+01  0.7818608E-02  0.3358803E+00
         11   -1    0    0    0    0  0.00000000000E+00  0.00000000000E+00  0.39999999674E+01  0.40000000000E+01  0.51100000000E-03 0. -1.
    9000002   -1    0    0    0    0 -0.00000000000E+00 -0.00000000000E+00  0.00000000000E+00  0.93800000000E+00  0.93800000000E+00 0. -1.
         11    1    1    2    0    0 -0.20207081581E-01  0.69782211904E-02  0.19182882326E+00  0.19301704658E+00  0.51100000000E-03 0. -1.
    9000002    1    1    2    0    0 -0.10462233577E+00  0.36529479030E+00  0.10099273294E+00  0.10170691466E+01  0.93800000000E+00 0. -1.
         22    1    1    2    0    0  0.12482941735E+00 -0.37227301149E+00  0.37071784112E+01  0.37279138068E+01  0.00000000000E+00 0. -1.
</event>
<event>
 5    1  0.3241783E+002  0.1599676E+01  0.7818608E-02  0.3353715E+00
         11   -1    0    0    0    0  0.00000000000E+00  0.00000000000E+00  0.39999999674E+01  0.40000000000E+01  0.51100000000E-03 0. -1.
    9000002   -1    0    0    0    0 -0.00000000000E+00 -0.00000000000E+00  0.00000000000E+00  0.93800000000E+00  0.93800000000E+00 0.  1.
         11    1    1    2    0    0 -0.65344613748E-01 -0.11014290616E+00  0.14228815929E+01  0.14286334963E+01  0.51100000000E-03 0. -1.
    9000002    1    1    2    0    0  0.17964862607E+00  0.30569748056E+00  0.84343039635E-01  0.10063211847E+01  0.93800000000E+00 0.  1.
         22    1    1    2    0    0 -0.11430401233E+00 -0.19555457439E+00  0.24927753348E+01  0.25030453190E+01  0.00000000000E+00 0. -1.
</event>
<event>
 5    1  0.3241783E+002  0.1599664E+01  0.7818608E-02  0.3353728E+00
         11   -1    0    0    0    0  0.00000000000E+00  0.00000000000E+00  0.39999999674E+01  0.40000000000E+01  0.51100000000E-03 0. -1.
    9000002   -1    0    0    0    0 -0.00000000000E+00 -0.00000000000E+00  0.00000000000E+00  0.93800000000E+00  0.93800000000E+00 0.  1.
         11    1    1    2    0    0  0.21040047955E-01  0.65457873496E-02  0.40032603608E+00  0.40093232252E+00  0.51100000000E-03 0. -1.
    9000002    1    1    2    0    0 -0.22563386908E+00 -0.45788058560E-01  0.35171052261E-01  0.96648238065E+00  0.93800000000E+00 0.  1.
         22    1    1    2    0    0  0.20459382112E+00  0.39242271210E-01  0.35645028790E+01  0.35705852968E+01  0.00000000000E+00 0. -1.
</event>
<event>
 5    1  0.3241783E+002  0.1585310E+01  0.7818608E-02  0.3369463E+00
         11   -1    0    0    0    0  0.00000000000E+00  0.00000000000E+00  0.39999999674E+01  0.40000000000E+01  0.51100000000E-03 0.  1.
    9000002   -1    0    0    0    0 -0.00000000000E+00 -0.00000000000E+00  0.00000000000E+00  0.93800000000E+00  0.93800000000E+00 0.  1.
         11    1    1    2    0    0 -0.49921519906E+00  0.42196152921E-01  0.20084037529E+01  0.20699473969E+01  0.51100000000E-03 0.  1.
    9000002    1    1    2    0    0  0.67004213853E+00 -0.19441821655E+00  0.36388929790E+00  0.12243424078E+01  0.93800000000E+00 0.  1.
         22    1    1    2    0    0 -0.17082693947E+00  0.15222206363E+00  0.16277069166E+01  0.16437101953E+01  0.00000000000E+00 0.  1.
</event>
<event>
 5    1  0.3241783E+002  0.1514801E+01  0.7818608E-02  0.3451365E+00
         11   -1    0    0    0    0  0.00000000000E+00  0.00000000000E+00  0.39999999674E+01  0.40000000000E+01  0.51100000000E-03 0. -1.
    9000002   -1    0    0    0    0 -0.00000000000E+00 -0.00000000000E+00  0.00000000000E+00  0.93800000000E+00  0.93800000000E+00 0. -1.
         11    1    1    2    0    0  0.32717499293E+00  0.23239259258E+00  0.33188927490E+01  0.33430673241E+01  0.51100000000E-03 0. -1.
    9000002    1    1    2    0    0 -0.23750894592E+00 -0.16676374395E-01  0.10519856047E+00  0.97344714185E+00  0.93800000000E+00 0. -1.
         22    1    1    2    0    0 -0.89666047002E-01 -0.21571621818E+00  0.57590865787E+00  0.62148553400E+00  0.00000000000E+00 0.  1.
</event>
<event>
 5    1  0.3241783E+002  0.1597342E+01  0.7818608E-02  0.3356253E+00
         11   -1    0    0    0    0  0.00000000000E+00  0.00000000000E+00  0.39999999674E+01  0.40000000000E+01  0.51100000000E-03 0. -1.
    9000002   -1    0    0    0    0 -0.00000000000E+00 -0.00000000000E+00  0.00000000000E+00  0.93800000000E+00  0.93800000000E+00 0. -1.
         11    1    1    2    0    0  0.29032418523E+00 -0.21519462890E+00  0.21226289094E+01  0.21531722200E+01  0.51100000000E-03 0. -1.
    9000002    1    1    2    0    0 -0.41343715458E+00  0.39142440806E+00  0.22697929221E+00  0.11204940638E+01  0.93800000000E+00 0. -1.
         22    1    1    2    0    0  0.12311296935E+00 -0.17622977916E+00  0.16503917657E+01  0.16643337161E+01  0.00000000000E+00 0. -1.
</event>
<event>
 5    1  0.3241783E+002  0.1599313E+01  0.7818608E-02  0.3354109E+00
         11   -1    0    0    0    0  0.00000000000E+00  0.00000000000E+00  0.39999999674E+01  0.40000000000E+01  0.51100000000E-03 0. -1.
    9000002   -1    0    0    0    0 -0.00000000000E+00 -0.00000000000E+00  0.00000000000E+00  0.93800000000E+00  0.93800000000E+00 0.  1.
         11    1    1    2    0    0  0.17735494271E-02 -0.65235547723E-01  0.81844807834E+00  0.82104588192E+00  0.51100000000E-03 0. -1.
    9000002    1    1    2    0    0  0.78699725264E-01  0.29332139858E+00  0.61835280843E-01  0.98787584826E+00  0.93800000000E+00 0.  1.
         22    1    1    2    0    0 -0.80473274691E-01 -0.22808585085E+00  0.31197166082E+01  0.31290782698E+01  0.00000000000E+00 0. -1.
</event>
<event>
 5    1  0.3241783E+002  0.1594353E+01  0.7818608E-02  0.3359515E+00
         11   -1    0    0    0    0  0.00000000000E+00  0.00000000000E+00  0.39999999674E+01  0.40000000000E+01  0.51100000000E-03 0.  1.
    9000002   -1    0    0    0    0 -0.00000000000E+00 -0.00000000000E+00  0.00000000000E+00  0.93800000000E+00  0.93800000000E+00 0. -1.
         11    1    1    2    0    0  0.26256460189E-01 -0.14635353917E-01  0.14352626375E+00  0.14664121110E+00  0.51100000000E-03 0.  1.
    9000002    1    1    2    0    0 -0.11500470548E+00 -0.27175663239E+00  0.62232013787E-01  0.98528908097E+00  0.93800000000E+00 0. -1.
         22    1    1    2    0    0  0.88748245290E-01  0.28639198631E+00  0.37942416898E+01  0.38060697079E+01  0.00000000000E+00 0.  1.
</event>
<event>
 5    1  0.3241783E+002  0.1599677E+01  0.7818608E-02  0.3353714E+00
         11   -1    0    0    0    0  0.00000000000E+00  0.00000000000E+00  0.39999999674E+01  0.40000000000E+01  0.51100000000E-03 0. -1.
    9000002   -1    0    0    0    0 -0.00000000000E+00 -0.00000000000E+00  0.00000000000E+00  0.93800000000E+00  0.93800000000E+00 0. -1.
         11    1    1    2    0    0 -0.22022204482E+00  0.10403564458E+00  0.17553852319E+01  0.17722016640E+01  0.51100000000E-03 0. -1.
    9000002    1    1    2    0    0  0.47721789366E+00 -0.22695736289E+00  0.19210831171E+00  0.10936160963E+01  0.93800000000E+00 0. -1.
         22    1    1    2    0    0 -0.25699584884E+00  0.12292171831E+00  0.20525064237E+01  0.20721822397E+01  0.00000000000E+00 0. -1.
</event>
<event>
 5    1  0.3241783E+002  0.1599355E+01  0.7818608E-02  0.3354064E+00
         11   -1    0    0    0    0  0.00000000000E+00  0.00000000000E+00  0.39999999674E+01  0.40000000000E+01  0.51100000000E-03 0. -1.
    9000002   -1    0    0    0    0 -0.00000000000E+00 -0.00000000000E+00  0.00000000000E+00  0.93800000000E+00  0.93800000000E+00 0. -1.
         11    1    1    2    0    0 -0.33958954641E-01 -0.15528305178E+00  0.17248532783E+01  0.17321619813E+01  0.51100000000E-03 0. -1.
    9000002    1    1    2    0    0  0.31808267319E-01  0.36986139550E+00  0.92889564557E-01  0.10130556199E+01  0.93800000000E+00 0. -1.
         22    1    1    2    0    0  0.21506873218E-02 -0.21457834372E+00  0.21822571245E+01  0.21927823988E+01  0.00000000000E+00 0. -1.
</event>
<event>
 5    1  0.3241783E+002  0.1587823E+01  0.7818608E-02  0.3366687E+00
         11   -1    0    0    0    0  0.00000000000E+00  0.00000000000E+00  0.39999999674E+01  0.40000000000E+01  0.51100000000E-03 0.  1.
    9000002   -1    0    0    0    0 -0.00000000000E+00 -0.00000000000E+00  0.00000000000E+00  0.93800000000E+00  0.93800000000E+00 0. -1.
         11    1    1    2    0    0 -0.10216387308E+00  0.25866829109E-02  0.12990509233E+01  0.13030647376E+01  0.51100000000E-03 0.  1.
    9000002    1    1    2    0    0  0.78627305041E-02 -0.22798907483E+00  0.43546219019E-01  0.96632350378E+00  0.93800000000E+00 0. -1.
         22    1    1    2    0    0  0.94301142577E-01  0.22540239192E+00  0.26574028250E+01  0.26686117586E+01  0.00000000000E+00 0.  1.
</event>
<event>
 5    1  0.3241783E+002  0.1535306E+01  0.7818608E-02  0.3426719E+00
         11   -1    0    0    0    0  0.00000000000E+00  0.00000000000E+00  0.39999999674E+01  0.40000000000E+01  0.51100000000E-03 0.  1.
    9000002   -1    0    0    0    0 -0.00000000000E+00 -0.00000000000E+00  0.00000000000E+00  0.93800000000E+00  0.93800000000E+00 0. -1.
         11    1    1    2    0    0  0.13559861365E+00  0.16601791617E+00  0.91209181136E+00  0.93694218924E+00  0.51100000000E-03 0.  1.
    9000002    1    1    2    0    0  0.14257591405E-01  0.22246233893E+00  0.83279191780E-01  0.96771493475E+00  0.93800000000E+00 0. -1.
         22    1    1    2    0    0 -0.14985620505E+00 -0.38848025510E+00  0.30046289642E+01  0.30333428760E+01  0.00000000000E+00 0.  1.
</event>
<event>
 5    1  0.3241783E+002  0.1599662E+01  0.7818608E-02  0.3353730E+00
         11   -1    0    0    0    0  0.00000000000E+00  0.00000000000E+00  0.39999999674E+01  0.40000000000E+01  0.51100000000E-03 0.  1.
    9000002   -1    0    0    0    0 -0.00000000000E+00 -0.00000000000E+00  0.00000000000E+00  0.93800000000E+00  0.93800000000E+00 0.  1.
         11    1    1    2    0    0 -0.18205962329E+00  0.27309045299E+00  0.18448830963E+01  0.18738511152E+01  0.51100000000E-03 0.  1.
    9000002    1    1    2    0    0  0.36235835822E+00 -0.53913414248E+00  0.29774831374E+00  0.11791807587E+01  0.93800000000E+00 0.  1.
         22    1    1    2    0    0 -0.18029873492E+00  0.26604368949E+00  0.18573685574E+01  0.18849681261E+01  0.00000000000E+00 0.  1.
</event>
<event>
 5    1  0.3241783E+002  0.1597466E+01  0.7818608E-02  0.3356118E+00
         11   -1    0    0    0    0  0.00000000000E+00  0.00000000000E+00  0.39999999674E+01  0.40000000000E+01  0.51100000000E-03 0.  1.
    9000002   -1    0    0    0    0 -0.00000000000E+00 -0.00000000000E+00  0.00000000000E+00  0.93800000000E+00  0.93800000000E+00 0. -1.
         11    1    1    2    0    0 -0.14766836985E+00  0.26612520684E+00  0.17179381274E+01  0.17446891539E+01  0.51100000000E-03 0.  1.
    9000002    1    1    2    0    0  0.24255343992E+00 -0.66178776146E+00  0.35800900898E+00  0.12267068366E+01  0.93800000000E+00 0. -1.
         22    1    1    2    0    0 -0.94885070075E-01  0.39566255462E+00  0.19240528310E+01  0.19666040095E+01  0.00000000000E+00 0.  1.
</event>
<event>
 5    1  0.3241783E+002  0.1599584E+01  0.7818608E-02  0.3353815E+00
         11   -1    0    0    0    0  0.00000000000E+00  0.00000000000E+00  0.39999999674E+01  0.40000000000E+01  0.51100000000E-03 0. -1.
    9000002   -1    0    0    0    0 -0.00000000000E+00 -0.00000000000E+00  0.00000000000E+00  0.93800000000E+00  0.93800000000E+00 0.  1.
         11    1    1    2    0    0  0.31553546314E-01  0.21340583014E+00  0.19973908784E+01  0.20090067836E+01  0.51100000000E-03 0. -1.
    9000002    1    1    2    0    0 -0.42354395576E-01 -0.42638517136E+00  0.12439212192E+00  0.10387086257E+01  0.93800000000E+00 0.  1.
         22    1    1    2    0    0  0.10800849262E-01  0.21297934122E+00  0.18782169671E+01  0.18902845906E+01  0.00000000000E+00 0. -1.
</event>
<event>
 5    1  0.3241783E+002  0.1597622E+01  0.7818608E-02  0.3355948E+00
         11   -1    0    0    0    0  0.00000000000E+00  0.00000000000E+00  0.39999999674E+01  0.40000000000E+01  0.51100000000E-03 0.  1.
    9000002   -1    0    0    0    0 -0.00000000000E+00 -0.00000000000E+00  0.00000000000E+00  0.93800000000E+00  0.93800000000E+00 0. -1.
         11    1    1    2    0    0  0.40196874312E-02  0.14865791404E-01  0.47376306351E-01  0.49818923770E-01  0.51100000000E-03 0.  1.
    9000002    1    1    2    0    0  0.47738456314E-01 -0.30470403998E+00  0.65125690377E-01  0.98954983085E+00  0.93800000000E+00 0. -1.
         22    1    1    2    0    0 -0.51758143745E-01  0.28983824857E+00  0.38874979706E+01  0.38986312454E+01  0.00000000000E+00 0.  1.
</event>
<event>
 5    1  0.3241783E+002  0.1599671E+01  0.7818608E-02  0.3353721E+00
         11   -1    0    0    0    0  0.00000000000E+00  0.00000000000E+00  0.39999999674E+01  0.40000000000E+01  0.51100000000E-03 0. -1.
    9000002   -1    0    0    0    0 -0.00000000000E+00 -0.00000000000E+00  0.00000000000E+00  0.93800000000E+00  0.93800000000E+00 0. -1.
         11    1    1    2    0    0  0.46420534748E+00  0.79164191080E-01  0.18874764524E+01  0.19453331831E+01  0.51100000000E-03 0. -1.
    9000002    1    1    2    0    0 -0.84708241400E+00 -0.14988376064E+00  0.55722426421E+00  0.13893727500E+01  0.93800000000E+00 0. -1.
         22    1    1    2    0    0  0.38287706653E+00  0.70719569561E-01  0.15552992508E+01  0.16032940669E+01  0.00000000000E+00 0. -1.
</event>
<event>
 5    1  0.3241783E+002  0.1599677E+01  0.7818608E-02  0.3353714E+00
         11   -1    0    0    0    0  0.00000000000E+00  0.00000000000E+00  0.39999999674E+01  0.40000000000E+01  0.51100000000E-03 0. -1.
    9000002   -1    0    0    0    0 -0.00000000000E+00 -0.00000000000E+00  0.00000000000E+00  0.93800000000E+00  0.93800000000E+00 0. -1.
         11    1    1    2    0    0 -0.43071266887E-01 -0.11541475965E+00  0.13903654401E+01  0.13958123151E+01  0.51100000000E-03 0. -1.
    9000002    1    1    2    0    0  0.12257786192E+00  0.32609457972E+00  0.81360739591E-01  0.10039056615E+01  0.93800000000E+00 0. -1.
         22    1    1    2    0    0 -0.79506595030E-01 -0.21067982007E+00  0.25282737877E+01  0.25382820235E+01  0.00000000000E+00 0.  1.
</event>
<event>
 5    1  0.3241783E+002  0.1599123E+01  0.7818608E-02  0.3354316E+00
         11   -1    0    0    0    0  0.00000000000E+00  0.00000000000E+00  0.39999999674E+01  0.40000000000E+01  0.51100000000E-03 0.  1.
    9000002   -1    0    0    0    0 -0.00000000000E+00 -0.00000000000E+00  0.00000000000E+00  0.93800000000E+00  0.93800000000E+00 0.  1.
         11    1    1    2    0    0  0.21893738342E-02  0.18663832858E-02  0.18942255909E+00  0.18944509431E+00  0.51100000000E-03 0.  1.
    9000002    1    1    2    0    0  0.17931239646E+00 -0.15379609676E+00  0.37454490663E-01  0.96801498634E+00  0.93800000000E+00 0.  1.
         22    1    1    2    0    0 -0.18150177030E+00  0.15192971347E+00  0.37731229176E+01  0.37805399194E+01  0.00000000000E+00 0.  1.
</event>
<event>
 5    1  0.3241783E+002  0.1599513E+01  0.7818608E-02  0.3353892E+00
         11   -1    0    0    0    0  0.00000000000E+00  0.00000000000E+00  0.39999999674E+01  0.40000000000E+01  0.51100000000E-03 0.  1.
    9000002   -1    0    0    0    0 -0.00000000000E+00 -0.00000000000E+00  0.00000000000E+00  0.93800000000E+00  0.93800000000E+00 0. -1.
         11    1    1    2    0    0  0.48041751742E-01 -0.48108492811E-01  0.86896537578E+00  0.87162120351E+00  0.51100000000E-03 0.  1.
    9000002    1    1    2    0    0 -0.16029512720E+00  0.21836157146E+00  0.48951403861E-01  0.97755641455E+00  0.93800000000E+00 0. -1.
         22    1    1    2    0    0  0.11225337546E+00 -0.17025307865E+00  0.30820831877E+01  0.30888223819E+01  0.00000000000E+00 0.  1.
</event>
<event>
 5    1  0.3241783E+002  0.1599540E+01  0.7818608E-02  0.3353863E+00
         11   -1    0    0    0    0  0.00000000000E+00  0.00000000000E+00  0.39999999674E+01  0.40000000000E+01  0.51100000000E-03 0.  1.
    9000002   -1    0    0    0    0 -0.00000000000E+00 -0.00000000000E+00  0.00000000000E+00  0.93800000000E+00  0.93800000000E+00 0. -1.
         11    1    1    2    0    0  0.68434206974E-02  0.21909688798E-01  0.23378331649E+00  0.23490799701E+00  0.51100000000E-03 0.  1.
    9000002    1    1    2    0    0 -0.90325641594E-01 -0.26063768970E+00  0.50757820721E-01  0.97903579260E+00  0.93800000000E+00 0. -1.
         22    1    1    2    0    0  0.83482220896E-01  0.23872800090E+00  0.37154588302E+01  0.37240562104E+01  0.00000000000E+00 0.  1.
</event>
<event>
 5    1  0.3241783E+002  0.1598078E+01  0.7818608E-02  0.3355452E+00
         11   -1    0    0    0    0  0.00000000000E+00  0.00000000000E+00  0.39999999674E+01  0.40000000000E+01  0.51100000000E-03 0.  1.
    9000002   -1    0    0    0    0 -0.00000000000E+00 -0.00000000000E+00  0.00000000000E+00  0.93800000000E+00  0.93800000000E+00 0. -1.
         11    1    1    2    0    0 -0.27215470040E-01  0.53901014362E-01  0.41807314219E+00  0.42241142799E+00  0.51100000000E-03 0.  1.
    9000002    1    1    2    0    0  0.70396669592E-01 -0.29740411376E+00  0.63600734606E-01  0.98858178792E+00  0.93800000000E+00 0. -1.
         22    1    1    2    0    0 -0.43181199552E-01  0.24350309940E+00  0.35183260906E+01  0.35270067841E+01  0.00000000000E+00 0.  1.
</event>
<event>
 5    1  0.3241783E+002  0.1599565E+01  0.7818608E-02  0.3353836E+00
         11   -1    0    0    0    0  0.00000000000E+00  0.00000000000E+00  0.39999999674E+01  0.40000000000E+01  0.51100000000E-03 0.  1.
    9000002   -1    0    0    0    0 -0.00000000000E+00 -0.00000000000E+00  0.00000000000E+00  0.93800000000E+00  0.93800000000E+00 0. -1.
         11    1    1    2    0    0 -0.15789412625E+00  0.11025473274E+00  0.15754532127E+01  0.15871798095E+01  0.51100000000E-03 0.  1.
    9000002    1    1    2    0    0  0.37529295122E+00 -0.24197659370E+00  0.13545570676E+00  0.10476591620E+01  0.93800000000E+00 0. -1.
         22    1    1    2    0    0 -0.21739882498E+00  0.13172186096E+00  0.22890910479E+01  0.23031610286E+01  0.00000000000E+00 0.  1.
</event>
<event>
 5    1  0.3241783E+002  0.1599670E+01  0.7818608E-02  0.3353721E+00
         11   -1    0    0    0    0  0.00000000000E+00  0.00000000000E+00  0.39999999674E+01  0.40000000000E+01  0.51100000000E-03 0.  1.
    9000002   -1    0    0    0    0 -0.00000000000E+00 -0.00000000000E+00  0.00000000000E+00  0.93800000000E+00  0.93800000000E+00 0.  1.
         11    1    1    2    0    0  0.12470259809E-01 -0.39790004609E-01  0.40340265676E+00  0.40555235969E+00  0.51100000000E-03 0.  1.
    9000002    1    1    2    0    0 -0.13266322668E+00  0.37100843189E+00  0.10464293913E+00  0.10227614252E+01  0.93800000000E+00 0.  1.
         22    1    1    2    0    0  0.12019296687E+00 -0.33121842728E+00  0.34919543715E+01  0.35096862151E+01  0.00000000000E+00 0.  1.
</event>
<event>
 5    1  0.3241783E+002  0.1599644E+01  0.7818608E-02  0.3353750E+00
         11   -1    0    0    0    0  0.00000000000E+00  0.00000000000E+00  0.39999999674E+01  0.40000000000E+01  0.51100000000E-03 0. -1.
    9000002   -1    0    0    0    0 -0.00000000000E+00 -0.00000000000E+00  0.00000000000E+00  0.93800000000E+00  0.93800000000E+00 0. -1.
         11    1    1    2    0    0 -0.24546729162E-01 -0.21310974937E-02  0.35647061971E+00  0.35732149016E+00  0.51100000000E-03 0. -1.
    9000002    1    1    2    0    0  0.30791566823E+00  0.47059332998E-01  0.64824515978E-01  0.99049122027E+00  0.93800000000E+00 0. -1.
         22    1    1    2    0    0 -0.28336893907E+00 -0.44928235505E-01  0.35787048317E+01  0.35901872896E+01  0.00000000000E+00 0. -1.
</event>
<event>
 5    1  0.3241783E+002  0.1599662E+01  0.7818608E-02  0.3353730E+00
         11   -1    0    0    0    0  0.00000000000E+00  0.00000000000E+00  0.39999999674E+01  0.40000000000E+01  0.51100000000E-03 0. -1.
    9000002   -1    0    0    0    0 -0.00000000000E+00 -0.00000000000E+00  0.00000000000E+00  0.93800000000E+00  0.93800000000E+00 0.  1.
         11    1    1    2    0    0  0.36307852768E-01 -0.74923986024E-03  0.45046843404E+00  0.45193018567E+00  0.51100000000E-03 0. -1.
    9000002    1    1    2    0    0 -0.34146461329E+00  0.62893985228E-02  0.78146324510E-01  0.10012934069E+01  0.93800000000E+00 0.  1.
         22    1    1    2    0    0  0.30515676052E+00 -0.55401586626E-02  0.34713852088E+01  0.34847764074E+01  0.00000000000E+00 0. -1.
</event>
<event>
 5    1  0.3241783E+002  0.1599675E+01  0.7818608E-02  0.3353716E+00
         11   -1    0    0    0    0  0.00000000000E+00  0.00000000000E+00  0.39999999674E+01  0.40000000000E+01  0.51100000000E-03 0.  1.
    9000002   -1    0    0    0    0 -0.00000000000E+00 -0.00000000000E+00  0.00000000000E+00  0.93800000000E+00  0.93800000000E+00 0. -1.
         11    1    1    2    0    0  0.46331586496E-01 -0.24846959973E-01  0.79931474386E+00  0.80104201401E+00  0.51100000000E-03 0.  1.
    9000002    1    1    2    0    0 -0.23277175273E+00  0.11688777084E+00  0.45107739383E-01  0.97453791511E+00  0.93800000000E+00 0. -1.
         22    1    1    2    0    0  0.18644016623E+00 -0.92040810872E-01  0.31555774841E+01  0.31624200709E+01  0.00000000000E+00 0.  1.
</event>
<event>
 5    1  0.3241783E+002  0.1581515E+01  0.7818608E-02  0.3373674E+00
         11   -1    0    0    0    0  0.00000000000E+00  0.00000000000E+00  0.39999999674E+01  0.40000000000E+01  0.51100000000E-03 0.  1.
    9000002   -1    0    0    0    0 -0.00000000000E+00 -0.00000000000E+00  0.00000000000E+00  0.93800000000E+00  0.93800000000E+00 0. -1.
         11    1    1    2    0    0  0.12803781641E+00  0.25761774960E+00  0.23802706702E+01  0.23975923990E+01  0.51100000000E-03 0.  1.
    9000002    1    1    2    0    0 -0.39364553858E+00 -0.24346838497E+00  0.16180969036E+00  0.10584233748E+01  0.93800000000E+00 0. -1.
         22    1    1    2    0    0  0.26560772217E+00 -0.14149364625E-01  0.14579196068E+01  0.14819842261E+01  0.00000000000E+00 0.  1.
</event>
<event>
 5    1  0.3241783E+002  0.1576231E+01  0.7818608E-02  0.3379573E+00
         11   -1    0    0    0    0  0.00000000000E+00  0.00000000000E+00  0.39999999674E+01  0.40000000000E+01  0.51100000000E-03 0.  1.
    9000002   -1    0    0    0    0 -0.00000000000E+00 -0.00000000000E+00  0.00000000000E+00  0.93800000000E+00  0.93800000000E+00 0.  1.
         11    1    1    2    0    0 -0.18226750425E-01 -0.47071913081E-01  0.29339712273E+01  0.29344054600E+01  0.51100000000E-03 0.  1.
    9000002    1    1    2    0    0  0.44055286719E-01  0.27834576417E+00  0.71303441173E-01  0.98201090291E+00  0.93800000000E+00 0.  1.
         22    1    1    2    0    0 -0.25828536295E-01 -0.23127385109E+00  0.99472529885E+00  0.10215836371E+01  0.00000000000E+00 0. -1.
</event>
<event>
 5    1  0.3241783E+002  0.1599661E+01  0.7818608E-02  0.3353731E+00
         11   -1    0    0    0    0  0.00000000000E+00  0.00000000000E+00  0.39999999674E+01  0.40000000000E+01  0.51100000000E-03 0. -1.
    9000002   -1    0    0    0    0 -0.00000000000E+00 -0.00000000000E+00  0.00000000000E+00  0.93800000000E+00  0.93800000000E+00 0.  1.
         11    1    1    2    0    0 -0.16264000032E+00 -0.19496775113E-01  0.16211930567E+01  0.16294474776E+01  0.51100000000E-03 0. -1.
    9000002    1    1    2    0    0  0.38257555715E+00  0.39503593781E-01  0.99598663474E-01  0.10186699586E+01  0.93800000000E+00 0.  1.
         22    1    1    2    0    0 -0.21993555683E+00 -0.20006818668E-01  0.22792082472E+01  0.22898825638E+01  0.00000000000E+00 0. -1.
</event>
<event>
 5    1  0.3241783E+002  0.1578967E+01  0.7818608E-02  0.3376513E+00
         11   -1    0    0    0    0  0.00000000000E+00  0.00000000000E+00  0.39999999674E+01  0.40000000000E+01  0.51100000000E-03 0.  1.
    9000002   -1    0    0    0    0 -0.00000000000E+00 -0.00000000000E+00  0.00000000000E+00  0.93800000000E+00  0.93800000000E+00 0.  1.
         11    1    1    2    0    0  0.75739441979E-01  0.24737524420E-01  0.25455023493E+00  0.26672924739E+00  0.51100000000E-03 0.  1.
    9000002    1    1    2    0    0  0.15509887836E+00 -0.28881323327E+00  0.88533487056E-01  0.99757251571E+00  0.93800000000E+00 0.  1.
         22    1    1    2    0    0 -0.23083832034E+00  0.26407570884E+00  0.36569162454E+01  0.36736982369E+01  0.00000000000E+00 0.  1.
</event>
<event>
 5    1  0.3241783E+002  0.1599611E+01  0.7818608E-02  0.3353786E+00
         11   -1    0    0    0    0  0.00000000000E+00  0.00000000000E+00  0.39999999674E+01  0.40000000000E+01  0.51100000000E-03 0.  1.
    9000002   -1    0    0    0    0 -0.00000000000E+00 -0.00000000000E+00  0.00000000000E+00  0.93800000000E+00  0.93800000000E+00 0. -1.
         11    1    1    2    0    0  0.23850711192E-02  0.28333121139E-01  0.30468539076E+00  0.30600964492E+00  0.51100000000E-03 0.  1.
    9000002    1    1    2    0    0 -0.85560691183E-01 -0.32563702409E+00  0.75953098908E-01  0.99948635637E+00  0.93800000000E+00 0. -1.
         22    1    1    2    0    0  0.83175620064E-01  0.29730390295E+00  0.36193614777E+01  0.36325039987E+01  0.00000000000E+00 0.  1.
</event>
<event>
 5    1  0.3241783E+002  0.1556246E+01  0.7818608E-02  0.3402266E+00
         11   -1    0    0    0    0  0.00000000000E+00  0.00000000000E+00  0.39999999674E+01  0.40000000000E+01  0.51100000000E-03 0.  1.
    9000002   -1    0    0    0    0 -0.00000000000E+00 -0.00000000000E+00  0.00000000000E+00  0.93800000000E+00  0.93800000000E+00 0.  1.
         11    1    1    2    0    0  0.24559784457E-01 -0.69468999520E-01  0.82418726707E-01  0.11055420634E+00  0.51100000000E-03 0.  1.
    9000002    1    1    2    0    0  0.25832713733E+00 -0.66730051247E-01  0.81576235102E-01  0.97861355588E+00  0.93800000000E+00 0.  1.
         22    1    1    2    0    0 -0.28288692178E+00  0.13619905077E+00  0.38360050056E+01  0.38488322378E+01  0.00000000000E+00 0.  1.
</event>
<event>
 5    1  0.3241783E+002  0.1598700E+01  0.7818608E-02  0.3354776E+00
         11   -1    0    0    0    0  0.00000000000E+00  0.00000000000E+00  0.39999999674E+01  0.40000000000E+01  0.51100000000E-03 0.  1.
    9000002   -1    0    0    0    0 -0.00000000000E+00 -0.00000000000E+00  0.00000000000E+00  0.93800000000E+00  0.93800000000E+00 0.  1.
         11    1    1    2    0    0 -0.12455379483E-01  0.18666835722E-02  0.49583114330E+00  0.49599133538E+00  0.51100000000E-03 0.  1.
    9000002    1    1    2    0    0  0.24989955545E+00  0.11460292903E+00  0.51065989602E-01  0.97879280466E+00  0.93800000000E+00 0.  1.
         22    1    1    2    0    0 -0.23744417596E+00 -0.11646961260E+00  0.34531028345E+01  0.34632158600E+01  0.00000000000E+00 0.  1.
</event>
<event>
 5    1  0.3241783E+002  0.1599676E+01  0.7818608E-02  0.3353715E+00
         11   -1    0    0    0    0  0.00000000000E+00  0.00000000000E+00  0.39999999674E+01  0.40000000000E+01  0.51100000000E-03 0. -1.
    9000002   -1    0    0    0    0 -0.00000000000E+00 -0.00000000000E+00  0.00000000000E+00  0.93800000000E+00  0.93800000000E+00 0.  1.
         11    1    1    2    0    0  0.46377850655E-01 -0.93700164599E-01  0.10985424541E+01  0.11035064161E+01  0.51100000000E-03 0. -1.
    9000002    1    1    2    0    0 -0.16091767760E+00  0.33217050086E+00  0.91544314008E-01  0.10121541889E+01  0.93800000000E+00 0.  1.
         22    1    1    2    0    0  0.11453982695E+00 -0.23847033626E+00  0.28099131993E+01  0.28223393950E+01  0.00000000000E+00 0. -1.
</event>
<event>
 5    1  0.3241783E+002  0.1599672E+01  0.7818608E-02  0.3353720E+00
         11   -1    0    0    0    0  0.00000000000E+00  0.00000000000E+00  0.39999999674E+01  0.40000000000E+01  0.51100000000E-03 0. -1.
    9000002   -1    0    0    0    0 -0.00000000000E+00 -0.00000000000E+00  0.00000000000E+00  0.93800000000E+00  0.93800000000E+00 0. -1.
         11    1    1    2    0    0  0.86337120656E-01  0.25887796060E-01  0.10014930487E+01  0.10055410802E+01  0.51100000000E-03 0. -1.
    9000002    1    1    2    0    0 -0.34010471506E+00 -0.92112106736E-01  0.83273836915E-01  0.10054523307E+01  0.93800000000E+00 0. -1.
         22    1    1    2    0    0  0.25376759440E+00  0.66224310676E-01  0.29152330818E+01  0.29270065891E+01  0.00000000000E+00 0. -1.
</event>
<event>
 5    1  0.3241783E+002  0.1596040E+01  0.7818608E-02  0.3357672E+00
         11   -1    0    0    0    0  0.00000000000E+00  0.00000000000E+00  0.39999999674E+01  0.40000000000E+01  0.51100000000E-03 0. -1.
    9000002   -1    0    0    0    0 -0.00000000000E+00 -0.00000000000E+00  0.00000000000E+00  0.93800000000E+00  0.93800000000E+00 0. -1.
         11    1    1    2    0    0  0.48596361673E-01 -0.55188281610E-01  0.38073361478E+00  0.38777016303E+00  0.51100000000E-03 0. -1.
    9000002    1    1    2    0    0 -0.10624239476E+00  0.35651150304E+00  0.95998986105E-01  0.10136309504E+01  0.93800000000E+00 0. -1.
         22    1    1    2    0    0  0.57646033091E-01 -0.30132322143E+00  0.35232673665E+01  0.35365988866E+01  0.00000000000E+00 0. -1.
</event>
<event>
 5    1  0.3241783E+002  0.1599610E+01  0.7818608E-02  0.3353787E+00
         11   -1    0    0    0    0  0.00000000000E+00  0.00000000000E+00  0.39999999674E+01  0.40000000000E+01  0.51100000000E-03 0. -1.
    9000002   -1    0    0    0    0 -0.00000000000E+00 -0.00000000000E+00  0.00000000000E+00  0.93800000000E+00  0.93800000000E+00 0. -1.
         11    1    1    2    0    0  0.44331869893E-02  0.26047313728E-02  0.56033710456E-01  0.56271445698E-01  0.51100000000E-03 0. -1.
    9000002    1    1    2    0    0 -0.15932969669E+00 -0.13834569694E+00  0.29547484440E-01  0.96189528429E+00  0.93800000000E+00 0. -1.
         22    1    1    2    0    0  0.15489650970E+00  0.13574096557E+00  0.39144187725E+01  0.39198332700E+01  0.00000000000E+00 0. -1.
</event>
<event>
 5    1  0.3241783E+002  0.1566907E+01  0.7818608E-02  0.3390084E+00
         11   -1    0    0    0    0  0.00000000000E+00  0.00000000000E+00  0.39999999674E+01  0.40000000000E+01  0.51100000000E-03 0. -1.
    9000002   -1    0    0    0    0 -0.00000000000E+00 -0.00000000000E+00  0.00000000000E+00  0.93800000000E+00  0.93800000000E+00 0. -1.
         11    1    1    2    0    0  0.11025720175E+00 -0.14386068803E+00  0.99130812859E+00  0.10077423356E+01  0.51100000000E-03 0. -1.
    9000002    1    1    2    0    0  0.10158533350E+00  0.49754831398E-01  0.32814122329E-01  0.94536547951E+00  0.93800000000E+00 0. -1.
         22    1    1    2    0    0 -0.21184253526E+00  0.94105856628E-01  0.29758777164E+01  0.29848921849E+01  0.00000000000E+00 0. -1.
</event>
<event>
 5    1  0.3241783E+002  0.1599575E+01  0.7818608E-02  0.3353825E+00
         11   -1    0    0    0    0  0.00000000000E+00  0.00000000000E+00  0.39999999674E+01  0.40000000000E+01  0.51100000000E-03 0.  1.
    9000002   -1    0    0    0    0 -0.00000000000E+00 -0.00000000000E+00  0.00000000000E+00  0.93800000000E+00  0.93800000000E+00 0. -1.
         11    1    1    2    0    0  0.69264440215E-01  0.45348877697E-02  0.71441269276E+00  0.71777704378E+00  0.51100000000E-03 0.  1.
    9000002    1    1    2    0    0 -0.33343155388E+00 -0.46471714788E-01  0.75965460397E-01  0.99947534866E+00  0.93800000000E+00 0. -1.
         22    1    1    2    0    0  0.26416711366E+00  0.41936827018E-01  0.32096218142E+01  0.32207476076E+01  0.00000000000E+00 0.  1.
</event>
<event>
 5    1  0.3241783E+002  0.1599662E+01  0.7818608E-02  0.3353730E+00
         11   -1    0    0    0    0  0.00000000000E+00  0.00000000000E+00  0.39999999674E+01  0.40000000000E+01  0.51100000000E-03 0. -1.
    9000002   -1    0    0    0    0 -0.00000000000E+00 -0.00000000000E+00  0.00000000000E+00  0.93800000000E+00  0.93800000000E+00 0. -1.
         11    1    1    2    0    0  0.72826972894E-01  0.63884919296E-01  0.91182668064E+00  0.91695867275E+00  0.51100000000E-03 0. -1.
    9000002    1    1    2    0    0 -0.31566026657E+00 -0.25634839880E+00  0.11164450279E+00  0.10284281212E+01  0.93800000000E+00 0. -1.
         22    1    1    2    0    0  0.24283329367E+00  0.19246347951E+00  0.29765287839E+01  0.29926132061E+01  0.00000000000E+00 0. -1.
</event>
<event>
 5    1  0.3241783E+002  0.1599658E+01  0.7818608E-02  0.3353735E+00
         11   -1    0    0    0    0  0.00000000000E+00  0.00000000000E+00  0.39999999674E+01  0.40000000000E+01  0.51100000000E-03 0. -1.
    9000002   -1    0    0    0    0 -0.00000000000E+00 -0.00000000000E+00  0.00000000000E+00  0.93800000000E+00  0.93800000000E+00 0. -1.
         11    1    1    2    0    0 -0.75244760809E-02 -0.32334892594E-02  0.12501256647E+00  0.12528158719E+00  0.51100000000E-03 0. -1.
    9000002    1    1    2    0    0  0.20982316387E+00  0.54333945734E-01  0.31147569363E-01  0.96321965762E+00  0.93800000000E+00 0. -1.
         22    1    1    2    0    0 -0.20229868779E+00 -0.51100456475E-01  0.38438398315E+01  0.38494987552E+01  0.00000000000E+00 0. -1.
</event>
<event>
 5    1  0.3241783E+002  0.1589992E+01  0.7818608E-02  0.3364298E+00
         11   -1    0    0    0    0  0.00000000000E+00  0.00000000000E+00  0.39999999674E+01  0.40000000000E+01  0.51100000000E-03 0. -1.
    9000002   -1    0    0    0    0 -0.00000000000E+00 -0.00000000000E+00  0.00000000000E+00  0.93800000000E+00  0.93800000000E+00 0.  1.
         11    1    1    2    0    0 -0.46487606127E-02 -0.70700423141E-02  0.12737956499E-02  0.85720563411E-02  0.51100000000E-03 0. -1.
    9000002    1    1    2    0    0  0.26150915131E+00 -0.46111164300E-01  0.54389429464E-01  0.97637876141E+00  0.93800000000E+00 0.  1.
         22    1    1    2    0    0 -0.25686039070E+00  0.53181206614E-01  0.39443367422E+01  0.39530491822E+01  0.00000000000E+00 0. -1.
</event>
<event>
 5    1  0.3241783E+002  0.1548826E+01  0.7818608E-02  0.3410850E+00
         11   -1    0    0    0    0  0.00000000000E+00  0.00000000000E+00  0.39999999674E+01  0.40000000000E+01  0.51100000000E-03 0. -1.
    9000002   -1    0    0    0    0 -0.00000000000E+00 -0.00000000000E+00  0.00000000000E+00  0.93800000000E+00  0.93800000000E+00 0.  1.
         11    1    1    2    0    0 -0.16735583297E+00 -0.22296404474E+00  0.23819241966E+01  0.23981834958E+01  0.51100000000E-03 0. -1.
    9000002    1    1    2    0    0  0.26359933397E+00 -0.68980270195E-01  0.89756118452E-01  0.98088890673E+00  0.93800000000E+00 0.  1.
         22    1    1    2    0    0 -0.96243501009E-01  0.29194431493E+00  0.15283196523E+01  0.15589275975E+01  0.00000000000E+00 0. -1.
</event>
<event>
 5    1  0.3241783E+002  0.1599676E+01  0.7818608E-02  0.3353716E+00
         11   -1    0    0    0    0  0.00000000000E+00  0.00000000000E+00  0.39999999674E+01  0.40000000000E+01  0.51100000000E-03 0. -1.
    9000002   -1    0    0    0    0 -0.00000000000E+00 -0.00000000000E+00  0.00000000000E+00  0.93800000000E+00  0.93800000000E+00 0.  1.
         11    1    1    2    0    0 -0.14697410312E+00  0.36433044103E+00  0.23888839971E+01  0.24209719267E+01  0.51100000000E-03 0. -1.
    9000002    1    1    2    0    0  0.22856375340E+00 -0.57147346565E+00  0.26519827583E+00  0.11528215113E+01  0.93800000000E+00 0.  1.
         22    1    1    2    0    0 -0.81589650275E-01  0.20714302462E+00  0.13459176944E+01  0.13642065620E+01  0.00000000000E+00 0. -1.
</event>
<event>
 5    1  0.3241783E+002  0.1596315E+01  0.7818608E-02  0.3357373E+00
         11   -1    0    0    0    0  0.00000000000E+00  0.00000000000E+00  0.39999999674E+01  0.40000000000E+01  0.51100000000E-03 0.  1.
    9000002   -1    0    0    0    0 -0.00000000000E+00 -0.00000000000E+00  0.00000000000E+00  0.93800000000E+00  0.93800000000E+00 0. -1.
         11    1    1    2    0    0 -0.63639243625E-01  0.93486388600E-01  0.74605609274E+00  0.75457909646E+00  0.51100000000E-03 0.  1.
    9000002    1    1    2    0    0  0.11789265792E+00 -0.30053552850E+00  0.72349473513E-01  0.99463497274E+00  0.93800000000E+00 0. -1.
         22    1    1    2    0    0 -0.54253414296E-01  0.20704913990E+00  0.31815944011E+01  0.31887859308E+01  0.00000000000E+00 0.  1.
</event>
<event>
 5    1  0.3241783E+002  0.1599289E+01  0.7818608E-02  0.3354136E+00
         11   -1    0    0    0    0  0.00000000000E+00  0.00000000000E+00  0.39999999674E+01  0.40000000000E+01  0.51100000000E-03 0.  1.
    9000002   -1    0    0    0    0 -0.00000000000E+00 -0.00000000000E+00  0.00000000000E+00  0.93800000000E+00  0.93800000000E+00 0. -1.
         11    1    1    2    0    0  0.24255609122E+00 -0.18148921246E+00  0.18332196178E+01  0.18580813275E+01  0.51100000000E-03 0.  1.
    9000002    1    1    2    0    0 -0.53582445894E+00  0.37818244475E+00  0.30436062786E+00  0.11843180333E+01  0.93800000000E+00 0. -1.
         22    1    1    2    0    0  0.29326836773E+00 -0.19669323229E+00  0.18624197217E+01  0.18956006391E+01  0.00000000000E+00 0.  1.
</event>
<event>
 5    1  0.3241783E+002  0.1599677E+01  0.7818608E-02  0.3353714E+00
         11   -1    0    0    0    0  0.00000000000E+00  0.00000000000E+00  0.39999999674E+01  0.40000000000E+01  0.51100000000E-03 0.  1.
    9000002   -1    0    0    0    0 -0.00000000000E+00 -0.00000000000E+00  0.00000000000E+00  0.93800000000E+00  0.93800000000E+00 0. -1.
         11    1    1    2    0    0  0.52570927688E-01 -0.89943129925E-01  0.13075396085E+01  0.13116834824E+01  0.51100000000E-03 0.  1.
    9000002    1    1    2    0    0 -0.15913811366E+00  0.27084424147E+00  0.65920628705E-01  0.99139854330E+00  0.93800000000E+00 0. -1.
         22    1    1    2    0    0  0.10656718597E+00 -0.18090111155E+00  0.26265397301E+01  0.26349179743E+01  0.00000000000E+00 0.  1.
</event>
<event>
 5    1  0.3241783E+002  0.1595007E+01  0.7818608E-02  0.3358801E+00
         11   -1    0    0    0    0  0.00000000000E+00  0.00000000000E+00  0.39999999674E+01  0.40000000000E+01  0.51100000000E-03 0. -1.
    9000002   -1    0    0    0    0 -0.00000000000E+00 -0.00000000000E+00  0.00000000000E+00  0.93800000000E+00  0.93800000000E+00 0.  1.
         11    1    1    2    0    0  0.39895325123E-01 -0.22688981006E-01  0.31171394862E+00  0.31507502870E+00  0.51100000000E-03 0. -1.
    9000002    1    1    2    0    0  0.56920281245E-01  0.32236735080E+00  0.75399113861E-01  0.99633812215E+00  0.93800000000E+00 0.  1.
         22    1    1    2    0    0 -0.96815606368E-01 -0.29967836980E+00  0.36128869049E+01  0.36265868491E+01  0.00000000000E+00 0. -1.
</event>
<event>
 5    1  0.3241783E+002  0.1599675E+01  0.7818608E-02  0.3353716E+00
         11   -1    0    0    0    0  0.00000000000E+00  0.00000000000E+00  0.39999999674E+01  0.40000000000E+01  0.51100000000E-03 0.  1.
    9000002   -1    0    0    0    0 -0.00000000000E+00 -0.00000000000E+00  0.00000000000E+00  0.93800000000E+00  0.93800000000E+00 0. -1.
         11    1    1    2    0    0  0.40573501089E-01  0.23842814998E+00  0.19654531636E+01  0.19802779076E+01  0.51100000000E-03 0.  1.
    9000002    1    1    2    0    0 -0.76181438665E-01 -0.46807491028E+00  0.15331378048E+00  0.10621896481E+01  0.93800000000E+00 0. -1.
         22    1    1    2    0    0  0.35607937576E-01  0.22964676031E+00  0.18812330232E+01  0.18955324443E+01  0.00000000000E+00 0. -1.
</event>
<event>
 5    1  0.3241783E+002  0.1587569E+01  0.7818608E-02  0.3366967E+00
         11   -1    0    0    0    0  0.00000000000E+00  0.00000000000E+00  0.39999999674E+01  0.40000000000E+01  0.51100000000E-03 0.  1.
    9000002   -1    0    0    0    0 -0.00000000000E+00 -0.00000000000E+00  0.00000000000E+00  0.93800000000E+00  0.93800000000E+00 0.  1.
         11    1    1    2    0    0  0.57667166873E-01  0.35571499202E-01  0.68059733716E+00  0.68396186309E+00  0.51100000000E-03 0.  1.
    9000002    1    1    2    0    0  0.20348901113E+00  0.10508293794E-01  0.36633377885E-01  0.96057493527E+00  0.93800000000E+00 0.  1.
         22    1    1    2    0    0 -0.26115617800E+00 -0.46079792996E-01  0.32827692523E+01  0.32934632016E+01  0.00000000000E+00 0.  1.
</event>
<event>
 5    1  0.3241783E+002  0.1599409E+01  0.7818608E-02  0.3354006E+00
         11   -1    0    0    0    0  0.00000000000E+00  0.00000000000E+00  0.39999999674E+01  0.40000000000E+01  0.51100000000E-03 0.  1.
    9000002   -1    0    0    0    0 -0.00000000000E+00 -0.00000000000E+00  0.00000000000E+00  0.93800000000E+00  0.93800000000E+00 0.  1.
         11    1    1    2    0    0 -0.17959294192E-01  0.16902701548E-01  0.32801639299E+00  0.32894262837E+00  0.51100000000E-03 0.  1.
    9000002    1    1    2    0    0  0.32658755115E+00 -0.13529563409E+00  0.84039114379E-01  0.10059179439E+01  0.93800000000E+00 0.  1.
         22    1    1    2    0    0 -0.30862825696E+00  0.11839293255E+00  0.35879444600E+01  0.36031394277E+01  0.00000000000E+00 0.  1.
</event>
<event>
 5    1  0.3241783E+002  0.1599632E+01  0.7818608E-02  0.3353763E+00
         11   -1    0    0    0    0  0.00000000000E+00  0.00000000000E+00  0.39999999674E+01  0.40000000000E+01  0.51100000000E-03 0. -1.
    9000002   -1    0    0    0    0 -0.00000000000E+00 -0.00000000000E+00  0.00000000000E+00  0.93800000000E+00  0.93800000000E+00 0.  1.
         11    1    1    2    0    0  0.96685712387E-02 -0.12882698546E-02  0.19930831993E+00  0.19954750918E+00  0.51100000000E-03 0. -1.
    9000002    1    1    2    0    0 -0.24304997587E+00  0.72456219063E-01  0.42775408258E-01  0.97262373506E+00  0.93800000000E+00 0.  1.
         22    1    1    2    0    0  0.23338140463E+00 -0.71167949209E-01  0.37579162392E+01  0.37658287558E+01  0.00000000000E+00 0. -1.
</event>
<event>
 5    1  0.3241783E+002  0.1599675E+01  0.7818608E-02  0.3353716E+00
         11   -1    0    0    0    0  0.00000000000E+00  0.00000000000E+00  0.39999999674E+01  0.40000000000E+01  0.51100000000E-03 0. -1.
    9000002   -1    0    0    0    0 -0.00000000000E+00 -0.00000000000E+00  0.00000000000E+00  0.93800000000E+00  0.93800000000E+00 0.  1.
         11    1    1    2    0    0  0.26528694753E-01  0.59648308945E-01  0.88706132225E+00  0.88946036616E+00  0.51100000000E-03 0. -1.
    9000002    1    1    2    0    0 -0.12365902460E+00 -0.26656728846E+00  0.57573757528E-01  0.98463618215E+00  0.93800000000E+00 0.  1.
         22    1    1    2    0    0  0.97130329846E-01  0.20691897951E+00  0.30553648876E+01  0.30639034517E+01  0.00000000000E+00 0. -1.
</event>
<event>
 5    1  0.3241783E+002  0.1598124E+01  0.7818608E-02  0.3355402E+00
         11   -1    0    0    0    0  0.00000000000E+00  0.00000000000E+00  0.39999999674E+01  0.40000000000E+01  0.51100000000E-03 0.  1.
    9000002   -1    0    0    0    0 -0.00000000000E+00 -0.00000000000E+00  0.00000000000E+00  0.93800000000E+00  0.93800000000E+00 0.  1.
         11    1    1    2    0    0 -0.91252806996E-01  0.87218809881E-01  0.20388602365E+01  0.20427641863E+01  0.51100000000E-03 0.  1.
    9000002    1    1    2    0    0  0.24317271552E+00 -0.22961118850E+00  0.76113974429E-01  0.99874501479E+00  0.93800000000E+00 0.  1.
         22    1    1    2    0    0 -0.15191990852E+00  0.14239237862E+00  0.18850257564E+01  0.18964907990E+01  0.00000000000E+00 0.  1.
</event>
<event>
 5    1  0.3241783E+002  0.1599119E+01  0.7818608E-02  0.3354320E+00
         11   -1    0    0    0    0  0.00000000000E+00  0.00000000000E+00  0.39999999674E+01  0.40000000000E+01  0.51100000000E-03 0. -1.
    9000002   -1    0    0    0    0 -0.00000000000E+00 -0.00000000000E+00  0.00000000000E+00  0.93800000000E+00  0.93800000000E+00 0. -1.
         11    1    1    2    0    0 -0.22582353802E-01  0.12146881619E+00  0.17962007089E+01  0.18004449127E+01  0.51100000000E-03 0. -1.
    9000002    1    1    2    0    0  0.25432007945E-01 -0.32302281636E+00  0.70646703913E-01  0.99489973550E+00  0.93800000000E+00 0. -1.
         22    1    1    2    0    0 -0.28496541437E-02  0.20155400016E+00  0.21331525546E+01  0.21426553518E+01  0.00000000000E+00 0.  1.
</event>
<event>
 5    1  0.3241783E+002  0.1598511E+01  0.7818608E-02  0.3354981E+00
         11   -1    0    0    0    0  0.00000000000E+00  0.00000000000E+00  0.39999999674E+01  0.40000000000E+01  0.51100000000E-03 0. -1.
    9000002   -1    0    0    0    0 -0.00000000000E+00 -0.00000000000E+00  0.00000000000E+00  0.93800000000E+00  0.93800000000E+00 0. -1.
         11    1    1    2    0    0 -0.93353010852E-01  0.36590517157E-02  0.11558300746E+01  0.11595997567E+01  0.51100000000E-03 0. -1.
    9000002    1    1    2    0    0  0.42606680511E+00  0.44499725700E-01  0.12524444518E+00  0.10387700992E+01  0.93800000000E+00 0. -1.
         22    1    1    2    0    0 -0.33271379426E+00 -0.48158777415E-01  0.27189254476E+01  0.27396301441E+01  0.00000000000E+00 0. -1.
</event>
<event>
 5    1  0.3241783E+002  0.1599359E+01  0.7818608E-02  0.3354059E+00
         11   -1    0    0    0    0  0.00000000000E+00  0.00000000000E+00  0.39999999674E+01  0.40000000000E+01  0.51100000000E-03 0. -1.
    9000002   -1    0    0    0    0 -0.00000000000E+00 -0.00000000000E+00  0.00000000000E+00  0.93800000000E+00  0.93800000000E+00 0. -1.
         11    1    1    2    0    0  0.10011872457E-01  0.50125542188E-01  0.82897907684E+00  0.83055365783E+00  0.51100000000E-03 0. -1.
    9000002    1    1    2    0    0 -0.10610495123E+00 -0.29690395170E+00  0.66665835558E-01  0.99181578473E+00  0.93800000000E+00 0. -1.
         22    1    1    2    0    0  0.96093078773E-01  0.24677840952E+00  0.31043550550E+01  0.31156305574E+01  0.00000000000E+00 0. -1.
</event>
<event>
 5    1  0.3241783E+002  0.1599669E+01  0.7818608E-02  0.3353723E+00
         11   -1    0    0    0    0  0.00000000000E+00  0.00000000000E+00  0.39999999674E+01  0.40000000000E+01  0.51100000000E-03 0.  1.
    9000002   -1    0    0    0    0 -0.00000000000E+00 -0.00000000000E+00  0.00000000000E+00  0.93800000000E+00  0.93800000000E+00 0. -1.
         11    1    1    2    0    0 -0.17468931331E+00  0.15751907311E+00  0.20498511863E+01  0.20633028768E+01  0.51100000000E-03 0.  1.
    9000002    1    1    2    0    0  0.32843748630E+00 -0.29096270663E+00  0.13055772810E+00  0.10437527482E+01  0.93800000000E+00 0. -1.
         22    1    1    2    0    0 -0.15374817299E+00  0.13344363351E+00  0.18195910530E+01  0.18309443749E+01  0.00000000000E+00 0. -1.
</event>
<event>
 5    1  0.3241783E+002  0.1599672E+01  0.7818608E-02  0.3353719E+00
         11   -1    0    0    0    0  0.00000000000E+00  0.00000000000E+00  0.39999999674E+01  0.40000000000E+01  0.51100000000E-03 0.  1.
    9000002   -1    0    0    0    0 -0.00000000000E+00 -0.00000000000E+00  0.00000000000E+00  0.93800000000E+00  0.93800000000E+00 0. -1.
         11    1    1    2    0    0  0.62871248779E-01  0.94709873896E-01  0.11596018952E+01  0.11651607488E+01  0.51100000000E-03 0.  1.
    9000002    1    1    2    0    0 -0.21834844845E+00 -0.31438006580E+00  0.98615474339E-01  0.10178800924E+01  0.93800000000E+00 0. -1.
         22    1    1    2    0    0  0.15547719967E+00  0.21967019190E+00  0.27417825978E+01  0.27549591588E+01  0.00000000000E+00 0.  1.
</event>
<event>
 5    1  0.3241783E+002  0.1572050E+01  0.7818608E-02  0.3384270E+00
         11   -1    0    0    0    0  0.00000000000E+00  0.00000000000E+00  0.39999999674E+01  0.40000000000E+01  0.51100000000E-03 0. -1.
    9000002   -1    0    0    0    0 -0.00000000000E+00 -0.00000000000E+00  0.00000000000E+00  0.93800000000E+00  0.93800000000E+00 0.  1.
         11    1    1    2    0    0  0.14457976233E+00  0.50036784601E-01  0.42026529188E+00  0.44724731880E+00  0.51100000000E-03 0. -1.
    9000002    1    1    2    0    0 -0.31095190086E+00  0.88681773656E-01  0.92140991819E-01  0.99643840954E+00  0.93800000000E+00 0.  1.
         22    1    1    2    0    0  0.16637213853E+00 -0.13871855826E+00  0.34875936837E+01  0.34943142717E+01  0.00000000000E+00 0. -1.
</event>
<event>
 5    1  0.3241783E+002  0.1593957E+01  0.7818608E-02  0.3359948E+00
         11   -1    0    0    0    0  0.00000000000E+00  0.00000000000E+00  0.39999999674E+01  0.40000000000E+01  0.51100000000E-03 0.  1.
    9000002   -1    0    0    0    0 -0.00000000000E+00 -0.00000000000E+00  0.00000000000E+00  0.93800000000E+00  0.93800000000E+00 0.  1.
         11    1    1    2    0    0  0.57989888618E-01  0.47523532394E-01  0.40090688041E+00  0.40785769723E+00  0.51100000000E-03 0.  1.
    9000002    1    1    2    0    0 -0.58045977819E-01 -0.65054535574E+00  0.30730858465E+00  0.11835798079E+01  0.93800000000E+00 0.  1.
         22    1    1    2    0    0  0.56089200662E-04  0.60302182335E+00  0.32917845023E+01  0.33465624949E+01  0.00000000000E+00 0.  1.
</event>
<event>
 5    1  0.3241783E+002  0.1449979E+01  0.7818608E-02  0.3534233E+00
         11   -1    0    0    0    0  0.00000000000E+00  0.00000000000E+00  0.39999999674E+01  0.40000000000E+01  0.51100000000E-03 0. -1.
    9000002   -1    0    0    0    0 -0.00000000000E+00 -0.00000000000E+00  0.00000000000E+00  0.93800000000E+00  0.93800000000E+00 0. -1.
         11    1    1    2    0    0  0.19033681834E+00  0.65277171793E-01  0.96467414408E-01  0.22314891158E+00  0.51100000000E-03 0. -1.
    9000002    1    1    2    0    0 -0.36889963287E+00  0.17025608683E+00  0.25390392790E+00  0.10532736011E+01  0.93800000000E+00 0. -1.
         22    1    1    2    0    0  0.17856281453E+00 -0.23553325863E+00  0.36496286251E+01  0.36615774873E+01  0.00000000000E+00 0. -1.
</event>
<event>
 5    1  0.3241783E+002  0.1567254E+01  0.7818608E-02  0.3389690E+00
         11   -1    0    0    0    0  0.00000000000E+00  0.00000000000E+00  0.39999999674E+01  0.40000000000E+01  0.51100000000E-03 0.  1.
    9000002   -1    0    0    0    0 -0.00000000000E+00 -0.00000000000E+00  0.00000000000E+00  0.93800000000E+00  0.93800000000E+00 0. -1.
         11    1    1    2    0    0 -0.18791027724E+00  0.32755448222E+00  0.18019115478E+01  0.18410561367E+01  0.51100000000E-03 0.  1.
    9000002    1    1    2    0    0 -0.50964645570E-01 -0.59092768786E+00  0.27782437068E+00  0.11440381586E+01  0.93800000000E+00 0. -1.
         22    1    1    2    0    0  0.23887492281E+00  0.26337320565E+00  0.19202640489E+01  0.19529057047E+01  0.00000000000E+00 0.  1.
</event>
<event>
 5    1  0.3241783E+002  0.1599662E+01  0.7818608E-02  0.3353730E+00
         11   -1    0    0    0    0  0.00000000000E+00  0.00000000000E+00  0.39999999674E+01  0.40000000000E+01  0.51100000000E-03 0.  1.
    9000002   -1    0    0    0    0 -0.00000000000E+00 -0.00000000000E+00  0.00000000000E+00  0.93800000000E+00  0.93800000000E+00 0.  1.
         11    1    1    2    0    0 -0.24624755840E-01  0.49271987212E-02  0.45367525584E+00  0.45437006368E+00  0.51100000000E-03 0.  1.
    9000002    1    1    2    0    0  0.23699302621E+00 -0.30040883331E-01  0.37889545754E-01  0.96868352253E+00  0.93800000000E+00 0.  1.
         22    1    1    2    0    0 -0.21236827037E+00  0.25113684610E-01  0.35084351658E+01  0.35149464138E+01  0.00000000000E+00 0.  1.
</event>
<event>
 5    1  0.3241783E+002  0.1598406E+01  0.7818608E-02  0.3355095E+00
         11   -1    0    0    0    0  0.00000000000E+00  0.00000000000E+00  0.39999999674E+01  0.40000000000E+01  0.51100000000E-03 0.  1.
    9000002   -1    0    0    0    0 -0.00000000000E+00 -0.00000000000E+00  0.00000000000E+00  0.93800000000E+00  0.93800000000E+00 0. -1.
         11    1    1    2    0    0 -0.22235878766E-01  0.10459786861E+00  0.87069589037E+00  0.87723813361E+00  0.51100000000E-03 0.  1.
    9000002    1    1    2    0    0  0.23605855433E+00 -0.38392577199E+00  0.13907075117E+00  0.10499082404E+01  0.93800000000E+00 0. -1.
         22    1    1    2    0    0 -0.21382267556E+00  0.27932790338E+00  0.29902333258E+01  0.30108536260E+01  0.00000000000E+00 0.  1.
</event>
<event>
 5    1  0.3241783E+002  0.1596803E+01  0.7818608E-02  0.3356840E+00
         11   -1    0    0    0    0  0.00000000000E+00  0.00000000000E+00  0.39999999674E+01  0.40000000000E+01  0.51100000000E-03 0. -1.
    9000002   -1    0    0    0    0 -0.00000000000E+00 -0.00000000000E+00  0.00000000000E+00  0.93800000000E+00  0.93800000000E+00 0.  1.
         11    1    1    2    0    0  0.19346096599E+00 -0.37785142092E-01  0.21298336725E+01  0.21389358559E+01  0.51100000000E-03 0. -1.
    9000002    1    1    2    0    0 -0.42181573992E+00 -0.25395298652E-01  0.12324672784E+00  0.10361501800E+01  0.93800000000E+00 0.  1.
         22    1    1    2    0    0  0.22835477392E+00  0.63180440744E-01  0.17469195671E+01  0.17629139640E+01  0.00000000000E+00 0. -1.
</event>
<event>
 5    1  0.3241783E+002  0.1591584E+01  0.7818608E-02  0.3362548E+00
         11   -1    0    0    0    0  0.00000000000E+00  0.00000000000E+00  0.39999999674E+01  0.40000000000E+01  0.51100000000E-03 0. -1.
    9000002   -1    0    0    0    0 -0.00000000000E+00 -0.00000000000E+00  0.00000000000E+00  0.93800000000E+00  0.93800000000E+00 0.  1.
         11    1    1    2    0    0  0.47612865478E-01  0.36018022104E+00  0.15565936263E+01  0.15984307164E+01  0.51100000000E-03 0. -1.
    9000002    1    1    2    0    0 -0.87732183045E-01 -0.60490076684E+00  0.26948636174E+00  0.11515505950E+01  0.93800000000E+00 0.  1.
         22    1    1    2    0    0  0.40119317567E-01  0.24472054580E+00  0.21739199793E+01  0.21880186886E+01  0.00000000000E+00 0. -1.
</event>
<event>
 5    1  0.3241783E+002  0.1599652E+01  0.7818608E-02  0.3353741E+00
         11   -1    0    0    0    0  0.00000000000E+00  0.00000000000E+00  0.39999999674E+01  0.40000000000E+01  0.51100000000E-03 0.  1.
    9000002   -1    0    0    0    0 -0.00000000000E+00 -0.00000000000E+00  0.00000000000E+00  0.93800000000E+00  0.93800000000E+00 0.  1.
         11    1    1    2    0    0  0.15904301605E+00 -0.33206615338E-01  0.17578212987E+01  0.17653139493E+01  0.51100000000E-03 0.  1.
    9000002    1    1    2    0    0 -0.36443076746E+00  0.66265463620E-01  0.92228766220E-01  0.10126949399E+01  0.93800000000E+00 0.  1.
         22    1    1    2    0    0  0.20538775142E+00 -0.33058848282E-01  0.21499499025E+01  0.21599911109E+01  0.00000000000E+00 0.  1.
</event>
<event>
 5    1  0.3241783E+002  0.1599677E+01  0.7818608E-02  0.3353714E+00
         11   -1    0    0    0    0  0.00000000000E+00  0.00000000000E+00  0.39999999674E+01  0.40000000000E+01  0.51100000000E-03 0.  1.
    9000002   -1    0    0    0    0 -0.00000000000E+00 -0.00000000000E+00  0.00000000000E+00  0.93800000000E+00  0.93800000000E+00 0. -1.
         11    1    1    2    0    0  0.13940429529E+00 -0.12960209677E+00  0.15826543229E+01  0.15940593552E+01  0.51100000000E-03 0.  1.
    9000002    1    1    2    0    0 -0.34059428416E+00  0.31497921836E+00  0.14647761919E+00  0.10566532389E+01  0.93800000000E+00 0. -1.
         22    1    1    2    0    0  0.20118998887E+00 -0.18537712159E+00  0.22708680253E+01  0.22872874059E+01  0.00000000000E+00 0.  1.
</event>
<event>
 5    1  0.3241783E+002  0.1572649E+01  0.7818608E-02  0.3383595E+00
         11   -1    0    0    0    0  0.00000000000E+00  0.00000000000E+00  0.39999999674E+01  0.40000000000E+01  0.51100000000E-03 0.  1.
    9000002   -1    0    0    0    0 -0.00000000000E+00 -0.00000000000E+00  0.00000000000E+00  0.93800000000E+00  0.93800000000E+00 0. -1.
         11    1    1    2    0    0  0.27723156435E-01  0.60959553212E+00  0.15005326295E+01  0.16198684266E+01  0.51100000000E-03 0.  1.
    9000002    1    1    2    0    0  0.12831427594E+00 -0.92827615233E+00  0.73027275047E+00  0.15137052086E+01  0.93800000000E+00 0. -1.
         22    1    1    2    0    0 -0.15603743238E+00  0.31868062022E+00  0.17691945874E+01  0.18044263649E+01  0.00000000000E+00 0.  1.
</event>
<event>
 5    1  0.3241783E+002  0.1597769E+01  0.7818608E-02  0.3355788E+00
         11   -1    0    0    0    0  0.00000000000E+00  0.00000000000E+00  0.39999999674E+01  0.40000000000E+01  0.51100000000E-03 0.  1.
    9000002   -1    0    0    0    0 -0.00000000000E+00 -0.00000000000E+00  0.00000000000E+00  0.93800000000E+00  0.93800000000E+00 0. -1.
         11    1    1    2    0    0  0.80398687724E-01 -0.46129659984E-01  0.17510656514E+01  0.17535173427E+01  0.51100000000E-03 0.  1.
    9000002    1    1    2    0    0 -0.18427243332E+00  0.22161098721E+00  0.56841704476E-01  0.98292560181E+00  0.93800000000E+00 0. -1.
         22    1    1    2    0    0  0.10387374560E+00 -0.17548132723E+00  0.21920926114E+01  0.22015570554E+01  0.00000000000E+00 0.  1.
</event>
<event>
 5    1  0.3241783E+002  0.1599427E+01  0.7818608E-02  0.3353986E+00
         11   -1    0    0    0    0  0.00000000000E+00  0.00000000000E+00  0.39999999674E+01  0.40000000000E+01  0.51100000000E-03 0. -1.
    9000002   -1    0    0    0    0 -0.00000000000E+00 -0.00000000000E+00  0.00000000000E+00  0.93800000000E+00  0.93800000000E+00 0.  1.
         11    1    1    2    0    0  0.11198455720E+00 -0.31252394461E-01  0.13261514893E+01  0.13312382533E+01  0.51100000000E-03 0. -1.
    9000002    1    1    2    0    0 -0.36769546819E+00  0.12853530679E+00  0.10241033134E+00  0.10208100501E+01  0.93800000000E+00 0.  1.
         22    1    1    2    0    0  0.25571091099E+00 -0.97282912331E-01  0.25714381467E+01  0.25859516966E+01  0.00000000000E+00 0. -1.
</event>
<event>
 5    1  0.3241783E+002  0.1599674E+01  0.7818608E-02  0.3353717E+00
         11   -1    0    0    0    0  0.00000000000E+00  0.00000000000E+00  0.39999999674E+01  0.40000000000E+01  0.51100000000E-03 0.  1.
    9000002   -1    0    0    0    0 -0.00000000000E+00 -0.00000000000E+00  0.00000000000E+00  0.93800000000E+00  0.93800000000E+00 0.  1.
         11    1    1    2    0    0 -0.36922234906E-01  0.10153190165E+00  0.12417437251E+01  0.12464348031E+01  0.51100000000E-03 0.  1.
    9000002    1    1    2    0    0  0.11137002610E+00 -0.32294217428E+00  0.78175833137E-01  0.10013243189E+01  0.93800000000E+00 0.  1.
         22    1    1    2    0    0 -0.74447791192E-01  0.22141027263E+00  0.26800804092E+01  0.26902408781E+01  0.00000000000E+00 0.  1.
</event>
<event>
 5    1  0.3241783E+002  0.1599553E+01  0.7818608E-02  0.3353849E+00
         11   -1    0    0    0    0  0.00000000000E+00  0.00000000000E+00  0.39999999674E+01  0.40000000000E+01  0.51100000000E-03 0. -1.
    9000002   -1    0    0    0    0 -0.00000000000E+00 -0.00000000000E+00  0.00000000000E+00  0.93800000000E+00  0.93800000000E+00 0. -1.
         11    1    1    2    0    0  0.67987732943E-01 -0.19627644391E+00  0.18848925193E+01  0.18963034685E+01  0.51100000000E-03 0. -1.
    9000002    1    1    2    0    0 -0.11837596555E+00  0.42064665499E+00  0.12955663163E+00  0.10428736253E+01  0.93800000000E+00 0. -1.
         22    1    1    2    0    0  0.50388232606E-01 -0.22437021108E+00  0.19855508164E+01  0.19988229062E+01  0.00000000000E+00 0. -1.
</event>
<event>
 5    1  0.3241783E+002  0.1169193E+01  0.7818608E-02  0.4067456E+00
         11   -1    0    0    0    0  0.00000000000E+00  0.00000000000E+00  0.39999999674E+01  0.40000000000E+01  0.51100000000E-03 0. -1.
    9000002   -1    0    0    0    0 -0.00000000000E+00 -0.00000000000E+00  0.00000000000E+00  0.93800000000E+00  0.93800000000E+00 0. -1.
         11    1    1    2    0    0 -0.79263900842E+00 -0.11244963389E+00  0.90952410432E+00  0.12116748224E+01  0.51100000000E-03 0. -1.
    9000002    1    1    2    0    0  0.23234556997E+00  0.33195847079E+00  0.64597308945E+00  0.12088449539E+01  0.93800000000E+00 0. -1.
         22    1    1    2    0    0  0.56029343845E+00 -0.21950883690E+00  0.24445027736E+01  0.25174802237E+01  0.00000000000E+00 0. -1.
</event>
<event>
 5    1  0.3241783E+002  0.1599677E+01  0.7818608E-02  0.3353714E+00
         11   -1    0    0    0    0  0.00000000000E+00  0.00000000000E+00  0.39999999674E+01  0.40000000000E+01  0.51100000000E-03 0. -1.
    9000002   -1    0    0    0    0 -0.00000000000E+00 -0.00000000000E+00  0.00000000000E+00  0.93800000000E+00  0.93800000000E+00 0. -1.
         11    1    1    2    0    0 -0.87082168838E-01 -0.45148191368E+00  0.24955527687E+01  0.25375584929E+01  0.51100000000E-03 0. -1.
    9000002    1    1    2    0    0  0.12885061357E+00  0.66496741570E+00  0.32593922684E+00  0.12020251762E+01  0.93800000000E+00 0. -1.
         22    1    1    2    0    0 -0.41768444730E-01 -0.21348550202E+00  0.11785079718E+01  0.11984163309E+01  0.00000000000E+00 0. -1.
</event>
<event>
 5    1  0.3241783E+002  0.1599670E+01  0.7818608E-02  0.3353722E+00
         11   -1    0    0    0    0  0.00000000000E+00  0.00000000000E+00  0.39999999674E+01  0.40000000000E+01  0.51100000000E-03 0.  1.
    9000002   -1    0    0    0    0 -0.00000000000E+00 -0.00000000000E+00  0.00000000000E+00  0.93800000000E+00  0.93800000000E+00 0. -1.
         11    1    1    2    0    0  0.11088137982E+00  0.10614662608E+00  0.10682010161E+01  0.10791735071E+01  0.51100000000E-03 0.  1.
    9000002    1    1    2    0    0 -0.39539744292E+00 -0.36745433870E+00  0.20086497624E+00  0.11007054863E+01  0.93800000000E+00 0. -1.
         22    1    1    2    0    0  0.28451606310E+00  0.26130771262E+00  0.27309339751E+01  0.27581210066E+01  0.00000000000E+00 0.  1.
</event>
<event>
 5    1  0.3241783E+002  0.1599675E+01  0.7818608E-02  0.3353716E+00
         11   -1    0    0    0    0  0.00000000000E+00  0.00000000000E+00  0.39999999674E+01  0.40000000000E+01  0.51100000000E-03 0. -1.
    9000002   -1    0    0    0    0 -0.00000000000E+00 -0.00000000000E+00  0.00000000000E+00  0.93800000000E+00  0.93800000000E+00 0. -1.
         11    1    1    2    0    0 -0.21936280136E-01 -0.30046718730E-01  0.31054419603E+00  0.31276503082E+00  0.51100000000E-03 0. -1.
    9000002    1    1    2    0    0  0.27236049325E+00  0.36415753494E+00  0.14054954004E+00  0.10518503324E+01  0.93800000000E+00 0. -1.
         22    1    1    2    0    0 -0.25042421311E+00 -0.33411081621E+00  0.35489062313E+01  0.35733846368E+01  0.00000000000E+00 0. -1.
</event>
<event>
 5    1  0.3241783E+002  0.1599676E+01  0.7818608E-02  0.3353715E+00
         11   -1    0    0    0    0  0.00000000000E+00  0.00000000000E+00  0.39999999674E+01  0.40000000000E+01  0.51100000000E-03 0. -1.
    9000002   -1    0    0    0    0 -0.00000000000E+00 -0.00000000000E+00  0.00000000000E+00  0.93800000000E+00  0.93800000000E+00 0. -1.
         11    1    1    2    0    0  0.27771435998E+00 -0.11210578179E+00  0.21319582273E+01  0.21528908742E+01  0.51100000000E-03 0. -1.
    9000002    1    1    2    0    0 -0.49703185554E+00  0.19877864589E+00  0.19738199015E+00  0.10978876379E+01  0.93800000000E+00 0. -1.
         22    1    1    2    0    0  0.21931749556E+00 -0.86672864095E-01  0.16706597499E+01  0.16872214879E+01  0.00000000000E+00 0. -1.
</event>
<event>
 5    1  0.3241783E+002  0.1599671E+01  0.7818608E-02  0.3353720E+00
         11   -1    0    0    0    0  0.00000000000E+00  0.00000000000E+00  0.39999999674E+01  0.40000000000E+01  0.51100000000E-03 0.  1.
    9000002   -1    0    0    0    0 -0.00000000000E+00 -0.00000000000E+00  0.00000000000E+00  0.93800000000E+00  0.93800000000E+00 0. -1.
         11    1    1    2    0    0  0.13937435814E+00  0.31722998992E+00  0.23256730261E+01  0.23513433104E+01  0.51100000000E-03 0.  1.
    9000002    1    1    2    0    0 -0.22207857567E+00 -0.51602165727E+00  0.21848372641E+00  0.11149781986E+01  0.93800000000E+00 0. -1.
         22    1    1    2    0    0  0.82704217530E-01  0.19879166735E+00  0.14558432149E+01  0.14716784910E+01  0.00000000000E+00 0. -1.
</event>
<event>
 5    1  0.3241783E+002  0.1599638E+01  0.7818608E-02  0.3353756E+00
         11   -1    0    0    0    0  0.00000000000E+00  0.00000000000E+00  0.39999999674E+01  0.40000000000E+01  0.51100000000E-03 0. -1.
    9000002   -1    0    0    0    0 -0.00000000000E+00 -0.00000000000E+00  0.00000000000E+00  0.93800000000E+00  0.93800000000E+00 0.  1.
         11    1    1    2    0    0 -0.52377724045E-02 -0.25318158626E-01  0.18100109816E+00  0.18283900588E+00  0.51100000000E-03 0. -1.
    9000002    1    1    2    0    0  0.90872415049E-01  0.47310187834E+00  0.15843349202E+00  0.10663153166E+01  0.93800000000E+00 0.  1.
         22    1    1    2    0    0 -0.85634642645E-01 -0.44778371971E+00  0.36605653772E+01  0.36888456775E+01  0.00000000000E+00 0. -1.
</event>
<event>
 5    1  0.3241783E+002  0.1599677E+01  0.7818608E-02  0.3353714E+00
         11   -1    0    0    0    0  0.00000000000E+00  0.00000000000E+00  0.39999999674E+01  0.40000000000E+01  0.51100000000E-03 0. -1.
    9000002   -1    0    0    0    0 -0.00000000000E+00 -0.00000000000E+00  0.00000000000E+00  0.93800000000E+00  0.93800000000E+00 0. -1.
         11    1    1    2    0    0 -0.15390636315E+00 -0.26046564739E+00  0.22846008646E+01  0.23045457022E+01  0.51100000000E-03 0. -1.
    9000002    1    1    2    0    0  0.25664272108E+00  0.43543016933E+00  0.17504111854E+00  0.10797908649E+01  0.93800000000E+00 0. -1.
         22    1    1    2    0    0 -0.10273635793E+00 -0.17496452194E+00  0.15403579842E+01  0.15536634329E+01  0.00000000000E+00 0. -1.
</event>
<event>
 5    1  0.3241783E+002  0.1595525E+01  0.7818608E-02  0.3358235E+00
         11   -1    0    0    0    0  0.00000000000E+00  0.00000000000E+00  0.39999999674E+01  0.40000000000E+01  0.51100000000E-03 0.  1.
    9000002   -1    0    0    0    0 -0.00000000000E+00 -0.00000000000E+00  0.00000000000E+00  0.93800000000E+00  0.93800000000E+00 0.  1.
         11    1    1    2    0    0 -0.70506004416E-01  0.62809141335E-01  0.10631473662E+01  0.10673325013E+01  0.51100000000E-03 0.  1.
    9000002    1    1    2    0    0  0.12907377920E-01 -0.29083292346E+00  0.59734085470E-01  0.98395251447E+00  0.93800000000E+00 0.  1.
         22    1    1    2    0    0  0.57598626496E-01  0.22802378212E+00  0.28771185157E+01  0.28867149842E+01  0.00000000000E+00 0.  1.
</event>
<event>
 5    1  0.3241783E+002  0.1599673E+01  0.7818608E-02  0.3353719E+00
         11   -1    0    0    0    0  0.00000000000E+00  0.00000000000E+00  0.39999999674E+01  0.40000000000E+01  0.51100000000E-03 0.  1.
    9000002   -1    0    0    0    0 -0.00000000000E+00 -0.00000000000E+00  0.00000000000E+00  0.93800000000E+00  0.93800000000E+00 0.  1.
         11    1    1    2    0    0  0.19594392510E+00  0.11593661711E+00  0.16957187657E+01  0.17109347487E+01  0.51100000000E-03 0.  1.
    9000002    1    1    2    0    0 -0.43853353402E+00 -0.25663461545E+00  0.17698111061E+00  0.10813599307E+01  0.93800000000E+00 0.  1.
         22    1    1    2    0    0  0.24258960892E+00  0.14069799834E+00  0.21273000911E+01  0.21457053206E+01  0.00000000000E+00 0.  1.
</event>
<event>
 5    1  0.3241783E+002  0.1599674E+01  0.7818608E-02  0.3353718E+00
         11   -1    0    0    0    0  0.00000000000E+00  0.00000000000E+00  0.39999999674E+01  0.40000000000E+01  0.51100000000E-03 0. -1.
    9000002   -1    0    0    0    0 -0.00000000000E+00 -0.00000000000E+00  0.00000000000E+00  0.93800000000E+00  0.93800000000E+00 0.  1.
         11    1    1    2    0    0  0.11531087098E+00  0.20538823768E-01  0.12421580588E+01  0.12476679624E+01  0.51100000000E-03 0. -1.
    9000002    1    1    2    0    0 -0.36799601992E+00 -0.60840916111E-01  0.93531628882E-01  0.10137627204E+01  0.93800000000E+00 0.  1.
         22    1    1    2    0    0  0.25268514894E+00  0.40302092343E-01  0.26643102797E+01  0.26765693172E+01  0.00000000000E+00 0.  1.
</event>
<event>
 5    1  0.3241783E+002  0.1599677E+01  0.7818608E-02  0.3353714E+00
         11   -1    0    0    0    0  0.00000000000E+00  0.00000000000E+00  0.39999999674E+01  0.40000000000E+01  0.51100000000E-03 0. -1.
    9000002   -1    0    0    0    0 -0.00000000000E+00 -0.00000000000E+00  0.00000000000E+00  0.93800000000E+00  0.93800000000E+00 0.  1.
         11    1    1    2    0    0 -0.90668557774E-01  0.14701602384E-01  0.10975188749E+01  0.11013559218E+01  0.51100000000E-03 0. -1.
    9000002    1    1    2    0    0  0.32381770044E+00 -0.53591819948E-01  0.72066865154E-01  0.99637724750E+00  0.93800000000E+00 0.  1.
         22    1    1    2    0    0 -0.23314914267E+00  0.38890217564E-01  0.28304142273E+01  0.28402668307E+01  0.00000000000E+00 0. -1.
</event>
<event>
 5    1  0.3241783E+002  0.1599676E+01  0.7818608E-02  0.3353715E+00
         11   -1    0    0    0    0  0.00000000000E+00  0.00000000000E+00  0.39999999674E+01  0.40000000000E+01  0.51100000000E-03 0.  1.
    9000002   -1    0    0    0    0 -0.00000000000E+00 -0.00000000000E+00  0.00000000000E+00  0.93800000000E+00  0.93800000000E+00 0. -1.
         11    1    1    2    0    0 -0.25408373972E-01 -0.10157057955E+00  0.13450022336E+01  0.13490713241E+01  0.51100000000E-03 0.  1.
    9000002    1    1    2    0    0  0.73818360460E-01  0.30071627383E+00  0.64021648048E-01  0.98985968658E+00  0.93800000000E+00 0. -1.
         22    1    1    2    0    0 -0.48409986489E-01 -0.19914569428E+00  0.25909760857E+01  0.25990689893E+01  0.00000000000E+00 0.  1.
</event>
<event>
 5    1  0.3241783E+002  0.1599654E+01  0.7818608E-02  0.3353739E+00
         11   -1    0    0    0    0  0.00000000000E+00  0.00000000000E+00  0.39999999674E+01  0.40000000000E+01  0.51100000000E-03 0.  1.
    9000002   -1    0    0    0    0 -0.00000000000E+00 -0.00000000000E+00  0.00000000000E+00  0.93800000000E+00  0.93800000000E+00 0.  1.
         11    1    1    2    0    0 -0.11406978514E+00 -0.12084954264E-01  0.10742454179E+01  0.10803524615E+01  0.51100000000E-03 0.  1.
    9000002    1    1    2    0    0  0.39664620486E+00  0.35665106030E-01  0.10697379455E+00  0.10246402317E+01  0.93800000000E+00 0.  1.
         22    1    1    2    0    0 -0.28257641972E+00 -0.23580151766E-01  0.28187807549E+01  0.28330073069E+01  0.00000000000E+00 0.  1.
</event>
<event>
 5    1  0.3241783E+002  0.1572096E+01  0.7818608E-02  0.3384218E+00
         11   -1    0    0    0    0  0.00000000000E+00  0.00000000000E+00  0.39999999674E+01  0.40000000000E+01  0.51100000000E-03 0. -1.
    9000002   -1    0    0    0    0 -0.00000000000E+00 -0.00000000000E+00  0.00000000000E+00  0.93800000000E+00  0.93800000000E+00 0.  1.
         11    1    1    2    0    0 -0.14395102562E+00 -0.69856765343E-02  0.88905257153E+00  0.90065833339E+00  0.51100000000E-03 0. -1.
    9000002    1    1    2    0    0 -0.89982993548E-01  0.16557138978E+00  0.44371762246E-01  0.95777015903E+00  0.93800000000E+00 0.  1.
         22    1    1    2    0    0  0.23393401916E+00 -0.15858571325E+00  0.30665756336E+01  0.30795715076E+01  0.00000000000E+00 0. -1.
</event>
<event>
 5    1  0.3241783E+002  0.1599479E+01  0.7818608E-02  0.3353930E+00
         11   -1    0    0    0    0  0.00000000000E+00  0.00000000000E+00  0.39999999674E+01  0.40000000000E+01  0.51100000000E-03 0. -1.
    9000002   -1    0    0    0    0 -0.00000000000E+00 -0.00000000000E+00  0.00000000000E+00  0.93800000000E+00  0.93800000000E+00 0. -1.
         11    1    1    2    0    0  0.47292109528E-01 -0.86727897742E-01  0.11228141254E+01  0.11271513177E+01  0.51100000000E-03 0. -1.
    9000002    1    1    2    0    0 -0.11444119137E+00  0.28811655507E+00  0.64331788762E-01  0.98999520940E+00  0.93800000000E+00 0. -1.
         22    1    1    2    0    0  0.67149081840E-01 -0.20138865733E+00  0.28128540532E+01  0.28208534729E+01  0.00000000000E+00 0. -1.
</event>
<event>
 5    1  0.3241783E+002  0.1585235E+01  0.7818608E-02  0.3369546E+00
         11   -1    0    0    0    0  0.00000000000E+00  0.00000000000E+00  0.39999999674E+01  0.40000000000E+01  0.51100000000E-03 0.  1.
    9000002   -1    0    0    0    0 -0.00000000000E+00 -0.00000000000E+00  0.00000000000E+00  0.93800000000E+00  0.93800000000E+00 0. -1.
         11    1    1    2    0    0 -0.24165687837E-01 -0.10752641941E-01  0.36448829304E-01  0.45037518316E-01  0.51100000000E-03 0.  1.
    9000002    1    1    2    0    0 -0.30562283860E+00  0.28131578183E-01  0.74313380537E-01  0.98972884352E+00  0.93800000000E+00 0. -1.
         22    1    1    2    0    0  0.32978852644E+00 -0.17378936242E-01  0.38892377575E+01  0.39032336382E+01  0.00000000000E+00 0.  1.
</event>
<event>
 5    1  0.3241783E+002  0.1599652E+01  0.7818608E-02  0.3353741E+00
         11   -1    0    0    0    0  0.00000000000E+00  0.00000000000E+00  0.39999999674E+01  0.40000000000E+01  0.51100000000E-03 0. -1.
    9000002   -1    0    0    0    0 -0.00000000000E+00 -0.00000000000E+00  0.00000000000E+00  0.93800000000E+00  0.93800000000E+00 0.  1.
         11    1    1    2    0    0 -0.12896607634E+00  0.15314335623E+00  0.18104678348E+01  0.18215046468E+01  0.51100000000E-03 0. -1.
    9000002    1    1    2    0    0  0.28100938698E+00 -0.33886367858E+00  0.13145639289E+00  0.10444709912E+01  0.93800000000E+00 0.  1.
         22    1    1    2    0    0 -0.15204331064E+00  0.18572032235E+00  0.20580757397E+01  0.20720243620E+01  0.00000000000E+00 0. -1.
</event>
<event>
 5    1  0.3241783E+002  0.1565940E+01  0.7818608E-02  0.3391182E+00
         11   -1    0    0    0    0  0.00000000000E+00  0.00000000000E+00  0.39999999674E+01  0.40000000000E+01  0.51100000000E-03 0. -1.
    9000002   -1    0    0    0    0 -0.00000000000E+00 -0.00000000000E+00  0.00000000000E+00  0.93800000000E+00  0.93800000000E+00 0. -1.
         11    1    1    2    0    0 -0.25969386900E+00 -0.12114864629E+00  0.23730192507E+01  0.23902590917E+01  0.51100000000E-03 0. -1.
    9000002    1    1    2    0    0  0.19316986459E+00 -0.67892139683E-01  0.53529375488E-01  0.96157856323E+00  0.93800000000E+00 0. -1.
         22    1    1    2    0    0  0.66524004412E-01  0.18904078597E+00  0.15734513411E+01  0.15861623450E+01  0.00000000000E+00 0. -1.
</event>
<event>
 5    1  0.3241783E+002  0.1598962E+01  0.7818608E-02  0.3354490E+00
         11   -1    0    0    0    0  0.00000000000E+00  0.00000000000E+00  0.39999999674E+01  0.40000000000E+01  0.51100000000E-03 0.  1.
    9000002   -1    0    0    0    0 -0.00000000000E+00 -0.00000000000E+00  0.00000000000E+00  0.93800000000E+00  0.93800000000E+00 0. -1.
         11    1    1    2    0    0  0.14955517186E-01  0.39315448332E-02  0.83965928262E-01  0.85379521953E-01  0.51100000000E-03 0.  1.
    9000002    1    1    2    0    0 -0.26233611486E+00 -0.17691558322E+00  0.67460580106E-01  0.99222693504E+00  0.93800000000E+00 0. -1.
         22    1    1    2    0    0  0.24738059768E+00  0.17298403839E+00  0.38485734590E+01  0.38603935430E+01  0.00000000000E+00 0.  1.
</event>
<event>
 5    1  0.3241783E+002  0.1540477E+01  0.7818608E-02  0.3420615E+00
         11   -1    0    0    0    0  0.00000000000E+00  0.00000000000E+00  0.39999999674E+01  0.40000000000E+01  0.51100000000E-03 0. -1.
    9000002   -1    0    0    0    0 -0.00000000000E+00 -0.00000000000E+00  0.00000000000E+00  0.93800000000E+00  0.93800000000E+00 0.  1.
         11    1    1    2    0    0 -0.26216379087E+00  0.19666252878E+00  0.26650357469E+01  0.26851111331E+01  0.51100000000E-03 0. -1.
    9000002    1    1    2    0    0  0.71347343454E-01 -0.36715341445E-01  0.48632014035E-01  0.94268103434E+00  0.93800000000E+00 0.  1.
         22    1    1    2    0    0  0.19081644741E+00 -0.15994718733E+00  0.12863322064E+01  0.13102078326E+01  0.00000000000E+00 0.  1.
</event>
<event>
 5    1  0.3241783E+002  0.1599613E+01  0.7818608E-02  0.3353783E+00
         11   -1    0    0    0    0  0.00000000000E+00  0.00000000000E+00  0.39999999674E+01  0.40000000000E+01  0.51100000000E-03 0. -1.
    9000002   -1    0    0    0    0 -0.00000000000E+00 -0.00000000000E+00  0.00000000000E+00  0.93800000000E+00  0.93800000000E+00 0. -1.
         11    1    1    2    0    0 -0.12520312750E+00  0.36391981220E+00  0.20987289871E+01  0.21337237579E+01  0.51100000000E-03 0. -1.
    9000002    1    1    2    0    0  0.22346761063E+00 -0.62317861636E+00  0.31025341012E+00  0.11892815223E+01  0.93800000000E+00 0. -1.
         22    1    1    2    0    0 -0.98264483130E-01  0.25925880416E+00  0.15910175702E+01  0.16149947197E+01  0.00000000000E+00 0. -1.
</event>
<event>
 5    1  0.3241783E+002  0.1599581E+01  0.7818608E-02  0.3353819E+00
         11   -1    0    0    0    0  0.00000000000E+00  0.00000000000E+00  0.39999999674E+01  0.40000000000E+01  0.51100000000E-03 0.  1.
    9000002   -1    0    0    0    0 -0.00000000000E+00 -0.00000000000E+00  0.00000000000E+00  0.93800000000E+00  0.93800000000E+00 0. -1.
         11    1    1    2    0    0 -0.92710786884E-01 -0.12126363977E+00  0.15730237657E+01  0.15804126641E+01  0.51100000000E-03 0.  1.
    9000002    1    1    2    0    0  0.21933980684E+00  0.32716282204E+00  0.10464721366E+00  0.10227123263E+01  0.93800000000E+00 0. -1.
         22    1    1    2    0    0 -0.12662901996E+00 -0.20589918227E+00  0.23223289880E+01  0.23348750096E+01  0.00000000000E+00 0.  1.
</event>
<event>
 5    1  0.3241783E+002  0.1599557E+01  0.7818608E-02  0.3353844E+00
         11   -1    0    0    0    0  0.00000000000E+00  0.00000000000E+00  0.39999999674E+01  0.40000000000E+01  0.51100000000E-03 0.  1.
    9000002   -1    0    0    0    0 -0.00000000000E+00 -0.00000000000E+00  0.00000000000E+00  0.93800000000E+00  0.93800000000E+00 0. -1.
         11    1    1    2    0    0  0.37153984801E-02 -0.14801605169E+00  0.16307370674E+01  0.16374450220E+01  0.51100000000E-03 0.  1.
    9000002    1    1    2    0    0  0.21819724724E-01  0.35032952066E+00  0.82717167273E-01  0.10049343278E+01  0.93800000000E+00 0. -1.
         22    1    1    2    0    0 -0.25535123204E-01 -0.20231346897E+00  0.22865457327E+01  0.22956206502E+01  0.00000000000E+00 0.  1.
</event>
<event>
 5    1  0.3241783E+002  0.1594254E+01  0.7818608E-02  0.3359623E+00
         11   -1    0    0    0    0  0.00000000000E+00  0.00000000000E+00  0.39999999674E+01  0.40000000000E+01  0.51100000000E-03 0.  1.
    9000002   -1    0    0    0    0 -0.00000000000E+00 -0.00000000000E+00  0.00000000000E+00  0.93800000000E+00  0.93800000000E+00 0. -1.
         11    1    1    2    0    0  0.30643185043E-01  0.13917805035E-02  0.11009102631E+00  0.11428576918E+00  0.51100000000E-03 0.  1.
    9000002    1    1    2    0    0 -0.75649386567E-01  0.19953130141E+00  0.34265246846E-01  0.96257658245E+00  0.93800000000E+00 0. -1.
         22    1    1    2    0    0  0.45006201524E-01 -0.20092308192E+00  0.38556436942E+01  0.38611376484E+01  0.00000000000E+00 0.  1.
</event>
<event>
 5    1  0.3241783E+002  0.1593684E+01  0.7818608E-02  0.3360248E+00
         11   -1    0    0    0    0  0.00000000000E+00  0.00000000000E+00  0.39999999674E+01  0.40000000000E+01  0.51100000000E-03 0. -1.
    9000002   -1    0    0    0    0 -0.00000000000E+00 -0.00000000000E+00  0.00000000000E+00  0.93800000000E+00  0.93800000000E+00 0.  1.
         11    1    1    2    0    0 -0.24575401084E-01  0.18765514243E-01  0.43133703738E+00  0.43244421120E+00  0.51100000000E-03 0. -1.
    9000002    1    1    2    0    0 -0.16159482369E+00  0.19372448787E+00  0.46882973818E-01  0.97246289260E+00  0.93800000000E+00 0.  1.
         22    1    1    2    0    0  0.18617022477E+00 -0.21249000211E+00  0.35217799562E+01  0.35330928962E+01  0.00000000000E+00 0. -1.
</event>
<event>
 5    1  0.3241783E+002  0.1599676E+01  0.7818608E-02  0.3353715E+00
         11   -1    0    0    0    0  0.00000000000E+00  0.00000000000E+00  0.39999999674E+01  0.40000000000E+01  0.51100000000E-03 0. -1.
    9000002   -1    0    0    0    0 -0.00000000000E+00 -0.00000000000E+00  0.00000000000E+00  0.93800000000E+00  0.93800000000E+00 0. -1.
         11    1    1    2    0    0  0.24370867154E-02 -0.13560374874E+00  0.13033774168E+01  0.13104149220E+01  0.51100000000E-03 0. -1.
    9000002    1    1    2    0    0 -0.48538617301E-02  0.40566824887E+00  0.11110184739E+00  0.10279970373E+01  0.93800000000E+00 0. -1.
         22    1    1    2    0    0  0.24167750147E-02 -0.27006450013E+00  0.25855207032E+01  0.25995880408E+01  0.00000000000E+00 0. -1.
</event>
<event>
 5    1  0.3241783E+002  0.1597465E+01  0.7818608E-02  0.3356120E+00
         11   -1    0    0    0    0  0.00000000000E+00  0.00000000000E+00  0.39999999674E+01  0.40000000000E+01  0.51100000000E-03 0. -1.
    9000002   -1    0    0    0    0 -0.00000000000E+00 -0.00000000000E+00  0.00000000000E+00  0.93800000000E+00  0.93800000000E+00 0. -1.
         11    1    1    2    0    0  0.68774996752E-02  0.40239167844E-02  0.29892284295E-01  0.30940292329E-01  0.51100000000E-03 0. -1.
    9000002    1    1    2    0    0  0.22038964677E+00  0.11262717083E+00  0.42374901077E-01  0.97102837665E+00  0.93800000000E+00 0. -1.
         22    1    1    2    0    0 -0.22726714645E+00 -0.11665108761E+00  0.39277327820E+01  0.39360313310E+01  0.00000000000E+00 0. -1.
</event>
<event>
 5    1  0.3241783E+002  0.1599517E+01  0.7818608E-02  0.3353888E+00
         11   -1    0    0    0    0  0.00000000000E+00  0.00000000000E+00  0.39999999674E+01  0.40000000000E+01  0.51100000000E-03 0. -1.
    9000002   -1    0    0    0    0 -0.00000000000E+00 -0.00000000000E+00  0.00000000000E+00  0.93800000000E+00  0.93800000000E+00 0.  1.
         11    1    1    2    0    0  0.45703375228E-01 -0.96317391527E-01  0.14256262027E+01  0.14296069982E+01  0.51100000000E-03 0. -1.
    9000002    1    1    2    0    0 -0.13872080780E+00  0.30352990540E+00  0.74674427075E-01  0.99839578126E+00  0.93800000000E+00 0.  1.
         22    1    1    2    0    0  0.93017432575E-01 -0.20721251387E+00  0.24996993376E+01  0.25099972205E+01  0.00000000000E+00 0. -1.
</event>
<event>
 5    1  0.3241783E+002  0.1599670E+01  0.7818608E-02  0.3353722E+00
         11   -1    0    0    0    0  0.00000000000E+00  0.00000000000E+00  0.39999999674E+01  0.40000000000E+01  0.51100000000E-03 0.  1.
    9000002   -1    0    0    0    0 -0.00000000000E+00 -0.00000000000E+00  0.00000000000E+00  0.93800000000E+00  0.93800000000E+00 0. -1.
         11    1    1    2    0    0 -0.12397555133E+00  0.14937672305E+00  0.19294101871E+01  0.19391511735E+01  0.51100000000E-03 0.  1.
    9000002    1    1    2    0    0  0.25300117104E+00 -0.30730174808E+00  0.10685289773E+00  0.10245513646E+01  0.93800000000E+00 0. -1.
         22    1    1    2    0    0 -0.12902561971E+00  0.15792502503E+00  0.19637368826E+01  0.19742974619E+01  0.00000000000E+00 0. -1.
</event>
<event>
 5    1  0.3241783E+002  0.1598311E+01  0.7818608E-02  0.3355198E+00
         11   -1    0    0    0    0  0.00000000000E+00  0.00000000000E+00  0.39999999674E+01  0.40000000000E+01  0.51100000000E-03 0. -1.
    9000002   -1    0    0    0    0 -0.00000000000E+00 -0.00000000000E+00  0.00000000000E+00  0.93800000000E+00  0.93800000000E+00 0.  1.
         11    1    1    2    0    0  0.16322307156E+00  0.15799989013E+00  0.17227627178E+01  0.17376758556E+01  0.51100000000E-03 0. -1.
    9000002    1    1    2    0    0 -0.34182598681E+00 -0.44313940947E+00  0.21804372071E+00  0.11138243154E+01  0.93800000000E+00 0.  1.
         22    1    1    2    0    0  0.17860291525E+00  0.28513951934E+00  0.20591935289E+01  0.20864998290E+01  0.00000000000E+00 0. -1.
</event>
<event>
 5    1  0.3241783E+002  0.1599676E+01  0.7818608E-02  0.3353715E+00
         11   -1    0    0    0    0  0.00000000000E+00  0.00000000000E+00  0.39999999674E+01  0.40000000000E+01  0.51100000000E-03 0.  1.
    9000002   -1    0    0    0    0 -0.00000000000E+00 -0.00000000000E+00  0.00000000000E+00  0.93800000000E+00  0.93800000000E+00 0. -1.
         11    1    1    2    0    0 -0.25402261656E+00 -0.24327901864E+00  0.22399970532E+01  0.22674433246E+01  0.51100000000E-03 0.  1.
    9000002    1    1    2    0    0  0.42621397321E+00  0.40965361038E+00  0.24337319046E+00  0.11351426964E+01  0.93800000000E+00 0. -1.
         22    1    1    2    0    0 -0.17219135664E+00 -0.16637459174E+00  0.15166297237E+01  0.15354139790E+01  0.00000000000E+00 0.  1.
</event>
<event>
 5    1  0.3241783E+002  0.1599667E+01  0.7818608E-02  0.3353725E+00
         11   -1    0    0    0    0  0.00000000000E+00  0.00000000000E+00  0.39999999674E+01  0.40000000000E+01  0.51100000000E-03 0.  1.
    9000002   -1    0    0    0    0 -0.00000000000E+00 -0.00000000000E+00  0.00000000000E+00  0.93800000000E+00  0.93800000000E+00 0. -1.
         11    1    1    2    0    0  0.22455376031E-01  0.57230490522E-01  0.49267581286E+00  0.49649701979E+00  0.51100000000E-03 0.  1.
    9000002    1    1    2    0    0 -0.16983324588E+00 -0.42900934249E+00  0.14484885832E+00  0.10553281665E+01  0.93800000000E+00 0. -1.
         22    1    1    2    0    0  0.14737786985E+00  0.37177885197E+00  0.33624752962E+01  0.33861748137E+01  0.00000000000E+00 0.  1.
</event>
<event>
 5    1  0.3241783E+002  0.1599647E+01  0.7818608E-02  0.3353747E+00
         11   -1    0    0    0    0  0.00000000000E+00  0.00000000000E+00  0.39999999674E+01  0.40000000000E+01  0.51100000000E-03 0. -1.
    9000002   -1    0    0    0    0 -0.00000000000E+00 -0.00000000000E+00  0.00000000000E+00  0.93800000000E+00  0.93800000000E+00 0. -1.
         11    1    1    2    0    0  0.51181465787E-01 -0.14871589434E+00  0.14130312746E+01  0.14217572239E+01  0.51100000000E-03 0. -1.
    9000002    1    1    2    0    0 -0.12297966755E+00  0.40998243085E+00  0.12406808147E+00  0.10384827784E+01  0.93800000000E+00 0. -1.
         22    1    1    2    0    0  0.71798201763E-01 -0.26126653651E+00  0.24629006113E+01  0.24777599977E+01  0.00000000000E+00 0. -1.
</event>
<event>
 5    1  0.3241783E+002  0.1488531E+01  0.7818608E-02  0.3484008E+00
         11   -1    0    0    0    0  0.00000000000E+00  0.00000000000E+00  0.39999999674E+01  0.40000000000E+01  0.51100000000E-03 0.  1.
    9000002   -1    0    0    0    0 -0.00000000000E+00 -0.00000000000E+00  0.00000000000E+00  0.93800000000E+00  0.93800000000E+00 0.  1.
         11    1    1    2    0    0 -0.20609600985E+00 -0.11264154975E-01  0.99171853876E-01  0.22899293480E+00  0.51100000000E-03 0.  1.
    9000002    1    1    2    0    0 -0.13151893992E+00 -0.11098808693E+00  0.17950722356E+00  0.97040323078E+00  0.93800000000E+00 0.  1.
         22    1    1    2    0    0  0.33761494977E+00  0.12225224190E+00  0.37213208899E+01  0.37386038344E+01  0.00000000000E+00 0.  1.
</event>
<event>
 5    1  0.3241783E+002  0.1598239E+01  0.7818608E-02  0.3355277E+00
         11   -1    0    0    0    0  0.00000000000E+00  0.00000000000E+00  0.39999999674E+01  0.40000000000E+01  0.51100000000E-03 0.  1.
    9000002   -1    0    0    0    0 -0.00000000000E+00 -0.00000000000E+00  0.00000000000E+00  0.93800000000E+00  0.93800000000E+00 0. -1.
         11    1    1    2    0    0  0.24604069286E-01 -0.20598493849E+00  0.13828757276E+01  0.13983492747E+01  0.51100000000E-03 0.  1.
    9000002    1    1    2    0    0  0.52540652196E-01  0.55419796660E+00  0.21568649534E+00  0.11118725514E+01  0.93800000000E+00 0. -1.
         22    1    1    2    0    0 -0.77144721482E-01 -0.34821302811E+00  0.24014377444E+01  0.24277781739E+01  0.00000000000E+00 0.  1.
</event>
<event>
 5    1  0.3241783E+002  0.1448875E+01  0.7818608E-02  0.3535714E+00
         11   -1    0    0    0    0  0.00000000000E+00  0.00000000000E+00  0.39999999674E+01  0.40000000000E+01  0.51100000000E-03 0. -1.
    9000002   -1    0    0    0    0 -0.00000000000E+00 -0.00000000000E+00  0.00000000000E+00  0.93800000000E+00  0.93800000000E+00 0.  1.
         11    1    1    2    0    0 -0.36090350263E+00  0.48668636520E-02  0.21162181093E+01  0.21467776717E+01  0.51100000000E-03 0. -1.
    9000002    1    1    2    0    0  0.82365668764E-01  0.57658745571E+00  0.40160082055E+00  0.11748891082E+01  0.93800000000E+00 0.  1.
         22    1    1    2    0    0  0.27853783387E+00 -0.58145431936E+00  0.14821810375E+01  0.16163332201E+01  0.00000000000E+00 0. -1.
</event>
<event>
 5    1  0.3241783E+002  0.1599456E+01  0.7818608E-02  0.3353954E+00
         11   -1    0    0    0    0  0.00000000000E+00  0.00000000000E+00  0.39999999674E+01  0.40000000000E+01  0.51100000000E-03 0.  1.
    9000002   -1    0    0    0    0 -0.00000000000E+00 -0.00000000000E+00  0.00000000000E+00  0.93800000000E+00  0.93800000000E+00 0.  1.
         11    1    1    2    0    0  0.32843103561E-02 -0.12264250160E-02  0.34829221956E-01  0.35008950797E-01  0.51100000000E-03 0.  1.
    9000002    1    1    2    0    0 -0.40048720937E-01  0.31306606568E+00  0.66727553744E-01  0.99192279335E+00  0.93800000000E+00 0.  1.
         22    1    1    2    0    0  0.36764410581E-01 -0.31183964067E+00  0.38984431917E+01  0.39110682559E+01  0.00000000000E+00 0.  1.
</event>
<event>
 5    1  0.3241783E+002  0.1599347E+01  0.7818608E-02  0.3354072E+00
         11   -1    0    0    0    0  0.00000000000E+00  0.00000000000E+00  0.39999999674E+01  0.40000000000E+01  0.51100000000E-03 0.  1.
    9000002   -1    0    0    0    0 -0.00000000000E+00 -0.00000000000E+00  0.00000000000E+00  0.93800000000E+00  0.93800000000E+00 0.  1.
         11    1    1    2    0    0  0.18739049392E-02  0.21298623840E-02  0.17403998622E+00  0.17406385540E+00  0.51100000000E-03 0.  1.
    9000002    1    1    2    0    0 -0.16864407239E+00 -0.20802029405E+00  0.47959722130E-01  0.97665623473E+00  0.93800000000E+00 0.  1.
         22    1    1    2    0    0  0.16677016745E+00  0.20589043166E+00  0.37780002590E+01  0.37872799099E+01  0.00000000000E+00 0.  1.
</event>
<event>
 5    1  0.3241783E+002  0.1599426E+01  0.7818608E-02  0.3353986E+00
         11   -1    0    0    0    0  0.00000000000E+00  0.00000000000E+00  0.39999999674E+01  0.40000000000E+01  0.51100000000E-03 0.  1.
    9000002   -1    0    0    0    0 -0.00000000000E+00 -0.00000000000E+00  0.00000000000E+00  0.93800000000E+00  0.93800000000E+00 0. -1.
         11    1    1    2    0    0  0.27243098298E-01 -0.50310116994E-01  0.59449630238E+00  0.59724317404E+00  0.51100000000E-03 0.  1.
    9000002    1    1    2    0    0 -0.20764883543E+00  0.24654370078E+00  0.69663001434E-01  0.99428304271E+00  0.93800000000E+00 0. -1.
         22    1    1    2    0    0  0.18040573713E+00 -0.19623358379E+00  0.33358406635E+01  0.33464737832E+01  0.00000000000E+00 0.  1.
</event>
<event>
 5    1  0.3241783E+002  0.1599085E+01  0.7818608E-02  0.3354357E+00
         11   -1    0    0    0    0  0.00000000000E+00  0.00000000000E+00  0.39999999674E+01  0.40000000000E+01  0.51100000000E-03 0. -1.
    9000002   -1    0    0    0    0 -0.00000000000E+00 -0.00000000000E+00  0.00000000000E+00  0.93800000000E+00  0.93800000000E+00 0.  1.
         11    1    1    2    0    0  0.40798477974E-01 -0.47322208221E-01  0.28400309582E+00  0.29079533482E+00  0.51100000000E-03 0. -1.
    9000002    1    1    2    0    0 -0.63021257603E+00  0.68161026634E+00  0.66902860217E+00  0.14795957950E+01  0.93800000000E+00 0.  1.
         22    1    1    2    0    0  0.58941409806E+00 -0.63428805812E+00  0.30469682694E+01  0.31676088701E+01  0.00000000000E+00 0. -1.
</event>
<event>
 5    1  0.3241783E+002  0.1599429E+01  0.7818608E-02  0.3353983E+00
         11   -1    0    0    0    0  0.00000000000E+00  0.00000000000E+00  0.39999999674E+01  0.40000000000E+01  0.51100000000E-03 0. -1.
    9000002   -1    0    0    0    0 -0.00000000000E+00 -0.00000000000E+00  0.00000000000E+00  0.93800000000E+00  0.93800000000E+00 0. -1.
         11    1    1    2    0    0  0.16010014201E-01  0.76776229457E-02  0.39229645478E+00  0.39269840336E+00  0.51100000000E-03 0. -1.
    9000002    1    1    2    0    0 -0.23875562076E+00  0.67939338502E-02  0.38054936039E-01  0.96868084638E+00  0.93800000000E+00 0. -1.
         22    1    1    2    0    0  0.22274560656E+00 -0.14471556796E-01  0.35696485765E+01  0.35766207503E+01  0.00000000000E+00 0. -1.
</event>
<event>
 5    1  0.3280791E+002  0.1599666E+01  0.7818608E-02  0.3353726E+00
         11   -1    0    0    0    0  0.00000000000E+00  0.00000000000E+00  0.39999999674E+01  0.40000000000E+01  0.51100000000E-03 0.  1.
    9000002   -1    0    0    0    0 -0.00000000000E+00 -0.00000000000E+00  0.00000000000E+00  0.93800000000E+00  0.93800000000E+00 0. -1.
         11    1    1    2    0    0 -0.44176015042E-04 -0.10263231974E-01  0.21854493983E+00  0.21878639749E+00  0.51100000000E-03 0.  1.
    9000002    1    1    2    0    0 -0.14635953388E-01  0.21395606029E+00  0.30482850182E-01  0.96268614357E+00  0.93800000000E+00 0. -1.
         22    1    1    2    0    0  0.14680129403E-01 -0.20369282832E+00  0.37509721773E+01  0.37565274589E+01  0.00000000000E+00 0.  1.
</event>
<event>
 5    1  0.3241783E+002  0.1599669E+01  0.7818608E-02  0.3353723E+00
         11   -1    0    0    0    0  0.00000000000E+00  0.00000000000E+00  0.39999999674E+01  0.40000000000E+01  0.51100000000E-03 0.  1.
    9000002   -1    0    0    0    0 -0.00000000000E+00 -0.00000000000E+00  0.00000000000E+00  0.93800000000E+00  0.93800000000E+00 0.  1.
         11    1    1    2    0    0  0.16788024846E+00  0.37274779961E+00  0.21664144176E+01  0.22046488133E+01  0.51100000000E-03 0.  1.
    9000002    1    1    2    0    0 -0.28281056078E+00 -0.63464805907E+00  0.34454661180E+00  0.12170933982E+01  0.93800000000E+00 0.  1.
         22    1    1    2    0    0  0.11493031232E+00  0.26190025947E+00  0.14890389379E+01  0.15162577885E+01  0.00000000000E+00 0.  1.
</event>
<event>
 5    1  0.3241783E+002  0.1599108E+01  0.7818608E-02  0.3354332E+00
         11   -1    0    0    0    0  0.00000000000E+00  0.00000000000E+00  0.39999999674E+01  0.40000000000E+01  0.51100000000E-03 0. -1.
    9000002   -1    0    0    0    0 -0.00000000000E+00 -0.00000000000E+00  0.00000000000E+00  0.93800000000E+00  0.93800000000E+00 0. -1.
         11    1    1    2    0    0 -0.27699084677E-01 -0.31049200600E-01  0.98180743759E+00  0.98268886113E+00  0.51100000000E-03 0. -1.
    9000002    1    1    2    0    0  0.21022724409E+00  0.14220938564E+00  0.43241383115E-01  0.97269359036E+00  0.93800000000E+00 0. -1.
         22    1    1    2    0    0 -0.18252815941E+00 -0.11116018504E+00  0.29749511467E+01  0.29826175485E+01  0.00000000000E+00 0. -1.
</event>
<event>
 5    1  0.3241783E+002  0.1599677E+01  0.7818608E-02  0.3353714E+00
         11   -1    0    0    0    0  0.00000000000E+00  0.00000000000E+00  0.39999999674E+01  0.40000000000E+01  0.51100000000E-03 0. -1.
    9000002   -1    0    0    0    0 -0.00000000000E+00 -0.00000000000E+00  0.00000000000E+00  0.93800000000E+00  0.93800000000E+00 0. -1.
         11    1    1    2    0    0  0.27343680264E-01 -0.10038314614E+00  0.10096570388E+01  0.10150034729E+01  0.51100000000E-03 0. -1.
    9000002    1    1    2    0    0 -0.10450804461E+00  0.38824199846E+00  0.10906783609E+00  0.10263496352E+01  0.93800000000E+00 0. -1.
         22    1    1    2    0    0  0.77164364346E-01 -0.28785885233E+00  0.28812750925E+01  0.28966468919E+01  0.00000000000E+00 0. -1.
</event>
<event>
 5    1  0.3241783E+002  0.1599666E+01  0.7818608E-02  0.3353726E+00
         11   -1    0    0    0    0  0.00000000000E+00  0.00000000000E+00  0.39999999674E+01  0.40000000000E+01  0.51100000000E-03 0.  1.
    9000002   -1    0    0    0    0 -0.00000000000E+00 -0.00000000000E+00  0.00000000000E+00  0.93800000000E+00  0.93800000000E+00 0.  1.
         11    1    1    2    0    0 -0.81773032652E-02  0.82443287229E-02  0.16429553238E+00  0.16470616360E+00  0.51100000000E-03 0.  1.
    9000002    1    1    2    0    0  0.20014780968E+00 -0.16270091532E+00  0.44231167754E-01  0.97382294580E+00  0.93800000000E+00 0.  1.
         22    1    1    2    0    0 -0.19197050641E+00  0.15445658660E+00  0.37914732672E+01  0.37994708906E+01  0.00000000000E+00 0.  1.
</event>
<event>
 5    1  0.3241783E+002  0.1599572E+01  0.7818608E-02  0.3353828E+00
         11   -1    0    0    0    0  0.00000000000E+00  0.00000000000E+00  0.39999999674E+01  0.40000000000E+01  0.51100000000E-03 0.  1.
    9000002   -1    0    0    0    0 -0.00000000000E+00 -0.00000000000E+00  0.00000000000E+00  0.93800000000E+00  0.93800000000E+00 0.  1.
         11    1    1    2    0    0 -0.12726385527E+00 -0.10171801041E+00  0.12686979645E+01  0.12791158778E+01  0.51100000000E-03 0.  1.
    9000002    1    1    2    0    0  0.41378101403E+00  0.28856091384E+00  0.17443378634E+00  0.10792373578E+01  0.93800000000E+00 0.  1.
         22    1    1    2    0    0 -0.28651715876E+00 -0.18684290343E+00  0.25568682165E+01  0.25796467644E+01  0.00000000000E+00 0.  1.
</event>
<event>
 5    1  0.3241783E+002  0.1587996E+01  0.7818608E-02  0.3366496E+00
         11   -1    0    0    0    0  0.00000000000E+00  0.00000000000E+00  0.39999999674E+01  0.40000000000E+01  0.51100000000E-03 0.  1.
    9000002   -1    0    0    0    0 -0.00000000000E+00 -0.00000000000E+00  0.00000000000E+00  0.93800000000E+00  0.93800000000E+00 0. -1.
         11    1    1    2    0    0  0.15917007924E+00  0.14068299813E+00  0.18166862518E+01  0.18290642468E+01  0.51100000000E-03 0.  1.
    9000002    1    1    2    0    0 -0.24867887169E+00 -0.54680161600E+00  0.26350490072E+00  0.11446012499E+01  0.93800000000E+00 0. -1.
         22    1    1    2    0    0  0.89508792452E-01  0.40611861787E+00  0.19198088148E+01  0.19643345034E+01  0.00000000000E+00 0.  1.
</event>
<event>
 5    1  0.3241783E+002  0.1599410E+01  0.7818608E-02  0.3354004E+00
         11   -1    0    0    0    0  0.00000000000E+00  0.00000000000E+00  0.39999999674E+01  0.40000000000E+01  0.51100000000E-03 0. -1.
    9000002   -1    0    0    0    0 -0.00000000000E+00 -0.00000000000E+00  0.00000000000E+00  0.93800000000E+00  0.93800000000E+00 0. -1.
         11    1    1    2    0    0 -0.15750557154E-01  0.15690094375E-01  0.48006045321E+00  0.48057523757E+00  0.51100000000E-03 0. -1.
    9000002    1    1    2    0    0  0.20707109359E+00 -0.20083991160E+00  0.55663528076E-01  0.98293312908E+00  0.93800000000E+00 0. -1.
         22    1    1    2    0    0 -0.19132053643E+00  0.18514981723E+00  0.34642759861E+01  0.34744916333E+01  0.00000000000E+00 0. -1.
</event>
<event>
 5    1  0.3241783E+002  0.1599506E+01  0.7818608E-02  0.3353900E+00
         11   -1    0    0    0    0  0.00000000000E+00  0.00000000000E+00  0.39999999674E+01  0.40000000000E+01  0.51100000000E-03 0. -1.
    9000002   -1    0    0    0    0 -0.00000000000E+00 -0.00000000000E+00  0.00000000000E+00  0.93800000000E+00  0.93800000000E+00 0. -1.
         11    1    1    2    0    0  0.28212901202E-01  0.83830016097E-01  0.10650873582E+01  0.10687538450E+01  0.51100000000E-03 0. -1.
    9000002    1    1    2    0    0 -0.12793598103E+00 -0.26408664503E+00  0.57543717898E-01  0.98451239240E+00  0.93800000000E+00 0. -1.
         22    1    1    2    0    0  0.99723079824E-01  0.18025662893E+00  0.28773688912E+01  0.28847337626E+01  0.00000000000E+00 0. -1.
</event>
<event>
 5    1  0.3241783E+002  0.1535780E+01  0.7818608E-02  0.3426158E+00
         11   -1    0    0    0    0  0.00000000000E+00  0.00000000000E+00  0.39999999674E+01  0.40000000000E+01  0.51100000000E-03 0.  1.
    9000002   -1    0    0    0    0 -0.00000000000E+00 -0.00000000000E+00  0.00000000000E+00  0.93800000000E+00  0.93800000000E+00 0.  1.
         11    1    1    2    0    0  0.34377921430E-02  0.66011100095E-01  0.25176905697E+01  0.25185581887E+01  0.51100000000E-03 0.  1.
    9000002    1    1    2    0    0 -0.43883424570E+00 -0.13937519840E-01  0.18764320108E+00  0.10525320520E+01  0.93800000000E+00 0.  1.
         22    1    1    2    0    0  0.43539645356E+00 -0.52073580255E-01  0.12946661966E+01  0.13669097593E+01  0.00000000000E+00 0.  1.
</event>
<event>
 5    1  0.3241783E+002  0.1599665E+01  0.7818608E-02  0.3353727E+00
         11   -1    0    0    0    0  0.00000000000E+00  0.00000000000E+00  0.39999999674E+01  0.40000000000E+01  0.51100000000E-03 0. -1.
    9000002   -1    0    0    0    0 -0.00000000000E+00 -0.00000000000E+00  0.00000000000E+00  0.93800000000E+00  0.93800000000E+00 0. -1.
         11    1    1    2    0    0 -0.94826775669E-02  0.23544187915E-01  0.41766350486E+00  0.41843436089E+00  0.51100000000E-03 0. -1.
    9000002    1    1    2    0    0  0.11360205617E+00 -0.21952561399E+00  0.40586539450E-01  0.97086981081E+00  0.93800000000E+00 0. -1.
         22    1    1    2    0    0 -0.10411937860E+00  0.19598142607E+00  0.35417499230E+01  0.35486958283E+01  0.00000000000E+00 0. -1.
</event>
<event>
 5    1  0.3241783E+002  0.1599676E+01  0.7818608E-02  0.3353715E+00
         11   -1    0    0    0    0  0.00000000000E+00  0.00000000000E+00  0.39999999674E+01  0.40000000000E+01  0.51100000000E-03 0.  1.
    9000002   -1    0    0    0    0 -0.00000000000E+00 -0.00000000000E+00  0.00000000000E+00  0.93800000000E+00  0.93800000000E+00 0. -1.
         11    1    1    2    0    0 -0.14055558870E+00  0.75509473298E-01  0.17132167777E+01  0.17206305654E+01  0.51100000000E-03 0.  1.
    9000002    1    1    2    0    0  0.31952007289E+00 -0.17090724655E+00  0.88162483760E-01  0.10094151710E+01  0.93800000000E+00 0. -1.
         22    1    1    2    0    0 -0.17896448419E+00  0.95397773250E-01  0.21986207059E+01  0.22079542636E+01  0.00000000000E+00 0.  1.
</event>
<event>
 5    1  0.3241783E+002  0.1599349E+01  0.7818608E-02  0.3354070E+00
         11   -1    0    0    0    0  0.00000000000E+00  0.00000000000E+00  0.39999999674E+01  0.40000000000E+01  0.51100000000E-03 0.  1.
    9000002   -1    0    0    0    0 -0.00000000000E+00 -0.00000000000E+00  0.00000000000E+00  0.93800000000E+00  0.93800000000E+00 0. -1.
         11    1    1    2    0    0  0.18093073329E+00  0.15801696427E+00  0.15632011156E+01  0.15815509097E+01  0.51100000000E-03 0.  1.
    9000002    1    1    2    0    0 -0.39362337164E+00 -0.41009011391E+00  0.22428979528E+00  0.11194923727E+01  0.93800000000E+00 0. -1.
         22    1    1    2    0    0  0.21269263835E+00  0.25207314964E+00  0.22125090565E+01  0.22369567176E+01  0.00000000000E+00 0.  1.
</event>
<event>
 5    1  0.3241783E+002  0.1451662E+01  0.7818608E-02  0.3531980E+00
         11   -1    0    0    0    0  0.00000000000E+00  0.00000000000E+00  0.39999999674E+01  0.40000000000E+01  0.51100000000E-03 0. -1.
    9000002   -1    0    0    0    0 -0.00000000000E+00 -0.00000000000E+00  0.00000000000E+00  0.93800000000E+00  0.93800000000E+00 0.  1.
         11    1    1    2    0    0  0.35244317774E+00  0.67405027316E-01  0.32363623016E+01  0.32561942263E+01  0.51100000000E-03 0. -1.
    9000002    1    1    2    0    0 -0.45337090600E-01  0.10543613182E+00  0.12612417858E+00  0.95337481512E+00  0.93800000000E+00 0.  1.
         22    1    1    2    0    0 -0.30710608714E+00 -0.17284115914E+00  0.63751348720E+00  0.72843095858E+00  0.00000000000E+00 0. -1.
</event>
<event>
 5    1  0.3241783E+002  0.1599584E+01  0.7818608E-02  0.3353815E+00
         11   -1    0    0    0    0  0.00000000000E+00  0.00000000000E+00  0.39999999674E+01  0.40000000000E+01  0.51100000000E-03 0. -1.
    9000002   -1    0    0    0    0 -0.00000000000E+00 -0.00000000000E+00  0.00000000000E+00  0.93800000000E+00  0.93800000000E+00 0.  1.
         11    1    1    2    0    0  0.33826122237E-01  0.15079789828E-01  0.45791216207E+00  0.45940767941E+00  0.51100000000E-03 0. -1.
    9000002    1    1    2    0    0 -0.24644676681E+00 -0.17564959652E+00  0.61188088297E-01  0.98751039072E+00  0.93800000000E+00 0.  1.
         22    1    1    2    0    0  0.21262064457E+00  0.16056980669E+00  0.34808997170E+01  0.34910819299E+01  0.00000000000E+00 0. -1.
</event>
<event>
 5    1  0.3241783E+002  0.1589624E+01  0.7818608E-02  0.3364702E+00
         11   -1    0    0    0    0  0.00000000000E+00  0.00000000000E+00  0.39999999674E+01  0.40000000000E+01  0.51100000000E-03 0.  1.
    9000002   -1    0    0    0    0 -0.00000000000E+00 -0.00000000000E+00  0.00000000000E+00  0.93800000000E+00  0.93800000000E+00 0. -1.
         11    1    1    2    0    0  0.16207393621E+00 -0.43218685100E+00  0.19944841780E+01  0.20471982885E+01  0.51100000000E-03 0.  1.
    9000002    1    1    2    0    0 -0.37787854155E+00  0.58462124756E+00  0.35724881163E+00  0.12214929016E+01  0.93800000000E+00 0. -1.
         22    1    1    2    0    0  0.21580460534E+00 -0.15243439656E+00  0.16482669777E+01  0.16693088099E+01  0.00000000000E+00 0.  1.
</event>
<event>
 5    1  0.3241783E+002  0.1599676E+01  0.7818608E-02  0.3353715E+00
         11   -1    0    0    0    0  0.00000000000E+00  0.00000000000E+00  0.39999999674E+01  0.40000000000E+01  0.51100000000E-03 0. -1.
    9000002   -1    0    0    0    0 -0.00000000000E+00 -0.00000000000E+00  0.00000000000E+00  0.93800000000E+00  0.93800000000E+00 0. -1.
         11    1    1    2    0    0 -0.66697722735E-01  0.68920342723E-01  0.11588022170E+01  0.11627645673E+01  0.51100000000E-03 0. -1.
    9000002    1    1    2    0    0  0.22395933840E+00 -0.23217672818E+00  0.69574825957E-01  0.99435832313E+00  0.93800000000E+00 0. -1.
         22    1    1    2    0    0 -0.15726161566E+00  0.16325638545E+00  0.27716229244E+01  0.27808771095E+01  0.00000000000E+00 0. -1.
</event>
<event>
 5    1  0.3241783E+002  0.1599676E+01  0.7818608E-02  0.3353716E+00
         11   -1    0    0    0    0  0.00000000000E+00  0.00000000000E+00  0.39999999674E+01  0.40000000000E+01  0.51100000000E-03 0.  1.
    9000002   -1    0    0    0    0 -0.00000000000E+00 -0.00000000000E+00  0.00000000000E+00  0.93800000000E+00  0.93800000000E+00 0. -1.
         11    1    1    2    0    0 -0.10371392559E-01  0.75415587365E-01  0.92913543645E+00  0.93224889219E+00  0.51100000000E-03 0.  1.
    9000002    1    1    2    0    0  0.38851739510E-01 -0.31991765614E+00  0.69434846168E-01  0.99424441775E+00  0.93800000000E+00 0. -1.
         22    1    1    2    0    0 -0.28480346951E-01  0.24450206878E+00  0.30014296847E+01  0.30115066901E+01  0.00000000000E+00 0. -1.
</event>
<event>
 5    1  0.3241783E+002  0.1599613E+01  0.7818608E-02  0.3353783E+00
         11   -1    0    0    0    0  0.00000000000E+00  0.00000000000E+00  0.39999999674E+01  0.40000000000E+01  0.51100000000E-03 0.  1.
    9000002   -1    0    0    0    0 -0.00000000000E+00 -0.00000000000E+00  0.00000000000E+00  0.93800000000E+00  0.93800000000E+00 0. -1.
         11    1    1    2    0    0  0.27961915447E-01 -0.10617829482E+00  0.11538589818E+01  0.11590713999E+01  0.51100000000E-03 0.  1.
    9000002    1    1    2    0    0 -0.87165038097E-01  0.38714830822E+00  0.10623453116E+00  0.10240172518E+01  0.93800000000E+00 0. -1.
         22    1    1    2    0    0  0.59203122649E-01 -0.28097001340E+00  0.27399064544E+01  0.27549113483E+01  0.00000000000E+00 0.  1.
</event>
<event>
 5    1  0.3241783E+002  0.1594685E+01  0.7818608E-02  0.3359152E+00
         11   -1    0    0    0    0  0.00000000000E+00  0.00000000000E+00  0.39999999674E+01  0.40000000000E+01  0.51100000000E-03 0. -1.
    9000002   -1    0    0    0    0 -0.00000000000E+00 -0.00000000000E+00  0.00000000000E+00  0.93800000000E+00  0.93800000000E+00 0.  1.
         11    1    1    2    0    0 -0.10217378404E+00 -0.23568399397E-01  0.54335689228E+00  0.55338225947E+00  0.51100000000E-03 0. -1.
    9000002    1    1    2    0    0  0.34929772234E+00 -0.10751207513E-01  0.85909962767E-01  0.10046636298E+01  0.93800000000E+00 0.  1.
         22    1    1    2    0    0 -0.24712393830E+00  0.34319606910E-01  0.33707331123E+01  0.33799541107E+01  0.00000000000E+00 0. -1.
</event>
<event>
 5    1  0.3241783E+002  0.1599677E+01  0.7818608E-02  0.3353714E+00
         11   -1    0    0    0    0  0.00000000000E+00  0.00000000000E+00  0.39999999674E+01  0.40000000000E+01  0.51100000000E-03 0.  1.
    9000002   -1    0    0    0    0 -0.00000000000E+00 -0.00000000000E+00  0.00000000000E+00  0.93800000000E+00  0.93800000000E+00 0. -1.
         11    1    1    2    0    0 -0.94365223109E-01 -0.32116062167E+00  0.23579442362E+01  0.23815856529E+01  0.51100000000E-03 0.  1.
    9000002    1    1    2    0    0  0.15271375849E+00  0.51772919801E+00  0.20086092479E+00  0.11007061940E+01  0.93800000000E+00 0. -1.
         22    1    1    2    0    0 -0.58348535383E-01 -0.19656857634E+00  0.14411948064E+01  0.14557081530E+01  0.00000000000E+00 0.  1.
</event>
<event>
 5    1  0.3241783E+002  0.1581169E+01  0.7818608E-02  0.3374058E+00
         11   -1    0    0    0    0  0.00000000000E+00  0.00000000000E+00  0.39999999674E+01  0.40000000000E+01  0.51100000000E-03 0. -1.
    9000002   -1    0    0    0    0 -0.00000000000E+00 -0.00000000000E+00  0.00000000000E+00  0.93800000000E+00  0.93800000000E+00 0.  1.
         11    1    1    2    0    0 -0.11096371476E+00  0.45061992447E-01  0.14128391260E+01  0.14179062685E+01  0.51100000000E-03 0. -1.
    9000002    1    1    2    0    0  0.79029295096E-01 -0.48861111949E+00  0.18435543051E+00  0.10764838040E+01  0.93800000000E+00 0.  1.
         22    1    1    2    0    0  0.31934419666E-01  0.44354912704E+00  0.24028054109E+01  0.24436099275E+01  0.00000000000E+00 0. -1.
</event>
<event>
 5    1  0.3241783E+002  0.1599116E+01  0.7818608E-02  0.3354323E+00
         11   -1    0    0    0    0  0.00000000000E+00  0.00000000000E+00  0.39999999674E+01  0.40000000000E+01  0.51100000000E-03 0.  1.
    9000002   -1    0    0    0    0 -0.00000000000E+00 -0.00000000000E+00  0.00000000000E+00  0.93800000000E+00  0.93800000000E+00 0. -1.
         11    1    1    2    0    0  0.77144036091E-01 -0.13397715861E+00  0.13106182975E+01  0.13197051429E+01  0.51100000000E-03 0.  1.
    9000002    1    1    2    0    0 -0.28962136758E+00  0.34539783508E+00  0.13849684745E+00  0.10498597896E+01  0.93800000000E+00 0. -1.
         22    1    1    2    0    0  0.21247733149E+00 -0.21142067648E+00  0.25508848224E+01  0.25684350675E+01  0.00000000000E+00 0.  1.
</event>
<event>
 5    1  0.3241783E+002  0.1599674E+01  0.7818608E-02  0.3353718E+00
         11   -1    0    0    0    0  0.00000000000E+00  0.00000000000E+00  0.39999999674E+01  0.40000000000E+01  0.51100000000E-03 0.  1.
    9000002   -1    0    0    0    0 -0.00000000000E+00 -0.00000000000E+00  0.00000000000E+00  0.93800000000E+00  0.93800000000E+00 0.  1.
         11    1    1    2    0    0  0.66618585751E-02  0.17490368650E-01  0.28012775406E+00  0.28075276147E+00  0.51100000000E-03 0.  1.
    9000002    1    1    2    0    0 -0.97539740141E-01 -0.23248998571E+00  0.42235545573E-01  0.97221059224E+00  0.93800000000E+00 0.  1.
         22    1    1    2    0    0  0.90877881566E-01  0.21499961706E+00  0.36776366677E+01  0.36850366463E+01  0.00000000000E+00 0.  1.
</event>
<event>
 5    1  0.3241783E+002  0.1598617E+01  0.7818608E-02  0.3354865E+00
         11   -1    0    0    0    0  0.00000000000E+00  0.00000000000E+00  0.39999999674E+01  0.40000000000E+01  0.51100000000E-03 0. -1.
    9000002   -1    0    0    0    0 -0.00000000000E+00 -0.00000000000E+00  0.00000000000E+00  0.93800000000E+00  0.93800000000E+00 0.  1.
         11    1    1    2    0    0 -0.27910423102E-01 -0.14570489892E-01  0.29054312569E+00  0.29224452073E+00  0.51100000000E-03 0. -1.
    9000002    1    1    2    0    0  0.10258303468E+00  0.22092711018E+00  0.40202503880E-01  0.96994448724E+00  0.93800000000E+00 0.  1.
         22    1    1    2    0    0 -0.74672611580E-01 -0.20635662029E+00  0.36692543378E+01  0.36758109920E+01  0.00000000000E+00 0. -1.
</event>
<event>
 5    1  0.3241783E+002  0.1597065E+01  0.7818608E-02  0.3356555E+00
         11   -1    0    0    0    0  0.00000000000E+00  0.00000000000E+00  0.39999999674E+01  0.40000000000E+01  0.51100000000E-03 0. -1.
    9000002   -1    0    0    0    0 -0.00000000000E+00 -0.00000000000E+00  0.00000000000E+00  0.93800000000E+00  0.93800000000E+00 0. -1.
         11    1    1    2    0    0  0.32018526967E+00  0.92437993780E-01  0.24384975343E+01  0.24611651459E+01  0.51100000000E-03 0. -1.
    9000002    1    1    2    0    0 -0.48300103101E+00 -0.23460809274E+00  0.20110400471E+00  0.10993715359E+01  0.93800000000E+00 0. -1.
         22    1    1    2    0    0  0.16281576134E+00  0.14217009897E+00  0.13603984284E+01  0.13774633183E+01  0.00000000000E+00 0. -1.
</event>
<event>
 5    1  0.3241783E+002  0.1599673E+01  0.7818608E-02  0.3353718E+00
         11   -1    0    0    0    0  0.00000000000E+00  0.00000000000E+00  0.39999999674E+01  0.40000000000E+01  0.51100000000E-03 0.  1.
    9000002   -1    0    0    0    0 -0.00000000000E+00 -0.00000000000E+00  0.00000000000E+00  0.93800000000E+00  0.93800000000E+00 0. -1.
         11    1    1    2    0    0 -0.45086075324E-01 -0.21850327635E-01  0.75007527332E+00  0.75174687746E+00  0.51100000000E-03 0.  1.
    9000002    1    1    2    0    0  0.23275923842E+00  0.10683190429E+00  0.43594440190E-01  0.97331104692E+00  0.93800000000E+00 0. -1.
         22    1    1    2    0    0 -0.18767316310E+00 -0.84981576658E-01  0.32063302538E+01  0.32129420756E+01  0.00000000000E+00 0.  1.
</event>
<event>
 5    1  0.3241783E+002  0.1599509E+01  0.7818608E-02  0.3353897E+00
         11   -1    0    0    0    0  0.00000000000E+00  0.00000000000E+00  0.39999999674E+01  0.40000000000E+01  0.51100000000E-03 0.  1.
    9000002   -1    0    0    0    0 -0.00000000000E+00 -0.00000000000E+00  0.00000000000E+00  0.93800000000E+00  0.93800000000E+00 0. -1.
         11    1    1    2    0    0  0.19687110082E-01  0.25147757033E-02  0.32094387684E+00  0.32155736596E+00  0.51100000000E-03 0.  1.
    9000002    1    1    2    0    0 -0.32857824948E+00  0.26574616591E-01  0.72840239568E-01  0.99690499887E+00  0.93800000000E+00 0. -1.
         22    1    1    2    0    0  0.30889113940E+00 -0.29089392294E-01  0.36062158509E+01  0.36195376352E+01  0.00000000000E+00 0.  1.
</event>
<event>
 5    1  0.3241783E+002  0.1457679E+01  0.7818608E-02  0.3523971E+00
         11   -1    0    0    0    0  0.00000000000E+00  0.00000000000E+00  0.39999999674E+01  0.40000000000E+01  0.51100000000E-03 0.  1.
    9000002   -1    0    0    0    0 -0.00000000000E+00 -0.00000000000E+00  0.00000000000E+00  0.93800000000E+00  0.93800000000E+00 0.  1.
         11    1    1    2    0    0  0.18849085219E+00  0.21773944535E+00  0.33931354272E+00  0.44505416391E+00  0.51100000000E-03 0.  1.
    9000002    1    1    2    0    0  0.92480325608E-01 -0.50748829906E-01  0.13661342188E+00  0.95374801777E+00  0.93800000000E+00 0.  1.
         22    1    1    2    0    0 -0.28097117780E+00 -0.16699061544E+00  0.35240730028E+01  0.35391978183E+01  0.00000000000E+00 0.  1.
</event>
<event>
 5    1  0.3241783E+002  0.1598095E+01  0.7818608E-02  0.3355434E+00
         11   -1    0    0    0    0  0.00000000000E+00  0.00000000000E+00  0.39999999674E+01  0.40000000000E+01  0.51100000000E-03 0.  1.
    9000002   -1    0    0    0    0 -0.00000000000E+00 -0.00000000000E+00  0.00000000000E+00  0.93800000000E+00  0.93800000000E+00 0. -1.
         11    1    1    2    0    0 -0.40794469166E-01  0.42583491067E-01  0.25770522617E+00  0.26436676634E+00  0.51100000000E-03 0.  1.
    9000002    1    1    2    0    0  0.24713633158E+00 -0.54061416251E+00  0.24779788493E+00  0.11377995565E+01  0.93800000000E+00 0. -1.
         22    1    1    2    0    0 -0.20634186241E+00  0.49803067144E+00  0.34944968563E+01  0.35358336771E+01  0.00000000000E+00 0.  1.
</event>
<event>
 5    1  0.3241783E+002  0.1589225E+01  0.7818608E-02  0.3365142E+00
         11   -1    0    0    0    0  0.00000000000E+00  0.00000000000E+00  0.39999999674E+01  0.40000000000E+01  0.51100000000E-03 0.  1.
    9000002   -1    0    0    0    0 -0.00000000000E+00 -0.00000000000E+00  0.00000000000E+00  0.93800000000E+00  0.93800000000E+00 0. -1.
         11    1    1    2    0    0  0.48349262052E-01 -0.40655341825E-01  0.15551185343E+01  0.15564011131E+01  0.51100000000E-03 0.  1.
    9000002    1    1    2    0    0  0.14465960541E+00 -0.45467863810E-01  0.22941577230E-01  0.95045465123E+00  0.93800000000E+00 0. -1.
         22    1    1    2    0    0 -0.19300886746E+00  0.86123205635E-01  0.24219398558E+01  0.24311442357E+01  0.00000000000E+00 0.  1.
</event>
<event>
 5    1  0.3241783E+002  0.1599575E+01  0.7818608E-02  0.3353825E+00
         11   -1    0    0    0    0  0.00000000000E+00  0.00000000000E+00  0.39999999674E+01  0.40000000000E+01  0.51100000000E-03 0.  1.
    9000002   -1    0    0    0    0 -0.00000000000E+00 -0.00000000000E+00  0.00000000000E+00  0.93800000000E+00  0.93800000000E+00 0. -1.
         11    1    1    2    0    0  0.22704371547E-01  0.32296822091E-01  0.54508104007E+00  0.54650908004E+00  0.51100000000E-03 0.  1.
    9000002    1    1    2    0    0 -0.16581752618E+00 -0.29299869235E+00  0.75970117029E-01  0.99947943670E+00  0.93800000000E+00 0.  1.
         22    1    1    2    0    0  0.14311315463E+00  0.26070187026E+00  0.33789488103E+01  0.33920114833E+01  0.00000000000E+00 0.  1.
</event>
<event>
 5    1  0.3241783E+002  0.1599094E+01  0.7818608E-02  0.3354348E+00
         11   -1    0    0    0    0  0.00000000000E+00  0.00000000000E+00  0.39999999674E+01  0.40000000000E+01  0.51100000000E-03 0. -1.
    9000002   -1    0    0    0    0 -0.00000000000E+00 -0.00000000000E+00  0.00000000000E+00  0.93800000000E+00  0.93800000000E+00 0. -1.
         11    1    1    2    0    0 -0.21781514314E-01  0.13047053147E+00  0.78035120699E+00  0.79148295075E+00  0.51100000000E-03 0. -1.
    9000002    1    1    2    0    0  0.16543513643E+00 -0.53463060428E+00  0.21728372746E+00  0.11136673137E+01  0.93800000000E+00 0. -1.
         22    1    1    2    0    0 -0.14365362212E+00  0.40416007281E+00  0.30023650329E+01  0.30328497355E+01  0.00000000000E+00 0. -1.
</event>
<event>
 5    1  0.3241783E+002  0.1599072E+01  0.7818608E-02  0.3354371E+00
         11   -1    0    0    0    0  0.00000000000E+00  0.00000000000E+00  0.39999999674E+01  0.40000000000E+01  0.51100000000E-03 0.  1.
    9000002   -1    0    0    0    0 -0.00000000000E+00 -0.00000000000E+00  0.00000000000E+00  0.93800000000E+00  0.93800000000E+00 0.  1.
         11    1    1    2    0    0 -0.43695632840E-01 -0.19641841907E-01  0.76248059074E+00  0.76398430786E+00  0.51100000000E-03 0.  1.
    9000002    1    1    2    0    0  0.25049327692E+00  0.21913290097E+00  0.74615428133E-01  0.99808695623E+00  0.93800000000E+00 0.  1.
         22    1    1    2    0    0 -0.20679764408E+00 -0.19949105906E+00  0.31629039485E+01  0.31759287359E+01  0.00000000000E+00 0.  1.
</event>
<event>
 5    1  0.3241783E+002  0.1599610E+01  0.7818608E-02  0.3353786E+00
         11   -1    0    0    0    0  0.00000000000E+00  0.00000000000E+00  0.39999999674E+01  0.40000000000E+01  0.51100000000E-03 0.  1.
    9000002   -1    0    0    0    0 -0.00000000000E+00 -0.00000000000E+00  0.00000000000E+00  0.93800000000E+00  0.93800000000E+00 0.  1.
         11    1    1    2    0    0  0.11030535583E-01  0.46474006837E-01  0.82508232716E+00  0.82646392162E+00  0.51100000000E-03 0.  1.
    9000002    1    1    2    0    0 -0.89947525653E-01 -0.23256696598E+00  0.41352990678E-01  0.97145870776E+00  0.93800000000E+00 0.  1.
         22    1    1    2    0    0  0.78916990070E-01  0.18609295915E+00  0.31335646495E+01  0.31400773706E+01  0.00000000000E+00 0.  1.
</event>
<event>
 5    1  0.3241783E+002  0.1599676E+01  0.7818608E-02  0.3353716E+00
         11   -1    0    0    0    0  0.00000000000E+00  0.00000000000E+00  0.39999999674E+01  0.40000000000E+01  0.51100000000E-03 0.  1.
    9000002   -1    0    0    0    0 -0.00000000000E+00 -0.00000000000E+00  0.00000000000E+00  0.93800000000E+00  0.93800000000E+00 0. -1.
         11    1    1    2    0    0 -0.29332620495E-01  0.18767446312E+00  0.19040367420E+01  0.19134885112E+01  0.51100000000E-03 0.  1.
    9000002    1    1    2    0    0  0.62920235500E-01 -0.38508634488E+00  0.10256982408E+00  0.10210852158E+01  0.93800000000E+00 0. -1.
         22    1    1    2    0    0 -0.33587615005E-01  0.19741188177E+00  0.19933934013E+01  0.20034262730E+01  0.00000000000E+00 0.  1.
</event>
<event>
 5    1  0.3241783E+002  0.1599640E+01  0.7818608E-02  0.3353755E+00
         11   -1    0    0    0    0  0.00000000000E+00  0.00000000000E+00  0.39999999674E+01  0.40000000000E+01  0.51100000000E-03 0. -1.
    9000002   -1    0    0    0    0 -0.00000000000E+00 -0.00000000000E+00  0.00000000000E+00  0.93800000000E+00  0.93800000000E+00 0.  1.
         11    1    1    2    0    0 -0.13793351905E+00  0.20074077781E+00  0.19386418841E+01  0.19538820669E+01  0.51100000000E-03 0. -1.
    9000002    1    1    2    0    0  0.28744692995E+00 -0.39554199103E+00  0.16339745555E+00  0.10703372986E+01  0.93800000000E+00 0.  1.
         22    1    1    2    0    0 -0.14951341091E+00  0.19480121322E+00  0.18979606277E+01  0.19137806345E+01  0.00000000000E+00 0. -1.
</event>
<event>
 5    1  0.3241783E+002  0.1599677E+01  0.7818608E-02  0.3353714E+00
         11   -1    0    0    0    0  0.00000000000E+00  0.00000000000E+00  0.39999999674E+01  0.40000000000E+01  0.51100000000E-03 0. -1.
    9000002   -1    0    0    0    0 -0.00000000000E+00 -0.00000000000E+00  0.00000000000E+00  0.93800000000E+00  0.93800000000E+00 0.  1.
         11    1    1    2    0    0 -0.30565907479E-01  0.67379428518E-01  0.87585577854E+00  0.87897546496E+00  0.51100000000E-03 0.  1.
    9000002    1    1    2    0    0  0.13561987242E+00 -0.30075876293E+00  0.72828016319E-01  0.99699373280E+00  0.93800000000E+00 0.  1.
         22    1    1    2    0    0 -0.10505396495E+00  0.23337933442E+00  0.30513161725E+01  0.30620308022E+01  0.00000000000E+00 0. -1.
</event>
<event>
 5    1  0.3241783E+002  0.1579954E+01  0.7818608E-02  0.3375412E+00
         11   -1    0    0    0    0  0.00000000000E+00  0.00000000000E+00  0.39999999674E+01  0.40000000000E+01  0.51100000000E-03 0.  1.
    9000002   -1    0    0    0    0 -0.00000000000E+00 -0.00000000000E+00  0.00000000000E+00  0.93800000000E+00  0.93800000000E+00 0.  1.
         11    1    1    2    0    0 -0.79886344769E-01  0.87204773035E-01  0.21760993194E+01  0.21793106730E+01  0.51100000000E-03 0.  1.
    9000002    1    1    2    0    0 -0.11971586903E+00 -0.44535874817E-02  0.24060460965E-01  0.94592527692E+00  0.93800000000E+00 0.  1.
         22    1    1    2    0    0  0.19960221380E+00 -0.82751185553E-01  0.17998401870E+01  0.18127640500E+01  0.00000000000E+00 0.  1.
</event>
<event>
 5    1  0.3241783E+002  0.1598870E+01  0.7818608E-02  0.3354591E+00
         11   -1    0    0    0    0  0.00000000000E+00  0.00000000000E+00  0.39999999674E+01  0.40000000000E+01  0.51100000000E-03 0. -1.
    9000002   -1    0    0    0    0 -0.00000000000E+00 -0.00000000000E+00  0.00000000000E+00  0.93800000000E+00  0.93800000000E+00 0.  1.
         11    1    1    2    0    0  0.50159152433E-03 -0.29100301176E-02  0.11680079462E-01  0.12058409786E-01  0.51100000000E-03 0. -1.
    9000002    1    1    2    0    0 -0.18270251696E-01 -0.25536853351E+00  0.44181164647E-01  0.97331539868E+00  0.93800000000E+00 0.  1.
         22    1    1    2    0    0  0.17768660172E-01  0.25827856363E+00  0.39441387233E+01  0.39526261915E+01  0.00000000000E+00 0. -1.
</event>
<event>
 5    1  0.3241783E+002  0.1599672E+01  0.7818608E-02  0.3353720E+00
         11   -1    0    0    0    0  0.00000000000E+00  0.00000000000E+00  0.39999999674E+01  0.40000000000E+01  0.51100000000E-03 0.  1.
    9000002   -1    0    0    0    0 -0.00000000000E+00 -0.00000000000E+00  0.00000000000E+00  0.93800000000E+00  0.93800000000E+00 0.  1.
         11    1    1    2    0    0 -0.21005564878E-01 -0.15862226099E-01  0.48463842914E+00  0.48535297681E+00  0.51100000000E-03 0.  1.
    9000002    1    1    2    0    0  0.17542986022E+00  0.14390338463E+00  0.34146712648E-01  0.96565719484E+00  0.93800000000E+00 0.  1.
         22    1    1    2    0    0 -0.15442429534E+00 -0.12804115853E+00  0.34812148256E+01  0.34869898284E+01  0.00000000000E+00 0.  1.
</event>
<event>
 5    1  0.3241783E+002  0.1599524E+01  0.7818608E-02  0.3353880E+00
         11   -1    0    0    0    0  0.00000000000E+00  0.00000000000E+00  0.39999999674E+01  0.40000000000E+01  0.51100000000E-03 0.  1.
    9000002   -1    0    0    0    0 -0.00000000000E+00 -0.00000000000E+00  0.00000000000E+00  0.93800000000E+00  0.93800000000E+00 0. -1.
         11    1    1    2    0    0  0.79375812107E-01 -0.14580764283E+00  0.17309605620E+01  0.17389034236E+01  0.51100000000E-03 0.  1.
    9000002    1    1    2    0    0 -0.14981426146E+00  0.34501414472E+00  0.95273995082E-01  0.10150863053E+01  0.93800000000E+00 0. -1.
         22    1    1    2    0    0  0.70438449356E-01 -0.19920650189E+00  0.21737654102E+01  0.21840102711E+01  0.00000000000E+00 0.  1.
</event>
<event>
 5    1  0.3491789E+002  0.1580772E+01  0.7818608E-02  0.3374501E+00
         11   -1    0    0    0    0  0.00000000000E+00  0.00000000000E+00  0.39999999674E+01  0.40000000000E+01  0.51100000000E-03 0.  1.
    9000002   -1    0    0    0    0 -0.00000000000E+00 -0.00000000000E+00  0.00000000000E+00  0.93800000000E+00  0.93800000000E+00 0. -1.
         11    1    1    2    0    0 -0.58867033321E-01 -0.49023747720E-01  0.28881196731E+00  0.29879971392E+00  0.51100000000E-03 0.  1.
    9000002    1    1    2    0    0 -0.16475218183E+00 -0.56426802480E-02  0.32099026158E-01  0.95291629682E+00  0.93800000000E+00 0. -1.
         22    1    1    2    0    0  0.22361921515E+00  0.54666427968E-01  0.36790889739E+01  0.36862839893E+01  0.00000000000E+00 0.  1.
</event>
<event>
 5    1  0.3241783E+002  0.1599509E+01  0.7818608E-02  0.3353897E+00
         11   -1    0    0    0    0  0.00000000000E+00  0.00000000000E+00  0.39999999674E+01  0.40000000000E+01  0.51100000000E-03 0.  1.
    9000002   -1    0    0    0    0 -0.00000000000E+00 -0.00000000000E+00  0.00000000000E+00  0.93800000000E+00  0.93800000000E+00 0. -1.
         11    1    1    2    0    0 -0.13268263168E-01 -0.96607599086E-01  0.11036056220E+01  0.11079055488E+01  0.51100000000E-03 0.  1.
    9000002    1    1    2    0    0  0.50644599898E-01  0.29486416210E+00  0.59839966343E-01  0.98637445788E+00  0.93800000000E+00 0. -1.
         22    1    1    2    0    0 -0.37376336730E-01 -0.19825656302E+00  0.28365543790E+01  0.28437199933E+01  0.00000000000E+00 0.  1.
</event>
<event>
 5    1  0.3241783E+002  0.1583295E+01  0.7818608E-02  0.3371697E+00
         11   -1    0    0    0    0  0.00000000000E+00  0.00000000000E+00  0.39999999674E+01  0.40000000000E+01  0.51100000000E-03 0.  1.
    9000002   -1    0    0    0    0 -0.00000000000E+00 -0.00000000000E+00  0.00000000000E+00  0.93800000000E+00  0.93800000000E+00 0. -1.
         11    1    1    2    0    0  0.13919943151E-01  0.27590252676E-01  0.41887777176E-01  0.52056064563E-01  0.51100000000E-03 0.  1.
    9000002    1    1    2    0    0 -0.38844494845E-01  0.24710079816E+00  0.54189918962E-01  0.97229020696E+00  0.93800000000E+00 0. -1.
         22    1    1    2    0    0  0.24924551694E-01 -0.27469105083E+00  0.39039222712E+01  0.39136537285E+01  0.00000000000E+00 0.  1.
</event>
<event>
 5    1  0.3241783E+002  0.1599630E+01  0.7818608E-02  0.3353766E+00
         11   -1    0    0    0    0  0.00000000000E+00  0.00000000000E+00  0.39999999674E+01  0.40000000000E+01  0.51100000000E-03 0. -1.
    9000002   -1    0    0    0    0 -0.00000000000E+00 -0.00000000000E+00  0.00000000000E+00  0.93800000000E+00  0.93800000000E+00 0.  1.
         11    1    1    2    0    0 -0.37466325629E+00 -0.59783361121E-01  0.10663904752E+01  0.11318725691E+01  0.51100000000E-03 0. -1.
    9000002    1    1    2    0    0  0.10737330424E+01  0.15724606307E+00  0.10022988989E+01  0.17498788682E+01  0.93800000000E+00 0.  1.
         22    1    1    2    0    0 -0.69906978608E+00 -0.97462701953E-01  0.19313105933E+01  0.20562485627E+01  0.00000000000E+00 0. -1.
</event>
<event>
 5    1  0.3241783E+002  0.1589224E+01  0.7818608E-02  0.3365143E+00
         11   -1    0    0    0    0  0.00000000000E+00  0.00000000000E+00  0.39999999674E+01  0.40000000000E+01  0.51100000000E-03 0. -1.
    9000002   -1    0    0    0    0 -0.00000000000E+00 -0.00000000000E+00  0.00000000000E+00  0.93800000000E+00  0.93800000000E+00 0.  1.
         11    1    1    2    0    0 -0.15254504255E+00 -0.18863726803E-01  0.14975263693E+01  0.15053940740E+01  0.51100000000E-03 0. -1.
    9000002    1    1    2    0    0  0.27897264546E+00 -0.23921762056E+00  0.99291242790E-01  0.10123011201E+01  0.93800000000E+00 0.  1.
         22    1    1    2    0    0 -0.12642760291E+00  0.25808134737E+00  0.24031823553E+01  0.24203048059E+01  0.00000000000E+00 0. -1.
</event>
<event>
 5    1  0.3241783E+002  0.1599675E+01  0.7818608E-02  0.3353716E+00
         11   -1    0    0    0    0  0.00000000000E+00  0.00000000000E+00  0.39999999674E+01  0.40000000000E+01  0.51100000000E-03 0.  1.
    9000002   -1    0    0    0    0 -0.00000000000E+00 -0.00000000000E+00  0.00000000000E+00  0.93800000000E+00  0.93800000000E+00 0.  1.
         11    1    1    2    0    0  0.85770131876E-01  0.11301784280E+00  0.11288065057E+01  0.11376879786E+01  0.51100000000E-03 0.  1.
    9000002    1    1    2    0    0 -0.29435183262E+00 -0.38008058059E+00  0.15770692497E+00  0.10657484334E+01  0.93800000000E+00 0.  1.
         22    1    1    2    0    0  0.20858170074E+00  0.26706273779E+00  0.27134865367E+01  0.27345635880E+01  0.00000000000E+00 0.  1.
</event>
<event>
 5    1  0.3241783E+002  0.1598823E+01  0.7818608E-02  0.3354642E+00
         11   -1    0    0    0    0  0.00000000000E+00  0.00000000000E+00  0.39999999674E+01  0.40000000000E+01  0.51100000000E-03 0.  1.
    9000002   -1    0    0    0    0 -0.00000000000E+00 -0.00000000000E+00  0.00000000000E+00  0.93800000000E+00  0.93800000000E+00 0. -1.
         11    1    1    2    0    0 -0.18541759195E+00  0.82350273587E-01  0.18335277501E+01  0.18447182773E+01  0.51100000000E-03 0.  1.
    9000002    1    1    2    0    0  0.34434310345E+00 -0.23089346202E+00  0.11687918924E+00  0.10321766848E+01  0.93800000000E+00 0. -1.
         22    1    1    2    0    0 -0.15892551150E+00  0.14854318843E+00  0.20495930280E+01  0.20611050379E+01  0.00000000000E+00 0.  1.
</event>
<event>
 5    1  0.3241783E+002  0.1599571E+01  0.7818608E-02  0.3353830E+00
         11   -1    0    0    0    0  0.00000000000E+00  0.00000000000E+00  0.39999999674E+01  0.40000000000E+01  0.51100000000E-03 0. -1.
    9000002   -1    0    0    0    0 -0.00000000000E+00 -0.00000000000E+00  0.00000000000E+00  0.93800000000E+00  0.93800000000E+00 0. -1.
         11    1    1    2    0    0  0.77932660889E-01 -0.10057122000E-01  0.11718134832E+01  0.11744452929E+01  0.51100000000E-03 0. -1.
    9000002    1    1    2    0    0 -0.27117179344E+00  0.71125280336E-01  0.52420372969E-01  0.98040034810E+00  0.93800000000E+00 0. -1.
         22    1    1    2    0    0  0.19323913255E+00 -0.61068158336E-01  0.27757661112E+01  0.27831543590E+01  0.00000000000E+00 0.  1.
</event>
<event>
 5    1  0.3241783E+002  0.1597529E+01  0.7818608E-02  0.3356050E+00
         11   -1    0    0    0    0  0.00000000000E+00  0.00000000000E+00  0.39999999674E+01  0.40000000000E+01  0.51100000000E-03 0. -1.
    9000002   -1    0    0    0    0 -0.00000000000E+00 -0.00000000000E+00  0.00000000000E+00  0.93800000000E+00  0.93800000000E+00 0. -1.
         11    1    1    2    0    0 -0.66651306117E-01  0.39450748150E+00  0.24567289045E+01  0.24890953619E+01  0.51100000000E-03 0. -1.
    9000002    1    1    2    0    0  0.18070684299E+00 -0.60416164337E+00  0.28155141009E+00  0.11648096200E+01  0.93800000000E+00 0. -1.
         22    1    1    2    0    0 -0.11405553687E+00  0.20965416187E+00  0.12617196528E+01  0.12840950180E+01  0.00000000000E+00 0.  1.
</event>
<event>
 5    1  0.3849490E+002  0.1558736E+01  0.7818608E-02  0.3399405E+00
         11   -1    0    0    0    0  0.00000000000E+00  0.00000000000E+00  0.39999999674E+01  0.40000000000E+01  0.51100000000E-03 0. -1.
    9000002   -1    0    0    0    0 -0.00000000000E+00 -0.00000000000E+00  0.00000000000E+00  0.93800000000E+00  0.93800000000E+00 0.  1.
         11    1    1    2    0    0 -0.21154460202E+00  0.11295963315E+00  0.18491006141E+01  0.18645869086E+01  0.51100000000E-03 0. -1.
    9000002    1    1    2    0    0  0.40974417686E-01  0.75641639421E-01  0.35312656289E-01  0.94259829419E+00  0.93800000000E+00 0.  1.
         22    1    1    2    0    0  0.17057018434E+00 -0.18860127257E+00  0.21155866969E+01  0.21308147972E+01  0.00000000000E+00 0. -1.
</event>
<event>
 5    1  0.3241783E+002  0.1599677E+01  0.7818608E-02  0.3353714E+00
         11   -1    0    0    0    0  0.00000000000E+00  0.00000000000E+00  0.39999999674E+01  0.40000000000E+01  0.51100000000E-03 0. -1.
    9000002   -1    0    0    0    0 -0.00000000000E+00 -0.00000000000E+00  0.00000000000E+00  0.93800000000E+00  0.93800000000E+00 0. -1.
         11    1    1    2    0    0 -0.16953954579E+00  0.19786067547E+00  0.12990820976E+01  0.13249554943E+01  0.51100000000E-03 0. -1.
    9000002    1    1    2    0    0  0.47225264801E+00 -0.55181553640E+00  0.37976739186E+00  0.12456284445E+01  0.93800000000E+00 0. -1.
         22    1    1    2    0    0 -0.30271310223E+00  0.35395486093E+00  0.23211504779E+01  0.23674160612E+01  0.00000000000E+00 0. -1.
</event>
<event>
 5    1  0.3241783E+002  0.1599673E+01  0.7818608E-02  0.3353718E+00
         11   -1    0    0    0    0  0.00000000000E+00  0.00000000000E+00  0.39999999674E+01  0.40000000000E+01  0.51100000000E-03 0. -1.
    9000002   -1    0    0    0    0 -0.00000000000E+00 -0.00000000000E+00  0.00000000000E+00  0.93800000000E+00  0.93800000000E+00 0.  1.
         11    1    1    2    0    0 -0.22341023081E-03  0.12294992513E+00  0.10426606110E+01  0.10498848246E+01  0.51100000000E-03 0. -1.
    9000002    1    1    2    0    0  0.37756981333E-02 -0.46200778056E+00  0.14524741703E+00  0.10556544214E+01  0.93800000000E+00 0.  1.
         22    1    1    2    0    0 -0.35522879025E-02  0.33905785543E+00  0.28120919393E+01  0.28324607540E+01  0.00000000000E+00 0. -1.
</event>
<event>
 5    1  0.3241783E+002  0.1599677E+01  0.7818608E-02  0.3353714E+00
         11   -1    0    0    0    0  0.00000000000E+00  0.00000000000E+00  0.39999999674E+01  0.40000000000E+01  0.51100000000E-03 0.  1.
    9000002   -1    0    0    0    0 -0.00000000000E+00 -0.00000000000E+00  0.00000000000E+00  0.93800000000E+00  0.93800000000E+00 0.  1.
         11    1    1    2    0    0  0.35132284665E+00  0.17560416946E+00  0.21180097694E+01  0.21541193586E+01  0.51100000000E-03 0.  1.
    9000002    1    1    2    0    0 -0.60833576202E+00 -0.30441172490E+00  0.32899427272E+00  0.12044999498E+01  0.93800000000E+00 0.  1.
         22    1    1    2    0    0  0.25701291537E+00  0.12880755544E+00  0.15529959252E+01  0.15793806916E+01  0.00000000000E+00 0. -1.
</event>
<event>
 5    1  0.3241783E+002  0.1599677E+01  0.7818608E-02  0.3353714E+00
         11   -1    0    0    0    0  0.00000000000E+00  0.00000000000E+00  0.39999999674E+01  0.40000000000E+01  0.51100000000E-03 0. -1.
    9000002   -1    0    0    0    0 -0.00000000000E+00 -0.00000000000E+00  0.00000000000E+00  0.93800000000E+00  0.93800000000E+00 0.  1.
         11    1    1    2    0    0  0.17431126957E+00 -0.47969853876E-01  0.16497490549E+01  0.16596257804E+01  0.51100000000E-03 0. -1.
    9000002    1    1    2    0    0 -0.40875131645E+00  0.11232919077E+00  0.12159382226E+00  0.10364962824E+01  0.93800000000E+00 0.  1.
         22    1    1    2    0    0  0.23444004688E+00 -0.64359336891E-01  0.22286570902E+01  0.22418779372E+01  0.00000000000E+00 0. -1.
</event>
<event>
 5    1  0.3241783E+002  0.1599596E+01  0.7818608E-02  0.3353802E+00
         11   -1    0    0    0    0  0.00000000000E+00  0.00000000000E+00  0.39999999674E+01  0.40000000000E+01  0.51100000000E-03 0. -1.
    9000002   -1    0    0    0    0 -0.00000000000E+00 -0.00000000000E+00  0.00000000000E+00  0.93800000000E+00  0.93800000000E+00 0. -1.
         11    1    1    2    0    0 -0.35148598530E-01  0.54822725711E-01  0.74502765217E+00  0.74786858394E+00  0.51100000000E-03 0. -1.
    9000002    1    1    2    0    0  0.17977236334E+00 -0.24516284723E+00  0.61743496854E-01  0.98796719768E+00  0.93800000000E+00 0. -1.
         22    1    1    2    0    0 -0.14462376481E+00  0.19034012152E+00  0.31932288183E+01  0.32021642184E+01  0.00000000000E+00 0. -1.
</event>
<event>
 5    1  0.3241783E+002  0.1586166E+01  0.7818608E-02  0.3368516E+00
         11   -1    0    0    0    0  0.00000000000E+00  0.00000000000E+00  0.39999999674E+01  0.40000000000E+01  0.51100000000E-03 0.  1.
    9000002   -1    0    0    0    0 -0.00000000000E+00 -0.00000000000E+00  0.00000000000E+00  0.93800000000E+00  0.93800000000E+00 0. -1.
         11    1    1    2    0    0  0.86064349288E-01  0.83385372102E-02  0.12216887097E+01  0.12247449400E+01  0.51100000000E-03 0.  1.
    9000002    1    1    2    0    0  0.12726460144E+00  0.75109424844E-01  0.24450876866E-01  0.94988396652E+00  0.93800000000E+00 0. -1.
         22    1    1    2    0    0 -0.21332895073E+00 -0.83447962054E-01  0.27538603808E+01  0.27633710935E+01  0.00000000000E+00 0.  1.
</event>
<event>
 5    1  0.3241783E+002  0.1598453E+01  0.7818608E-02  0.3355044E+00
         11   -1    0    0    0    0  0.00000000000E+00  0.00000000000E+00  0.39999999674E+01  0.40000000000E+01  0.51100000000E-03 0.  1.
    9000002   -1    0    0    0    0 -0.00000000000E+00 -0.00000000000E+00  0.00000000000E+00  0.93800000000E+00  0.93800000000E+00 0.  1.
         11    1    1    2    0    0 -0.57853851529E-01  0.25971196292E-01  0.54260509590E+00  0.54629856525E+00  0.51100000000E-03 0.  1.
    9000002    1    1    2    0    0  0.38633099874E+00  0.20786581814E-01  0.10180777838E+00  0.10197512179E+01  0.93800000000E+00 0.  1.
         22    1    1    2    0    0 -0.32847714721E+00 -0.46757778106E-01  0.33555870931E+01  0.33719502169E+01  0.00000000000E+00 0.  1.
</event>
<event>
 5    1  0.3241783E+002  0.1599577E+01  0.7818608E-02  0.3353822E+00
         11   -1    0    0    0    0  0.00000000000E+00  0.00000000000E+00  0.39999999674E+01  0.40000000000E+01  0.51100000000E-03 0. -1.
    9000002   -1    0    0    0    0 -0.00000000000E+00 -0.00000000000E+00  0.00000000000E+00  0.93800000000E+00  0.93800000000E+00 0. -1.
         11    1    1    2    0    0 -0.64063110879E-02 -0.72899319296E-02  0.11847101688E+00  0.11886894839E+00  0.51100000000E-03 0. -1.
    9000002    1    1    2    0    0  0.79739124852E-01  0.26580079430E+00  0.51347254698E-01  0.97953505851E+00  0.93800000000E+00 0. -1.
         22    1    1    2    0    0 -0.73332813764E-01 -0.25851086238E+00  0.38301816958E+01  0.38395959931E+01  0.00000000000E+00 0. -1.
</event>
<event>
 5    1  0.3241783E+002  0.1599527E+01  0.7818608E-02  0.3353877E+00
         11   -1    0    0    0    0  0.00000000000E+00  0.00000000000E+00  0.39999999674E+01  0.40000000000E+01  0.51100000000E-03 0. -1.
    9000002   -1    0    0    0    0 -0.00000000000E+00 -0.00000000000E+00  0.00000000000E+00  0.93800000000E+00  0.93800000000E+00 0. -1.
         11    1    1    2    0    0  0.30781919461E-01 -0.35921644117E-01  0.62835605637E+00  0.63013449817E+00  0.51100000000E-03 0. -1.
    9000002    1    1    2    0    0 -0.12667143735E+00  0.23639850544E+00  0.47967007882E-01  0.97676749550E+00  0.93800000000E+00 0. -1.
         22    1    1    2    0    0  0.95889517893E-01 -0.20047686132E+00  0.33236769031E+01  0.33310980063E+01  0.00000000000E+00 0. -1.
</event>
<event>
 5    1  0.3241783E+002  0.1599670E+01  0.7818608E-02  0.3353722E+00
         11   -1    0    0    0    0  0.00000000000E+00  0.00000000000E+00  0.39999999674E+01  0.40000000000E+01  0.51100000000E-03 0.  1.
    9000002   -1    0    0    0    0 -0.00000000000E+00 -0.00000000000E+00  0.00000000000E+00  0.93800000000E+00  0.93800000000E+00 0.  1.
         11    1    1    2    0    0 -0.52540688943E-02 -0.51246224388E-01  0.75794719549E+00  0.75969598724E+00  0.51100000000E-03 0.  1.
    9000002    1    1    2    0    0  0.38293978698E-01  0.25984625872E+00  0.45878252938E-01  0.97515912602E+00  0.93800000000E+00 0.  1.
         22    1    1    2    0    0 -0.33039909803E-01 -0.20860003433E+00  0.31961745189E+01  0.32031448867E+01  0.00000000000E+00 0.  1.
</event>
<event>
 5    1  0.3241783E+002  0.1599674E+01  0.7818608E-02  0.3353717E+00
         11   -1    0    0    0    0  0.00000000000E+00  0.00000000000E+00  0.39999999674E+01  0.40000000000E+01  0.51100000000E-03 0. -1.
    9000002   -1    0    0    0    0 -0.00000000000E+00 -0.00000000000E+00  0.00000000000E+00  0.93800000000E+00  0.93800000000E+00 0. -1.
         11    1    1    2    0    0  0.72006133191E-02  0.40496547626E-02  0.11524090458E+00  0.11553776761E+00  0.51100000000E-03 0. -1.
    9000002    1    1    2    0    0 -0.23761495401E+00 -0.12313073505E+00  0.47646907725E-01  0.97659422080E+00  0.93800000000E+00 0. -1.
         22    1    1    2    0    0  0.23041434069E+00  0.11908108028E+00  0.38371121551E+01  0.38458680116E+01  0.00000000000E+00 0. -1.
</event>
<event>
 5    1  0.3241783E+002  0.1599676E+01  0.7818608E-02  0.3353715E+00
         11   -1    0    0    0    0  0.00000000000E+00  0.00000000000E+00  0.39999999674E+01  0.40000000000E+01  0.51100000000E-03 0.  1.
    9000002   -1    0    0    0    0 -0.00000000000E+00 -0.00000000000E+00  0.00000000000E+00  0.93800000000E+00  0.93800000000E+00 0.  1.
         11    1    1    2    0    0 -0.10832487246E-01 -0.20654269955E-01  0.35899357222E+00  0.35975072990E+00  0.51100000000E-03 0.  1.
    9000002    1    1    2    0    0  0.11924714350E+00  0.23320079820E+00  0.45615347413E-01  0.97494987227E+00  0.93800000000E+00 0.  1.
         22    1    1    2    0    0 -0.10841465625E+00 -0.21254652824E+00  0.35953910477E+01  0.36032993978E+01  0.00000000000E+00 0.  1.
</event>
<event>
 5    1  0.3241783E+002  0.1588165E+01  0.7818608E-02  0.3366310E+00
         11   -1    0    0    0    0  0.00000000000E+00  0.00000000000E+00  0.39999999674E+01  0.40000000000E+01  0.51100000000E-03 0. -1.
    9000002   -1    0    0    0    0 -0.00000000000E+00 -0.00000000000E+00  0.00000000000E+00  0.93800000000E+00  0.93800000000E+00 0. -1.
         11    1    1    2    0    0  0.82600629285E-01  0.58077018956E-02  0.26956975354E+01  0.26969690500E+01  0.51100000000E-03 0. -1.
    9000002    1    1    2    0    0 -0.22987867589E+00 -0.14692114551E+00  0.58476526385E-01  0.97861817517E+00  0.93800000000E+00 0. -1.
         22    1    1    2    0    0  0.14727804660E+00  0.14111344362E+00  0.12458259056E+01  0.12624127748E+01  0.00000000000E+00 0.  1.
</event>
<event>
 5    1  0.3241783E+002  0.1599667E+01  0.7818608E-02  0.3353725E+00
         11   -1    0    0    0    0  0.00000000000E+00  0.00000000000E+00  0.39999999674E+01  0.40000000000E+01  0.51100000000E-03 0.  1.
    9000002   -1    0    0    0    0 -0.00000000000E+00 -0.00000000000E+00  0.00000000000E+00  0.93800000000E+00  0.93800000000E+00 0.  1.
         11    1    1    2    0    0  0.26229425777E-01  0.54112001560E+00  0.17076202606E+01  0.17914982751E+01  0.51100000000E-03 0.  1.
    9000002    1    1    2    0    0 -0.53834608546E-01 -0.10037102630E+01  0.81523092845E+00  0.15983672681E+01  0.93800000000E+00 0.  1.
         22    1    1    2    0    0  0.27605182769E-01  0.46259024739E+00  0.14771487783E+01  0.15481344568E+01  0.00000000000E+00 0.  1.
</event>
<event>
 5    1  0.3241783E+002  0.1599672E+01  0.7818608E-02  0.3353719E+00
         11   -1    0    0    0    0  0.00000000000E+00  0.00000000000E+00  0.39999999674E+01  0.40000000000E+01  0.51100000000E-03 0.  1.
    9000002   -1    0    0    0    0 -0.00000000000E+00 -0.00000000000E+00  0.00000000000E+00  0.93800000000E+00  0.93800000000E+00 0. -1.
         11    1    1    2    0    0 -0.12987000458E+00  0.15962278975E+00  0.16554642895E+01  0.16682050018E+01  0.51100000000E-03 0.  1.
    9000002    1    1    2    0    0  0.30096915887E+00 -0.36489720765E+00  0.15249226140E+00  0.10615226312E+01  0.93800000000E+00 0. -1.
         22    1    1    2    0    0 -0.17109915429E+00  0.20527441790E+00  0.21920434165E+01  0.22082723671E+01  0.00000000000E+00 0.  1.
</event>
<event>
 5    1  0.3241783E+002  0.1598455E+01  0.7818608E-02  0.3355042E+00
         11   -1    0    0    0    0  0.00000000000E+00  0.00000000000E+00  0.39999999674E+01  0.40000000000E+01  0.51100000000E-03 0.  1.
    9000002   -1    0    0    0    0 -0.00000000000E+00 -0.00000000000E+00  0.00000000000E+00  0.93800000000E+00  0.93800000000E+00 0.  1.
         11    1    1    2    0    0 -0.45407487920E-01 -0.15553383963E+00  0.10766368283E+01  0.10887606424E+01  0.51100000000E-03 0.  1.
    9000002    1    1    2    0    0  0.30685486737E-01  0.51787804162E+00  0.18595720764E+00  0.10879169767E+01  0.93800000000E+00 0.  1.
         22    1    1    2    0    0  0.14722001183E-01 -0.36234420199E+00  0.27374059314E+01  0.27613223809E+01  0.00000000000E+00 0.  1.
</event>
<event>
 5    1  0.3241783E+002  0.1583231E+01  0.7818608E-02  0.3371767E+00
         11   -1    0    0    0    0  0.00000000000E+00  0.00000000000E+00  0.39999999674E+01  0.40000000000E+01  0.51100000000E-03 0. -1.
    9000002   -1    0    0    0    0 -0.00000000000E+00 -0.00000000000E+00  0.00000000000E+00  0.93800000000E+00  0.93800000000E+00 0. -1.
         11    1    1    2    0    0  0.98433397082E-01 -0.51770338197E-01  0.77574085982E+00  0.78367304681E+00  0.51100000000E-03 0. -1.
    9000002    1    1    2    0    0 -0.19751065428E-01 -0.13290967308E+00  0.24104067795E-01  0.94788189764E+00  0.93800000000E+00 0. -1.
         22    1    1    2    0    0 -0.78682331653E-01  0.18468001128E+00  0.32001550397E+01  0.32064450556E+01  0.00000000000E+00 0. -1.
</event>
<event>
 5    1  0.3241783E+002  0.1593212E+01  0.7818608E-02  0.3360764E+00
         11   -1    0    0    0    0  0.00000000000E+00  0.00000000000E+00  0.39999999674E+01  0.40000000000E+01  0.51100000000E-03 0. -1.
    9000002   -1    0    0    0    0 -0.00000000000E+00 -0.00000000000E+00  0.00000000000E+00  0.93800000000E+00  0.93800000000E+00 0.  1.
         11    1    1    2    0    0  0.38252590971E-01  0.43777409314E-01  0.15538110275E+00  0.16590138787E+00  0.51100000000E-03 0. -1.
    9000002    1    1    2    0    0 -0.21393597781E+00 -0.44329149549E+00  0.17144294373E+00  0.10730855677E+01  0.93800000000E+00 0.  1.
         22    1    1    2    0    0  0.17568338683E+00  0.39951408617E+00  0.36731759209E+01  0.36990130445E+01  0.00000000000E+00 0. -1.
</event>
<event>
 5    1  0.3241783E+002  0.1599674E+01  0.7818608E-02  0.3353718E+00
         11   -1    0    0    0    0  0.00000000000E+00  0.00000000000E+00  0.39999999674E+01  0.40000000000E+01  0.51100000000E-03 0.  1.
    9000002   -1    0    0    0    0 -0.00000000000E+00 -0.00000000000E+00  0.00000000000E+00  0.93800000000E+00  0.93800000000E+00 0.  1.
         11    1    1    2    0    0 -0.18249551353E-01 -0.13149809594E-01  0.27274076134E+00  0.27366722061E+00  0.51100000000E-03 0.  1.
    9000002    1    1    2    0    0  0.26609213700E+00  0.17502418663E+00  0.67794019690E-01  0.99291415560E+00  0.93800000000E+00 0.  1.
         22    1    1    2    0    0 -0.24784258565E+00 -0.16187437703E+00  0.36594651863E+01  0.36714186238E+01  0.00000000000E+00 0.  1.
</event>
<event>
 5    1  0.3241783E+002  0.1593753E+01  0.7818608E-02  0.3360172E+00
         11   -1    0    0    0    0  0.00000000000E+00  0.00000000000E+00  0.39999999674E+01  0.40000000000E+01  0.51100000000E-03 0. -1.
    9000002   -1    0    0    0    0 -0.00000000000E+00 -0.00000000000E+00  0.00000000000E+00  0.93800000000E+00  0.93800000000E+00 0. -1.
         11    1    1    2    0    0 -0.30576028965E-01  0.23840731307E+00  0.16825167652E+01  0.16995987370E+01  0.51100000000E-03 0. -1.
    9000002    1    1    2    0    0 -0.11134934561E+00 -0.43922343788E+00  0.14465901584E+00  0.10517062974E+01  0.93800000000E+00 0. -1.
         22    1    1    2    0    0  0.14192537458E+00  0.20081612481E+00  0.21728241863E+01  0.21866949656E+01  0.00000000000E+00 0. -1.
</event>
<event>
 5    1  0.3241783E+002  0.1599353E+01  0.7818608E-02  0.3354066E+00
         11   -1    0    0    0    0  0.00000000000E+00  0.00000000000E+00  0.39999999674E+01  0.40000000000E+01  0.51100000000E-03 0. -1.
    9000002   -1    0    0    0    0 -0.00000000000E+00 -0.00000000000E+00  0.00000000000E+00  0.93800000000E+00  0.93800000000E+00 0.  1.
         11    1    1    2    0    0 -0.11114247677E-01 -0.20820719323E-03  0.29923700452E+00  0.29944384423E+00  0.51100000000E-03 0. -1.
    9000002    1    1    2    0    0  0.14802286163E+00  0.15441884950E+00  0.30561855139E-01  0.96256634869E+00  0.93800000000E+00 0.  1.
         22    1    1    2    0    0 -0.13690861396E+00 -0.15421064230E+00  0.36702011077E+01  0.36759898071E+01  0.00000000000E+00 0. -1.
</event>
<event>
 5    1  0.3241783E+002  0.1599668E+01  0.7818608E-02  0.3353724E+00
         11   -1    0    0    0    0  0.00000000000E+00  0.00000000000E+00  0.39999999674E+01  0.40000000000E+01  0.51100000000E-03 0. -1.
    9000002   -1    0    0    0    0 -0.00000000000E+00 -0.00000000000E+00  0.00000000000E+00  0.93800000000E+00  0.93800000000E+00 0. -1.
         11    1    1    2    0    0 -0.12185447056E-01  0.16586923990E-01  0.22497161200E+00  0.22591170508E+00  0.51100000000E-03 0. -1.
    9000002    1    1    2    0    0  0.21741345321E+00 -0.26103025052E+00  0.77301605349E-01  0.10006122823E+01  0.93800000000E+00 0. -1.
         22    1    1    2    0    0 -0.20522800615E+00  0.24444332653E+00  0.36977267500E+01  0.37114760126E+01  0.00000000000E+00 0. -1.
</event>
<event>
 5    1  0.3241783E+002  0.1599641E+01  0.7818608E-02  0.3353754E+00
         11   -1    0    0    0    0  0.00000000000E+00  0.00000000000E+00  0.39999999674E+01  0.40000000000E+01  0.51100000000E-03 0. -1.
    9000002   -1    0    0    0    0 -0.00000000000E+00 -0.00000000000E+00  0.00000000000E+00  0.93800000000E+00  0.93800000000E+00 0. -1.
         11    1    1    2    0    0 -0.75506710186E-01  0.13903510380E-01  0.88098444196E+00  0.88432370712E+00  0.51100000000E-03 0. -1.
    9000002    1    1    2    0    0  0.32800786478E+00 -0.36358818900E-01  0.72899378522E-01  0.99703031170E+00  0.93800000000E+00 0. -1.
         22    1    1    2    0    0 -0.25250115459E+00  0.22455308521E-01  0.30461161469E+01  0.30566459812E+01  0.00000000000E+00 0. -1.
</event>
<event>
 5    1  0.3241783E+002  0.1599676E+01  0.7818608E-02  0.3353715E+00
         11   -1    0    0    0    0  0.00000000000E+00  0.00000000000E+00  0.39999999674E+01  0.40000000000E+01  0.51100000000E-03 0. -1.
    9000002   -1    0    0    0    0 -0.00000000000E+00 -0.00000000000E+00  0.00000000000E+00  0.93800000000E+00  0.93800000000E+00 0.  1.
         11    1    1    2    0    0 -0.38775821146E-01  0.68599614187E-01  0.10649335147E+01  0.10678450839E+01  0.51100000000E-03 0. -1.
    9000002    1    1    2    0    0  0.14576281406E+00 -0.25678689631E+00  0.58138356602E-01  0.98509409530E+00  0.93800000000E+00 0.  1.
         22    1    1    2    0    0 -0.10698699292E+00  0.18818728212E+00  0.28769280961E+01  0.28850608208E+01  0.00000000000E+00 0.  1.
</event>
<event>
 5    1  0.3241783E+002  0.1557673E+01  0.7818608E-02  0.3400625E+00
         11   -1    0    0    0    0  0.00000000000E+00  0.00000000000E+00  0.39999999674E+01  0.40000000000E+01  0.51100000000E-03 0.  1.
    9000002   -1    0    0    0    0 -0.00000000000E+00 -0.00000000000E+00  0.00000000000E+00  0.93800000000E+00  0.93800000000E+00 0. -1.
         11    1    1    2    0    0  0.19223457201E+00  0.80353960860E-01  0.25583051494E+01  0.25667754846E+01  0.51100000000E-03 0.  1.
    9000002    1    1    2    0    0  0.62408877897E-01 -0.59770794693E-01  0.36165664838E-01  0.94266609743E+00  0.93800000000E+00 0. -1.
         22    1    1    2    0    0 -0.25464344990E+00 -0.20583166167E-01  0.14055291531E+01  0.14285584180E+01  0.00000000000E+00 0.  1.
</event>
<event>
 5    1  0.3241783E+002  0.1599675E+01  0.7818608E-02  0.3353716E+00
         11   -1    0    0    0    0  0.00000000000E+00  0.00000000000E+00  0.39999999674E+01  0.40000000000E+01  0.51100000000E-03 0.  1.
    9000002   -1    0    0    0    0 -0.00000000000E+00 -0.00000000000E+00  0.00000000000E+00  0.93800000000E+00  0.93800000000E+00 0. -1.
         11    1    1    2    0    0  0.27324387756E+00 -0.66299215097E-01  0.20708488023E+01  0.20898499529E+01  0.51100000000E-03 0.  1.
    9000002    1    1    2    0    0 -0.50290269359E+00  0.11920598747E+00  0.18338987272E+00  0.10865528207E+01  0.93800000000E+00 0. -1.
         22    1    1    2    0    0  0.22965881603E+00 -0.52906772376E-01  0.17457612923E+01  0.17615972264E+01  0.00000000000E+00 0. -1.
</event>
<event>
 5    1  0.3241783E+002  0.1599675E+01  0.7818608E-02  0.3353716E+00
         11   -1    0    0    0    0  0.00000000000E+00  0.00000000000E+00  0.39999999674E+01  0.40000000000E+01  0.51100000000E-03 0. -1.
    9000002   -1    0    0    0    0 -0.00000000000E+00 -0.00000000000E+00  0.00000000000E+00  0.93800000000E+00  0.93800000000E+00 0. -1.
         11    1    1    2    0    0  0.20234446481E-03  0.52583353879E-01  0.55313905225E+00  0.55563308244E+00  0.51100000000E-03 0. -1.
    9000002    1    1    2    0    0 -0.83911505858E-02 -0.37539905648E+00  0.94817324359E-01  0.10148050000E+01  0.93800000000E+00 0. -1.
         22    1    1    2    0    0  0.81888061210E-02  0.32281570260E+00  0.33520435907E+01  0.33675619176E+01  0.00000000000E+00 0. -1.
</event>
<event>
 5    1  0.3241783E+002  0.1599430E+01  0.7818608E-02  0.3353982E+00
         11   -1    0    0    0    0  0.00000000000E+00  0.00000000000E+00  0.39999999674E+01  0.40000000000E+01  0.51100000000E-03 0.  1.
    9000002   -1    0    0    0    0 -0.00000000000E+00 -0.00000000000E+00  0.00000000000E+00  0.93800000000E+00  0.93800000000E+00 0.  1.
         11    1    1    2    0    0  0.24019762778E-02  0.11041017062E-02  0.37836829686E-01  0.37932510230E-01  0.51100000000E-03 0.  1.
    9000002    1    1    2    0    0  0.71220216601E-01 -0.31846751908E+00  0.71422169587E-01  0.99571030238E+00  0.93800000000E+00 0.  1.
         22    1    1    2    0    0 -0.73622192879E-01  0.31736341737E+00  0.38907409681E+01  0.39043571874E+01  0.00000000000E+00 0.  1.
</event>
<event>
 5    1  0.3241783E+002  0.1599211E+01  0.7818608E-02  0.3354220E+00
         11   -1    0    0    0    0  0.00000000000E+00  0.00000000000E+00  0.39999999674E+01  0.40000000000E+01  0.51100000000E-03 0.  1.
    9000002   -1    0    0    0    0 -0.00000000000E+00 -0.00000000000E+00  0.00000000000E+00  0.93800000000E+00  0.93800000000E+00 0. -1.
         11    1    1    2    0    0 -0.16134632314E+00  0.17760833742E+00  0.21735418321E+01  0.21867468337E+01  0.51100000000E-03 0.  1.
    9000002    1    1    2    0    0  0.26559816183E+00 -0.35647282646E+00  0.13451041553E+00  0.10466863482E+01  0.93800000000E+00 0. -1.
         22    1    1    2    0    0 -0.10425183869E+00  0.17886448904E+00  0.16919477197E+01  0.17045668182E+01  0.00000000000E+00 0. -1.
</event>
<event>
 5    1  0.3241783E+002  0.1575904E+01  0.7818608E-02  0.3379939E+00
         11   -1    0    0    0    0  0.00000000000E+00  0.00000000000E+00  0.39999999674E+01  0.40000000000E+01  0.51100000000E-03 0. -1.
    9000002   -1    0    0    0    0 -0.00000000000E+00 -0.00000000000E+00  0.00000000000E+00  0.93800000000E+00  0.93800000000E+00 0.  1.
         11    1    1    2    0    0  0.17864836614E+00 -0.11510100574E+00  0.25535147002E+01  0.25623428860E+01  0.51100000000E-03 0. -1.
    9000002    1    1    2    0    0 -0.27058862419E-01  0.29035858370E+00  0.75450778314E-01  0.98517871938E+00  0.93800000000E+00 0.  1.
         22    1    1    2    0    0 -0.15158950372E+00 -0.17525757796E+00  0.13710344889E+01  0.13904783946E+01  0.00000000000E+00 0. -1.
</event>
<event>
 5    1  0.3241783E+002  0.1598299E+01  0.7818608E-02  0.3355212E+00
         11   -1    0    0    0    0  0.00000000000E+00  0.00000000000E+00  0.39999999674E+01  0.40000000000E+01  0.51100000000E-03 0. -1.
    9000002   -1    0    0    0    0 -0.00000000000E+00 -0.00000000000E+00  0.00000000000E+00  0.93800000000E+00  0.93800000000E+00 0. -1.
         11    1    1    2    0    0  0.15707318227E+00  0.11963385524E+00  0.81213369243E+00  0.83579042792E+00  0.51100000000E-03 0. -1.
    9000002    1    1    2    0    0 -0.69000451493E+00 -0.35859927362E+00  0.44388132290E+00  0.12967552963E+01  0.93800000000E+00 0. -1.
         22    1    1    2    0    0  0.53293133265E+00  0.23896541838E+00  0.27439849520E+01  0.28054542758E+01  0.00000000000E+00 0. -1.
</event>
<event>
 5    1  0.3241783E+002  0.1598671E+01  0.7818608E-02  0.3354807E+00
         11   -1    0    0    0    0  0.00000000000E+00  0.00000000000E+00  0.39999999674E+01  0.40000000000E+01  0.51100000000E-03 0. -1.
    9000002   -1    0    0    0    0 -0.00000000000E+00 -0.00000000000E+00  0.00000000000E+00  0.93800000000E+00  0.93800000000E+00 0. -1.
         11    1    1    2    0    0  0.11701763935E-03 -0.88293840644E-02  0.41937407435E+00  0.41946733732E+00  0.51100000000E-03 0. -1.
    9000002    1    1    2    0    0  0.20364029029E+00 -0.26381065146E-02  0.28219479531E-01  0.96026905941E+00  0.93800000000E+00 0. -1.
         22    1    1    2    0    0 -0.20375730793E+00  0.11467490579E-01  0.35524064135E+01  0.35582636033E+01  0.00000000000E+00 0. -1.
</event>
<event>
 5    1  0.3241783E+002  0.1599674E+01  0.7818608E-02  0.3353717E+00
         11   -1    0    0    0    0  0.00000000000E+00  0.00000000000E+00  0.39999999674E+01  0.40000000000E+01  0.51100000000E-03 0.  1.
    9000002   -1    0    0    0    0 -0.00000000000E+00 -0.00000000000E+00  0.00000000000E+00  0.93800000000E+00  0.93800000000E+00 0. -1.
         11    1    1    2    0    0  0.13855813439E+00  0.17502099208E+00  0.20440788379E+01  0.20562318111E+01  0.51100000000E-03 0.  1.
    9000002    1    1    2    0    0 -0.26430930989E+00 -0.33561209450E+00  0.12354657955E+00  0.10380764165E+01  0.93800000000E+00 0. -1.
         22    1    1    2    0    0  0.12575117550E+00  0.16059110243E+00  0.18323745499E+01  0.18436917724E+01  0.00000000000E+00 0.  1.
</event>
<event>
 5    1  0.3241783E+002  0.1599676E+01  0.7818608E-02  0.3353715E+00
         11   -1    0    0    0    0  0.00000000000E+00  0.00000000000E+00  0.39999999674E+01  0.40000000000E+01  0.51100000000E-03 0.  1.
    9000002   -1    0    0    0    0 -0.00000000000E+00 -0.00000000000E+00  0.00000000000E+00  0.93800000000E+00  0.93800000000E+00 0.  1.
         11    1    1    2    0    0 -0.35114850518E+00 -0.13913452783E+00  0.21568155166E+01  0.21896385828E+01  0.51100000000E-03 0.  1.
    9000002    1    1    2    0    0  0.60384160007E+00  0.24026941119E+00  0.29802641173E+00  0.11794141809E+01  0.93800000000E+00 0.  1.
         22    1    1    2    0    0 -0.25269309489E+00 -0.10113488337E+00  0.15451580391E+01  0.15689472364E+01  0.00000000000E+00 0. -1.
</event>
<event>
 5    1  0.3241783E+002  0.1594921E+01  0.7818608E-02  0.3358895E+00
         11   -1    0    0    0    0  0.00000000000E+00  0.00000000000E+00  0.39999999674E+01  0.40000000000E+01  0.51100000000E-03 0.  1.
    9000002   -1    0    0    0    0 -0.00000000000E+00 -0.00000000000E+00  0.00000000000E+00  0.93800000000E+00  0.93800000000E+00 0.  1.
         11    1    1    2    0    0  0.22356385028E-01 -0.22172643370E-01  0.88402097978E+00  0.88458170220E+00  0.51100000000E-03 0.  1.
    9000002    1    1    2    0    0 -0.19084833790E+00 -0.19636989573E+00  0.53590271060E-01  0.97862155156E+00  0.93800000000E+00 0.  1.
         22    1    1    2    0    0  0.16849195287E+00  0.21854253910E+00  0.30623887165E+01  0.30747967462E+01  0.00000000000E+00 0.  1.
</event>
<event>
 5    1  0.3241783E+002  0.1598766E+01  0.7818608E-02  0.3354704E+00
         11   -1    0    0    0    0  0.00000000000E+00  0.00000000000E+00  0.39999999674E+01  0.40000000000E+01  0.51100000000E-03 0. -1.
    9000002   -1    0    0    0    0 -0.00000000000E+00 -0.00000000000E+00  0.00000000000E+00  0.93800000000E+00  0.93800000000E+00 0. -1.
         11    1    1    2    0    0 -0.33343011262E-01  0.44228111017E-02  0.31276295146E+00  0.31456675378E+00  0.51100000000E-03 0. -1.
    9000002    1    1    2    0    0  0.22044972689E+00  0.88780586448E-01  0.38177370016E-01  0.96839123612E+00  0.93800000000E+00 0. -1.
         22    1    1    2    0    0 -0.18710671563E+00 -0.93203397550E-01  0.36490596459E+01  0.36550420101E+01  0.00000000000E+00 0. -1.
</event>
<event>
 5    1  0.3241783E+002  0.1576829E+01  0.7818608E-02  0.3378903E+00
         11   -1    0    0    0    0  0.00000000000E+00  0.00000000000E+00  0.39999999674E+01  0.40000000000E+01  0.51100000000E-03 0. -1.
    9000002   -1    0    0    0    0 -0.00000000000E+00 -0.00000000000E+00  0.00000000000E+00  0.93800000000E+00  0.93800000000E+00 0.  1.
         11    1    1    2    0    0 -0.38687034457E-01 -0.57094895803E-01  0.14335253515E+00  0.15908087320E+00  0.51100000000E-03 0. -1.
    9000002    1    1    2    0    0 -0.17054612378E+00  0.10728205477E+00  0.44208712072E-01  0.96041336404E+00  0.93800000000E+00 0.  1.
         22    1    1    2    0    0  0.20923315823E+00 -0.50187158967E-01  0.38124387201E+01  0.38185057628E+01  0.00000000000E+00 0. -1.
</event>
<event>
 5    1  0.3241783E+002  0.1599610E+01  0.7818608E-02  0.3353787E+00
         11   -1    0    0    0    0  0.00000000000E+00  0.00000000000E+00  0.39999999674E+01  0.40000000000E+01  0.51100000000E-03 0.  1.
    9000002   -1    0    0    0    0 -0.00000000000E+00 -0.00000000000E+00  0.00000000000E+00  0.93800000000E+00  0.93800000000E+00 0.  1.
         11    1    1    2    0    0  0.95786511584E-02  0.43998732458E-02  0.16173557063E+00  0.16207950324E+00  0.51100000000E-03 0.  1.
    9000002    1    1    2    0    0 -0.17705017054E+00 -0.18300791452E+00  0.43138375769E-01  0.97290471226E+00  0.93800000000E+00 0.  1.
         22    1    1    2    0    0  0.16747151938E+00  0.17860804128E+00  0.37951260210E+01  0.38030157845E+01  0.00000000000E+00 0.  1.
</event>
<event>
 5    1  0.3241783E+002  0.1599592E+01  0.7818608E-02  0.3353806E+00
         11   -1    0    0    0    0  0.00000000000E+00  0.00000000000E+00  0.39999999674E+01  0.40000000000E+01  0.51100000000E-03 0.  1.
    9000002   -1    0    0    0    0 -0.00000000000E+00 -0.00000000000E+00  0.00000000000E+00  0.93800000000E+00  0.93800000000E+00 0.  1.
         11    1    1    2    0    0  0.12290290675E+00 -0.72771161270E-01  0.14395482089E+01  0.14466167679E+01  0.51100000000E-03 0.  1.
    9000002    1    1    2    0    0 -0.35767775875E+00  0.18297917222E+00  0.10897270592E+00  0.10262230787E+01  0.93800000000E+00 0.  1.
         22    1    1    2    0    0  0.23477485200E+00 -0.11020801095E+00  0.24514790526E+01  0.24651601534E+01  0.00000000000E+00 0.  1.
</event>
<event>
 5    1  0.3241783E+002  0.1552119E+01  0.7818608E-02  0.3407029E+00
         11   -1    0    0    0    0  0.00000000000E+00  0.00000000000E+00  0.39999999674E+01  0.40000000000E+01  0.51100000000E-03 0. -1.
    9000002   -1    0    0    0    0 -0.00000000000E+00 -0.00000000000E+00  0.00000000000E+00  0.93800000000E+00  0.93800000000E+00 0. -1.
         11    1    1    2    0    0 -0.19698275702E+00  0.13528086220E+00  0.15685813452E+01  0.15866791786E+01  0.51100000000E-03 0. -1.
    9000002    1    1    2    0    0 -0.10705327920E+00 -0.10725894648E+00  0.51137981375E-01  0.95153769202E+00  0.93800000000E+00 0. -1.
         22    1    1    2    0    0  0.30403603622E+00 -0.28021915721E-01  0.23802806408E+01  0.23997831294E+01  0.00000000000E+00 0. -1.
</event>
<event>
 5    1  0.3241783E+002  0.1599677E+01  0.7818608E-02  0.3353714E+00
         11   -1    0    0    0    0  0.00000000000E+00  0.00000000000E+00  0.39999999674E+01  0.40000000000E+01  0.51100000000E-03 0. -1.
    9000002   -1    0    0    0    0 -0.00000000000E+00 -0.00000000000E+00  0.00000000000E+00  0.93800000000E+00  0.93800000000E+00 0.  1.
         11    1    1    2    0    0 -0.94699572476E-01  0.14042125554E+00  0.15098774845E+01  0.15193473656E+01  0.51100000000E-03 0. -1.
    9000002    1    1    2    0    0  0.24187955169E+00 -0.36031793983E+00  0.12761855050E+00  0.10413766032E+01  0.93800000000E+00 0.  1.
         22    1    1    2    0    0 -0.14717997922E+00  0.21989668429E+00  0.23625039323E+01  0.23772760311E+01  0.00000000000E+00 0. -1.
</event>
<event>
 5    1  0.3241783E+002  0.1599677E+01  0.7818608E-02  0.3353714E+00
         11   -1    0    0    0    0  0.00000000000E+00  0.00000000000E+00  0.39999999674E+01  0.40000000000E+01  0.51100000000E-03 0. -1.
    9000002   -1    0    0    0    0 -0.00000000000E+00 -0.00000000000E+00  0.00000000000E+00  0.93800000000E+00  0.93800000000E+00 0. -1.
         11    1    1    2    0    0 -0.54327230749E-01 -0.30035348228E-02  0.47670790881E+00  0.47980325204E+00  0.51100000000E-03 0.  1.
    9000002    1    1    2    0    0  0.43938404571E+00  0.24064694373E-01  0.13132532348E+00  0.10443791408E+01  0.93800000000E+00 0. -1.
         22    1    1    2    0    0 -0.38505681496E+00 -0.21061159551E-01  0.33919667351E+01  0.34138176072E+01  0.00000000000E+00 0. -1.
</event>
<event>
 5    1  0.3241783E+002  0.1599676E+01  0.7818608E-02  0.3353715E+00
         11   -1    0    0    0    0  0.00000000000E+00  0.00000000000E+00  0.39999999674E+01  0.40000000000E+01  0.51100000000E-03 0.  1.
    9000002   -1    0    0    0    0 -0.00000000000E+00 -0.00000000000E+00  0.00000000000E+00  0.93800000000E+00  0.93800000000E+00 0. -1.
         11    1    1    2    0    0  0.27277177174E-01 -0.11169042551E+00  0.10741879359E+01  0.10803234601E+01  0.51100000000E-03 0.  1.
    9000002    1    1    2    0    0 -0.10141676289E+00  0.40088567790E+00  0.11554449365E+00  0.10315954714E+01  0.93800000000E+00 0. -1.
         22    1    1    2    0    0  0.74139585715E-01 -0.28919525240E+00  0.28102675378E+01  0.28260810686E+01  0.00000000000E+00 0.  1.
</event>
<event>
 5    1  0.3241783E+002  0.1599666E+01  0.7818608E-02  0.3353726E+00
         11   -1    0    0    0    0  0.00000000000E+00  0.00000000000E+00  0.39999999674E+01  0.40000000000E+01  0.51100000000E-03 0.  1.
    9000002   -1    0    0    0    0 -0.00000000000E+00 -0.00000000000E+00  0.00000000000E+00  0.93800000000E+00  0.93800000000E+00 0. -1.
         11    1    1    2    0    0 -0.21355765434E-01 -0.11966671227E+00  0.10989687901E+01  0.11056712230E+01  0.51100000000E-03 0.  1.
    9000002    1    1    2    0    0  0.87527662720E-01  0.41929979043E+00  0.12423528951E+00  0.10386297768E+01  0.93800000000E+00 0. -1.
         22    1    1    2    0    0 -0.66171897286E-01 -0.29963307816E+00  0.27767958878E+01  0.27936990002E+01  0.00000000000E+00 0. -1.
</event>
<event>
 5    1  0.3241783E+002  0.1599677E+01  0.7818608E-02  0.3353714E+00
         11   -1    0    0    0    0  0.00000000000E+00  0.00000000000E+00  0.39999999674E+01  0.40000000000E+01  0.51100000000E-03 0. -1.
    9000002   -1    0    0    0    0 -0.00000000000E+00 -0.00000000000E+00  0.00000000000E+00  0.93800000000E+00  0.93800000000E+00 0.  1.
         11    1    1    2    0    0  0.44639793533E-01  0.61148385576E-01  0.91399850426E+00  0.91712886943E+00  0.51100000000E-03 0.  1.
    9000002    1    1    2    0    0 -0.19028171553E+00 -0.26216901579E+00  0.70169767120E-01  0.99484044968E+00  0.93800000000E+00 0.  1.
         22    1    1    2    0    0  0.14564192199E+00  0.20102063022E+00  0.30158316960E+01  0.30260306809E+01  0.00000000000E+00 0. -1.
</event>
<event>
 5    1  0.3241783E+002  0.1598772E+01  0.7818608E-02  0.3354697E+00
         11   -1    0    0    0    0  0.00000000000E+00  0.00000000000E+00  0.39999999674E+01  0.40000000000E+01  0.51100000000E-03 0. -1.
    9000002   -1    0    0    0    0 -0.00000000000E+00 -0.00000000000E+00  0.00000000000E+00  0.93800000000E+00  0.93800000000E+00 0. -1.
         11    1    1    2    0    0 -0.22469357695E+00  0.36055335933E-01  0.14263317689E+01  0.14443717551E+01  0.51100000000E-03 0. -1.
    9000002    1    1    2    0    0  0.57280976296E+00 -0.18536801918E+00  0.25390954474E+00  0.11431475775E+01  0.93800000000E+00 0. -1.
         22    1    1    2    0    0 -0.34811618600E+00  0.14931268324E+00  0.23197586537E+01  0.23504806674E+01  0.00000000000E+00 0. -1.
</event>
<event>
 5    1  0.3241783E+002  0.1599547E+01  0.7818608E-02  0.3353855E+00
         11   -1    0    0    0    0  0.00000000000E+00  0.00000000000E+00  0.39999999674E+01  0.40000000000E+01  0.51100000000E-03 0. -1.
    9000002   -1    0    0    0    0 -0.00000000000E+00 -0.00000000000E+00  0.00000000000E+00  0.93800000000E+00  0.93800000000E+00 0. -1.
         11    1    1    2    0    0  0.63294713499E-01 -0.12089892418E+00  0.14746296401E+01  0.14809306558E+01  0.51100000000E-03 0. -1.
    9000002    1    1    2    0    0 -0.13559149295E+00  0.33495144745E+00  0.87770930202E-01  0.10090219330E+01  0.93800000000E+00 0. -1.
         22    1    1    2    0    0  0.72296779450E-01 -0.21405252326E+00  0.24375993970E+01  0.24480474112E+01  0.00000000000E+00 0. -1.
</event>
<event>
 5    1  0.3241783E+002  0.1575878E+01  0.7818608E-02  0.3379968E+00
         11   -1    0    0    0    0  0.00000000000E+00  0.00000000000E+00  0.39999999674E+01  0.40000000000E+01  0.51100000000E-03 0.  1.
    9000002   -1    0    0    0    0 -0.00000000000E+00 -0.00000000000E+00  0.00000000000E+00  0.93800000000E+00  0.93800000000E+00 0. -1.
         11    1    1    2    0    0 -0.26125717246E-01  0.81760886213E-01  0.13986026560E+00  0.16409920972E+00  0.51100000000E-03 0.  1.
    9000002    1    1    2    0    0  0.20101328345E-01 -0.37429887107E+00  0.11420769354E+00  0.10165584615E+01  0.93800000000E+00 0. -1.
         22    1    1    2    0    0  0.60243889004E-02  0.29253798485E+00  0.37459320082E+01  0.37573423288E+01  0.00000000000E+00 0.  1.
</event>
<event>
 5    1  0.3241783E+002  0.1562642E+01  0.7818608E-02  0.3394936E+00
         11   -1    0    0    0    0  0.00000000000E+00  0.00000000000E+00  0.39999999674E+01  0.40000000000E+01  0.51100000000E-03 0.  1.
    9000002   -1    0    0    0    0 -0.00000000000E+00 -0.00000000000E+00  0.00000000000E+00  0.93800000000E+00  0.93800000000E+00 0.  1.
         11    1    1    2    0    0 -0.15137473924E+00  0.65995019434E-01  0.66529885850E+00  0.68548704328E+00  0.51100000000E-03 0.  1.
    9000002    1    1    2    0    0 -0.91242299462E-01 -0.99983371159E-01  0.39836433014E-01  0.94855298909E+00  0.93800000000E+00 0.  1.
         22    1    1    2    0    0  0.24261703870E+00  0.33988351725E-01  0.32948646759E+01  0.33039599676E+01  0.00000000000E+00 0.  1.
</event>
<event>
 5    1  0.3241783E+002  0.1599674E+01  0.7818608E-02  0.3353717E+00
         11   -1    0    0    0    0  0.00000000000E+00  0.00000000000E+00  0.39999999674E+01  0.40000000000E+01  0.51100000000E-03 0. -1.
    9000002   -1    0    0    0    0 -0.00000000000E+00 -0.00000000000E+00  0.00000000000E+00  0.93800000000E+00  0.93800000000E+00 0. -1.
         11    1    1    2    0    0 -0.46651269313E-01 -0.34540487876E-02  0.75564868270E+00  0.75709541286E+00  0.51100000000E-03 0. -1.
    9000002    1    1    2    0    0  0.24907860973E+00  0.12003000058E-01  0.41308291395E-01  0.97146003560E+00  0.93800000000E+00 0. -1.
         22    1    1    2    0    0 -0.20242734041E+00 -0.85489512701E-02  0.32030429933E+01  0.32094445515E+01  0.00000000000E+00 0. -1.
</event>
<event>
 5    1  0.3241783E+002  0.1599600E+01  0.7818608E-02  0.3353798E+00
         11   -1    0    0    0    0  0.00000000000E+00  0.00000000000E+00  0.39999999674E+01  0.40000000000E+01  0.51100000000E-03 0.  1.
    9000002   -1    0    0    0    0 -0.00000000000E+00 -0.00000000000E+00  0.00000000000E+00  0.93800000000E+00  0.93800000000E+00 0.  1.
         11    1    1    2    0    0  0.94503056797E-01 -0.11071148349E+00  0.10728792589E+01  0.10827086523E+01  0.51100000000E-03 0.  1.
    9000002    1    1    2    0    0 -0.33262068367E+00  0.36194574697E+00  0.16525470350E+00  0.10718182495E+01  0.93800000000E+00 0.  1.
         22    1    1    2    0    0  0.23811762687E+00 -0.25123426348E+00  0.27618660049E+01  0.27834730982E+01  0.00000000000E+00 0.  1.
</event>
<event>
 5    1  0.3241783E+002  0.1599662E+01  0.7818608E-02  0.3353731E+00
         11   -1    0    0    0    0  0.00000000000E+00  0.00000000000E+00  0.39999999674E+01  0.40000000000E+01  0.51100000000E-03 0. -1.
    9000002   -1    0    0    0    0 -0.00000000000E+00 -0.00000000000E+00  0.00000000000E+00  0.93800000000E+00  0.93800000000E+00 0.  1.
         11    1    1    2    0    0  0.87563913438E-01 -0.74945782722E-01  0.13205556911E+01  0.13255760649E+01  0.51100000000E-03 0. -1.
    9000002    1    1    2    0    0 -0.24844346777E+00  0.22880286069E+00  0.76399393082E-01  0.99987787904E+00  0.93800000000E+00 0.  1.
         22    1    1    2    0    0  0.16087955433E+00 -0.15385707797E+00  0.26030448831E+01  0.26125460561E+01  0.00000000000E+00 0. -1.
</event>
<event>
 5    1  0.3241783E+002  0.1515201E+01  0.7818608E-02  0.3450878E+00
         11   -1    0    0    0    0  0.00000000000E+00  0.00000000000E+00  0.39999999674E+01  0.40000000000E+01  0.51100000000E-03 0.  1.
    9000002   -1    0    0    0    0 -0.00000000000E+00 -0.00000000000E+00  0.00000000000E+00  0.93800000000E+00  0.93800000000E+00 0.  1.
         11    1    1    2    0    0 -0.16547099446E-01 -0.27369824315E+00  0.71591313858E+00  0.76662664832E+00  0.51100000000E-03 0.  1.
    9000002    1    1    2    0    0  0.19265210799E+00  0.59997591327E-02  0.90626430570E-01  0.96187732157E+00  0.93800000000E+00 0.  1.
         22    1    1    2    0    0 -0.17610500855E+00  0.26769848402E+00  0.31934603982E+01  0.32094960301E+01  0.00000000000E+00 0.  1.
</event>
<event>
 5    1  0.3363849E+002  0.1599279E+01  0.7818608E-02  0.3354146E+00
         11   -1    0    0    0    0  0.00000000000E+00  0.00000000000E+00  0.39999999674E+01  0.40000000000E+01  0.51100000000E-03 0. -1.
    9000002   -1    0    0    0    0 -0.00000000000E+00 -0.00000000000E+00  0.00000000000E+00  0.93800000000E+00  0.93800000000E+00 0. -1.
         11    1    1    2    0    0  0.38014494217E-02 -0.24196972119E-02  0.33119940290E+00  0.33123045083E+00  0.51100000000E-03 0. -1.
    9000002    1    1    2    0    0 -0.20463818800E+00  0.33542189445E-01  0.28779873410E-01  0.96107967806E+00  0.93800000000E+00 0. -1.
         22    1    1    2    0    0  0.20083673858E+00 -0.31122492233E-01  0.36400206910E+01  0.36456898711E+01  0.00000000000E+00 0. -1.
</event>
<event>
 5    1  0.3241783E+002  0.1599633E+01  0.7818608E-02  0.3353762E+00
         11   -1    0    0    0    0  0.00000000000E+00  0.00000000000E+00  0.39999999674E+01  0.40000000000E+01  0.51100000000E-03 0.  1.
    9000002   -1    0    0    0    0 -0.00000000000E+00 -0.00000000000E+00  0.00000000000E+00  0.93800000000E+00  0.93800000000E+00 0.  1.
         11    1    1    2    0    0  0.84828074732E-01 -0.56489300384E-01  0.90439810341E+00  0.91012253784E+00  0.51100000000E-03 0.  1.
    9000002    1    1    2    0    0 -0.34443565053E+00  0.22161788859E+00  0.11332908320E+00  0.10297756489E+01  0.93800000000E+00 0.  1.
         22    1    1    2    0    0  0.25960757580E+00 -0.16512858820E+00  0.29822727807E+01  0.29981018133E+01  0.00000000000E+00 0.  1.
</event>
<event>
 5    1  0.3241783E+002  0.1599424E+01  0.7818608E-02  0.3353989E+00
         11   -1    0    0    0    0  0.00000000000E+00  0.00000000000E+00  0.39999999674E+01  0.40000000000E+01  0.51100000000E-03 0. -1.
    9000002   -1    0    0    0    0 -0.00000000000E+00 -0.00000000000E+00  0.00000000000E+00  0.93800000000E+00  0.93800000000E+00 0. -1.
         11    1    1    2    0    0  0.17909273724E-01  0.25150471309E-01  0.26377293754E+00  0.26557430597E+00  0.51100000000E-03 0. -1.
    9000002    1    1    2    0    0 -0.32109575835E+00 -0.24099868469E+00  0.10895247353E+00  0.10261079346E+01  0.93800000000E+00 0. -1.
         22    1    1    2    0    0  0.30318648463E+00  0.21584821338E+00  0.36272745563E+01  0.36463177594E+01  0.00000000000E+00 0. -1.
</event>
<event>
 5    1  0.3241783E+002  0.1594194E+01  0.7818608E-02  0.3359689E+00
         11   -1    0    0    0    0  0.00000000000E+00  0.00000000000E+00  0.39999999674E+01  0.40000000000E+01  0.51100000000E-03 0. -1.
    9000002   -1    0    0    0    0 -0.00000000000E+00 -0.00000000000E+00  0.00000000000E+00  0.93800000000E+00  0.93800000000E+00 0. -1.
         11    1    1    2    0    0 -0.91921951291E-01  0.74847403161E-01  0.10352214691E+01  0.10419863387E+01  0.51100000000E-03 0. -1.
    9000002    1    1    2    0    0  0.51617832484E-01 -0.27162534648E+00  0.55143454580E-01  0.97945368960E+00  0.93800000000E+00 0. -1.
         22    1    1    2    0    0  0.40304118807E-01  0.19677794332E+00  0.29096350437E+01  0.29165599717E+01  0.00000000000E+00 0. -1.
</event>
<event>
 5    1  0.3241783E+002  0.1592390E+01  0.7818608E-02  0.3361664E+00
         11   -1    0    0    0    0  0.00000000000E+00  0.00000000000E+00  0.39999999674E+01  0.40000000000E+01  0.51100000000E-03 0.  1.
    9000002   -1    0    0    0    0 -0.00000000000E+00 -0.00000000000E+00  0.00000000000E+00  0.93800000000E+00  0.93800000000E+00 0.  1.
         11    1    1    2    0    0  0.15063801253E+00  0.95210908286E-01  0.13545319227E+01  0.13662042009E+01  0.51100000000E-03 0.  1.
    9000002    1    1    2    0    0 -0.66148514710E+00 -0.16477274823E+00  0.33853947661E+00  0.12079592856E+01  0.93800000000E+00 0.  1.
         22    1    1    2    0    0  0.51084713457E+00  0.69561839942E-01  0.23069285681E+01  0.23638365135E+01  0.00000000000E+00 0.  1.
</event>
<event>
 5    1  0.3241783E+002  0.1599502E+01  0.7818608E-02  0.3353904E+00
         11   -1    0    0    0    0  0.00000000000E+00  0.00000000000E+00  0.39999999674E+01  0.40000000000E+01  0.51100000000E-03 0. -1.
    9000002   -1    0    0    0    0 -0.00000000000E+00 -0.00000000000E+00  0.00000000000E+00  0.93800000000E+00  0.93800000000E+00 0. -1.
         11    1    1    2    0    0  0.83596779460E-01  0.11286068853E+00  0.12989470768E+01  0.13065181690E+01  0.51100000000E-03 0. -1.
    9000002    1    1    2    0    0 -0.28608194771E+00 -0.35919289673E+00  0.14356337151E+00  0.10541901439E+01  0.93800000000E+00 0. -1.
         22    1    1    2    0    0  0.20248516825E+00  0.24633220820E+00  0.25574895191E+01  0.25772916871E+01  0.00000000000E+00 0. -1.
</event>
<event>
 5    1  0.3241783E+002  0.1599658E+01  0.7818608E-02  0.3353735E+00
         11   -1    0    0    0    0  0.00000000000E+00  0.00000000000E+00  0.39999999674E+01  0.40000000000E+01  0.51100000000E-03 0. -1.
    9000002   -1    0    0    0    0 -0.00000000000E+00 -0.00000000000E+00  0.00000000000E+00  0.93800000000E+00  0.93800000000E+00 0. -1.
         11    1    1    2    0    0  0.23243548240E-01 -0.48289923344E-01  0.68102290147E+00  0.68312856233E+00  0.51100000000E-03 0. -1.
    9000002    1    1    2    0    0 -0.13958335475E+00  0.25701383227E+00  0.57040162316E-01  0.98419368166E+00  0.93800000000E+00 0. -1.
         22    1    1    2    0    0  0.11633980651E+00 -0.20872390892E+00  0.32619369036E+01  0.32706777560E+01  0.00000000000E+00 0. -1.
</event>
<event>
 5    1  0.3450184E+002  0.1554631E+01  0.7818608E-02  0.3404127E+00
         11   -1    0    0    0    0  0.00000000000E+00  0.00000000000E+00  0.39999999674E+01  0.40000000000E+01  0.51100000000E-03 0. -1.
    9000002   -1    0    0    0    0 -0.00000000000E+00 -0.00000000000E+00  0.00000000000E+00  0.93800000000E+00  0.93800000000E+00 0.  1.
         11    1    1    2    0    0 -0.15050543055E+00 -0.24316316560E+00  0.16334191861E+01  0.16582637632E+01  0.51100000000E-03 0. -1.
    9000002    1    1    2    0    0  0.13946968535E-01  0.90459465527E-01  0.39108743122E-01  0.94326609534E+00  0.93800000000E+00 0.  1.
         22    1    1    2    0    0  0.13655846201E+00  0.15270370008E+00  0.23274720381E+01  0.23364701414E+01  0.00000000000E+00 0. -1.
</event>
<event>
 5    1  0.3241783E+002  0.1599676E+01  0.7818608E-02  0.3353715E+00
         11   -1    0    0    0    0  0.00000000000E+00  0.00000000000E+00  0.39999999674E+01  0.40000000000E+01  0.51100000000E-03 0.  1.
    9000002   -1    0    0    0    0 -0.00000000000E+00 -0.00000000000E+00  0.00000000000E+00  0.93800000000E+00  0.93800000000E+00 0.  1.
         11    1    1    2    0    0  0.60301027902E-01 -0.53473773779E-01  0.10746512087E+01  0.10776693091E+01  0.51100000000E-03 0.  1.
    9000002    1    1    2    0    0 -0.22055570646E+00  0.19995439718E+00  0.59112067438E-01  0.98588276033E+00  0.93800000000E+00 0.  1.
         22    1    1    2    0    0  0.16025467856E+00 -0.14648062340E+00  0.28662366913E+01  0.28744479305E+01  0.00000000000E+00 0.  1.
</event>
<event>
 5    1  0.3241783E+002  0.1599652E+01  0.7818608E-02  0.3353741E+00
         11   -1    0    0    0    0  0.00000000000E+00  0.00000000000E+00  0.39999999674E+01  0.40000000000E+01  0.51100000000E-03 0.  1.
    9000002   -1    0    0    0    0 -0.00000000000E+00 -0.00000000000E+00  0.00000000000E+00  0.93800000000E+00  0.93800000000E+00 0. -1.
         11    1    1    2    0    0  0.17991473217E+00  0.77436160542E-01  0.17227013604E+01  0.17338010001E+01  0.51100000000E-03 0.  1.
    9000002    1    1    2    0    0 -0.41059507936E+00 -0.16222898409E+00  0.13223449305E+00  0.10451012026E+01  0.93800000000E+00 0. -1.
         22    1    1    2    0    0  0.23068034719E+00  0.84792823547E-01  0.21450641140E+01  0.21590977973E+01  0.00000000000E+00 0.  1.
</event>
<event>
 5    1  0.3241783E+002  0.1599648E+01  0.7818608E-02  0.3353745E+00
         11   -1    0    0    0    0  0.00000000000E+00  0.00000000000E+00  0.39999999674E+01  0.40000000000E+01  0.51100000000E-03 0.  1.
    9000002   -1    0    0    0    0 -0.00000000000E+00 -0.00000000000E+00  0.00000000000E+00  0.93800000000E+00  0.93800000000E+00 0.  1.
         11    1    1    2    0    0  0.39059038795E-01 -0.53459966684E-01  0.52053081458E+00  0.52472484846E+00  0.51100000000E-03 0.  1.
    9000002    1    1    2    0    0 -0.29114565673E+00  0.36296699080E+00  0.14741523425E+00  0.10573958961E+01  0.93800000000E+00 0.  1.
         22    1    1    2    0    0  0.25208661793E+00 -0.30950702411E+00  0.33320539185E+01  0.33558792554E+01  0.00000000000E+00 0.  1.
</event>
<event>
 5    1  0.3838355E+002  0.1520853E+01  0.7818608E-02  0.3444017E+00
         11   -1    0    0    0    0  0.00000000000E+00  0.00000000000E+00  0.39999999674E+01  0.40000000000E+01  0.51100000000E-03 0. -1.
    9000002   -1    0    0    0    0 -0.00000000000E+00 -0.00000000000E+00  0.00000000000E+00  0.93800000000E+00  0.93800000000E+00 0.  1.
         11    1    1    2    0    0  0.13028672700E+00 -0.10418775639E+00  0.24723478865E+00  0.29825328440E+00  0.51100000000E-03 0. -1.
    9000002    1    1    2    0    0  0.16403003338E-01 -0.75630211235E-01  0.63646639741E-01  0.94333656885E+00  0.93800000000E+00 0.  1.
         22    1    1    2    0    0 -0.14668973034E+00  0.17981796763E+00  0.36891185390E+01  0.36964101468E+01  0.00000000000E+00 0. -1.
</event>
<event>
 5    1  0.3241783E+002  0.1536429E+01  0.7818608E-02  0.3425389E+00
         11   -1    0    0    0    0  0.00000000000E+00  0.00000000000E+00  0.39999999674E+01  0.40000000000E+01  0.51100000000E-03 0.  1.
    9000002   -1    0    0    0    0 -0.00000000000E+00 -0.00000000000E+00  0.00000000000E+00  0.93800000000E+00  0.93800000000E+00 0. -1.
         11    1    1    2    0    0  0.37115609189E-01  0.78342731143E-01  0.26582298778E-01  0.90675419479E-01  0.51100000000E-03 0.  1.
    9000002    1    1    2    0    0 -0.10864831017E+00 -0.68006882687E+00  0.41159273008E+00  0.12343219353E+01  0.93800000000E+00 0. -1.
         22    1    1    2    0    0  0.71532700983E-01  0.60172609573E+00  0.35618249385E+01  0.36130026452E+01  0.00000000000E+00 0.  1.
</event>
<event>
 5    1  0.3241783E+002  0.1599677E+01  0.7818608E-02  0.3353714E+00
         11   -1    0    0    0    0  0.00000000000E+00  0.00000000000E+00  0.39999999674E+01  0.40000000000E+01  0.51100000000E-03 0. -1.
    9000002   -1    0    0    0    0 -0.00000000000E+00 -0.00000000000E+00  0.00000000000E+00  0.93800000000E+00  0.93800000000E+00 0. -1.
         11    1    1    2    0    0 -0.56685258554E-01 -0.71878935389E-01  0.75510144372E+00  0.76063016724E+00  0.51100000000E-03 0.  1.
    9000002    1    1    2    0    0  0.28909770782E+00  0.36656425692E+00  0.14840277411E+00  0.10582127492E+01  0.93800000000E+00 0. -1.
         22    1    1    2    0    0 -0.23241244926E+00 -0.29468532153E+00  0.30964957495E+01  0.31191570836E+01  0.00000000000E+00 0. -1.
</event>
<event>
 5    1  0.3241783E+002  0.1599156E+01  0.7818608E-02  0.3354279E+00
         11   -1    0    0    0    0  0.00000000000E+00  0.00000000000E+00  0.39999999674E+01  0.40000000000E+01  0.51100000000E-03 0. -1.
    9000002   -1    0    0    0    0 -0.00000000000E+00 -0.00000000000E+00  0.00000000000E+00  0.93800000000E+00  0.93800000000E+00 0. -1.
         11    1    1    2    0    0 -0.14101234718E+00 -0.28756314844E+00  0.17525637518E+01  0.17815883395E+01  0.51100000000E-03 0. -1.
    9000002    1    1    2    0    0  0.26535643299E+00  0.56366519003E+00  0.27270148385E+00  0.11585950899E+01  0.93800000000E+00 0. -1.
         22    1    1    2    0    0 -0.12434408580E+00 -0.27610204160E+00  0.19747347317E+01  0.19978165706E+01  0.00000000000E+00 0. -1.
</event>
<event>
 5    1  0.3241783E+002  0.1599671E+01  0.7818608E-02  0.3353720E+00
         11   -1    0    0    0    0  0.00000000000E+00  0.00000000000E+00  0.39999999674E+01  0.40000000000E+01  0.51100000000E-03 0. -1.
    9000002   -1    0    0    0    0 -0.00000000000E+00 -0.00000000000E+00  0.00000000000E+00  0.93800000000E+00  0.93800000000E+00 0.  1.
         11    1    1    2    0    0 -0.15191734283E+00 -0.48978076197E+00  0.14841552929E+01  0.15702487919E+01  0.51100000000E-03 0. -1.
    9000002    1    1    2    0    0  0.30892999380E+00  0.10101405258E+01  0.92993318032E+00  0.16912839333E+01  0.93800000000E+00 0.  1.
         22    1    1    2    0    0 -0.15701265096E+00 -0.52035976387E+00  0.15859114941E+01  0.16764672748E+01  0.00000000000E+00 0. -1.
</event>
<event>
 5    1  0.3241783E+002  0.1599537E+01  0.7818608E-02  0.3353866E+00
         11   -1    0    0    0    0  0.00000000000E+00  0.00000000000E+00  0.39999999674E+01  0.40000000000E+01  0.51100000000E-03 0. -1.
    9000002   -1    0    0    0    0 -0.00000000000E+00 -0.00000000000E+00  0.00000000000E+00  0.93800000000E+00  0.93800000000E+00 0. -1.
         11    1    1    2    0    0  0.31318955604E+00  0.65858317310E-02  0.18608406925E+01  0.18870239572E+01  0.51100000000E-03 0. -1.
    9000002    1    1    2    0    0 -0.64775109599E+00 -0.28023849298E-01  0.29666153160E+00  0.11782270082E+01  0.93800000000E+00 0. -1.
         22    1    1    2    0    0  0.33456153996E+00  0.21438017567E-01  0.18424977433E+01  0.18727490346E+01  0.00000000000E+00 0. -1.
</event>
<event>
 5    1  0.3241783E+002  0.1599677E+01  0.7818608E-02  0.3353714E+00
         11   -1    0    0    0    0  0.00000000000E+00  0.00000000000E+00  0.39999999674E+01  0.40000000000E+01  0.51100000000E-03 0.  1.
    9000002   -1    0    0    0    0 -0.00000000000E+00 -0.00000000000E+00  0.00000000000E+00  0.93800000000E+00  0.93800000000E+00 0. -1.
         11    1    1    2    0    0 -0.79958962319E-02  0.15938920955E+00  0.16997189397E+01  0.17071946549E+01  0.51100000000E-03 0.  1.
    9000002    1    1    2    0    0  0.16795515724E-01 -0.36726793151E+00  0.90813359761E-01  0.10115625978E+01  0.93800000000E+00 0. -1.
         22    1    1    2    0    0 -0.87996194924E-02  0.20787872196E+00  0.22094676679E+01  0.22192427474E+01  0.00000000000E+00 0.  1.
</event>
<event>
 5    1  0.3241783E+002  0.1599604E+01  0.7818608E-02  0.3353793E+00
         11   -1    0    0    0    0  0.00000000000E+00  0.00000000000E+00  0.39999999674E+01  0.40000000000E+01  0.51100000000E-03 0.  1.
    9000002   -1    0    0    0    0 -0.00000000000E+00 -0.00000000000E+00  0.00000000000E+00  0.93800000000E+00  0.93800000000E+00 0.  1.
         11    1    1    2    0    0 -0.16217859038E-01  0.39725292638E-01  0.68323309732E+00  0.68457931916E+00  0.51100000000E-03 0.  1.
    9000002    1    1    2    0    0  0.55689068902E-01 -0.25363833929E+00  0.44885401016E-01  0.97431636483E+00  0.93800000000E+00 0.  1.
         22    1    1    2    0    0 -0.39471209864E-01  0.21391304665E+00  0.32718814690E+01  0.32791043160E+01  0.00000000000E+00 0.  1.
</event>
<event>
 5    1  0.3241783E+002  0.1597733E+01  0.7818608E-02  0.3355827E+00
         11   -1    0    0    0    0  0.00000000000E+00  0.00000000000E+00  0.39999999674E+01  0.40000000000E+01  0.51100000000E-03 0.  1.
    9000002   -1    0    0    0    0 -0.00000000000E+00 -0.00000000000E+00  0.00000000000E+00  0.93800000000E+00  0.93800000000E+00 0. -1.
         11    1    1    2    0    0 -0.26246867528E+00 -0.24629695020E+00  0.18548825837E+01  0.18894818479E+01  0.51100000000E-03 0.  1.
    9000002    1    1    2    0    0  0.51563332201E+00  0.38575485805E+00  0.29423422756E+00  0.11752030948E+01  0.93800000000E+00 0. -1.
         22    1    1    2    0    0 -0.25316464673E+00 -0.13945790785E+00  0.18508831561E+01  0.18733150573E+01  0.00000000000E+00 0.  1.
</event>
<event>
 5    1  0.3241783E+002  0.1530908E+01  0.7818608E-02  0.3431946E+00
         11   -1    0    0    0    0  0.00000000000E+00  0.00000000000E+00  0.39999999674E+01  0.40000000000E+01  0.51100000000E-03 0.  1.
    9000002   -1    0    0    0    0 -0.00000000000E+00 -0.00000000000E+00  0.00000000000E+00  0.93800000000E+00  0.93800000000E+00 0. -1.
         11    1    1    2    0    0 -0.25702263555E+00 -0.19489652293E-02  0.28859106592E+00  0.38645762782E+00  0.51100000000E-03 0.  1.
    9000002    1    1    2    0    0  0.75323302439E+00  0.26527911273E+00  0.56483630718E+00  0.13552184512E+01  0.93800000000E+00 0. -1.
         22    1    1    2    0    0 -0.49621038884E+00 -0.26333014750E+00  0.31465725943E+01  0.31963239209E+01  0.00000000000E+00 0.  1.
</event>
<event>
 5    1  0.3241783E+002  0.1549234E+01  0.7818608E-02  0.3410376E+00
         11   -1    0    0    0    0  0.00000000000E+00  0.00000000000E+00  0.39999999674E+01  0.40000000000E+01  0.51100000000E-03 0.  1.
    9000002   -1    0    0    0    0 -0.00000000000E+00 -0.00000000000E+00  0.00000000000E+00  0.93800000000E+00  0.93800000000E+00 0.  1.
         11    1    1    2    0    0  0.36097302070E+00  0.49678735119E-01  0.10237024350E+01  0.10866169679E+01  0.51100000000E-03 0.  1.
    9000002    1    1    2    0    0 -0.49242523438E+00  0.14553794662E+00  0.22845532566E+00  0.10934805628E+01  0.93800000000E+00 0.  1.
         22    1    1    2    0    0  0.13145221368E+00 -0.19521668174E+00  0.27478422067E+01  0.27579024694E+01  0.00000000000E+00 0.  1.
</event>
<event>
 5    1  0.3301837E+002  0.1598894E+01  0.7818608E-02  0.3354564E+00
         11   -1    0    0    0    0  0.00000000000E+00  0.00000000000E+00  0.39999999674E+01  0.40000000000E+01  0.51100000000E-03 0. -1.
    9000002   -1    0    0    0    0 -0.00000000000E+00 -0.00000000000E+00  0.00000000000E+00  0.93800000000E+00  0.93800000000E+00 0. -1.
         11    1    1    2    0    0  0.15411547133E-02 -0.60138728151E-02  0.27323004956E-01  0.28024088654E-01  0.51100000000E-03 0. -1.
    9000002    1    1    2    0    0  0.14312242224E+00  0.15054910031E+00  0.29167557719E-01  0.96116793838E+00  0.93800000000E+00 0. -1.
         22    1    1    2    0    0 -0.14466357696E+00 -0.14453522750E+00  0.39435094047E+01  0.39488079730E+01  0.00000000000E+00 0. -1.
</event>
<event>
 5    1  0.3241783E+002  0.1599664E+01  0.7818608E-02  0.3353728E+00
         11   -1    0    0    0    0  0.00000000000E+00  0.00000000000E+00  0.39999999674E+01  0.40000000000E+01  0.51100000000E-03 0. -1.
    9000002   -1    0    0    0    0 -0.00000000000E+00 -0.00000000000E+00  0.00000000000E+00  0.93800000000E+00  0.93800000000E+00 0. -1.
         11    1    1    2    0    0  0.97609882721E-02  0.73683992819E-02  0.17835459037E+00  0.17877413467E+00  0.51100000000E-03 0. -1.
    9000002    1    1    2    0    0 -0.19013298795E+00 -0.19137623735E+00  0.48430265043E-01  0.97722305944E+00  0.93800000000E+00 0. -1.
         22    1    1    2    0    0  0.18037199968E+00  0.18400783806E+00  0.37732151119E+01  0.37820028059E+01  0.00000000000E+00 0. -1.
</event>
<event>
 5    1  0.3241783E+002  0.1552420E+01  0.7818608E-02  0.3406681E+00
         11   -1    0    0    0    0  0.00000000000E+00  0.00000000000E+00  0.39999999674E+01  0.40000000000E+01  0.51100000000E-03 0.  1.
    9000002   -1    0    0    0    0 -0.00000000000E+00 -0.00000000000E+00  0.00000000000E+00  0.93800000000E+00  0.93800000000E+00 0.  1.
         11    1    1    2    0    0 -0.26584663824E+00  0.83407111931E-01  0.13327944096E+00  0.30886057030E+00  0.51100000000E-03 0.  1.
    9000002    1    1    2    0    0 -0.10688771519E+00 -0.84060263823E-01  0.23256717895E+00  0.97592141299E+00  0.93800000000E+00 0.  1.
         22    1    1    2    0    0  0.37273435343E+00  0.65315189226E-03  0.36341533474E+01  0.36532180167E+01  0.00000000000E+00 0.  1.
</event>
<event>
 5    1  0.3241783E+002  0.1583140E+01  0.7818608E-02  0.3371868E+00
         11   -1    0    0    0    0  0.00000000000E+00  0.00000000000E+00  0.39999999674E+01  0.40000000000E+01  0.51100000000E-03 0.  1.
    9000002   -1    0    0    0    0 -0.00000000000E+00 -0.00000000000E+00  0.00000000000E+00  0.93800000000E+00  0.93800000000E+00 0. -1.
         11    1    1    2    0    0 -0.56923048702E-01  0.66366198469E-01  0.45878385937E+00  0.46704132206E+00  0.51100000000E-03 0.  1.
    9000002    1    1    2    0    0  0.15004483033E+00  0.21375401678E+00  0.58156996036E-01  0.97541297253E+00  0.93800000000E+00 0. -1.
         22    1    1    2    0    0 -0.93121781633E-01 -0.28012021525E+00  0.34830591120E+01  0.34955457054E+01  0.00000000000E+00 0.  1.
</event>
<event>
 5    1  0.3241783E+002  0.1599653E+01  0.7818608E-02  0.3353740E+00
         11   -1    0    0    0    0  0.00000000000E+00  0.00000000000E+00  0.39999999674E+01  0.40000000000E+01  0.51100000000E-03 0. -1.
    9000002   -1    0    0    0    0 -0.00000000000E+00 -0.00000000000E+00  0.00000000000E+00  0.93800000000E+00  0.93800000000E+00 0. -1.
         11    1    1    2    0    0  0.83220908968E-01 -0.10281225711E+00  0.13607652711E+01  0.13671790168E+01  0.51100000000E-03 0. -1.
    9000002    1    1    2    0    0 -0.22632693665E+00  0.30535930098E+00  0.97224993115E-01  0.10167422900E+01  0.93800000000E+00 0. -1.
         22    1    1    2    0    0  0.14310602768E+00 -0.20254704387E+00  0.25420097032E+01  0.25540786932E+01  0.00000000000E+00 0. -1.
</event>
<event>
 5    1  0.3241783E+002  0.1599669E+01  0.7818608E-02  0.3353723E+00
         11   -1    0    0    0    0  0.00000000000E+00  0.00000000000E+00  0.39999999674E+01  0.40000000000E+01  0.51100000000E-03 0.  1.
    9000002   -1    0    0    0    0 -0.00000000000E+00 -0.00000000000E+00  0.00000000000E+00  0.93800000000E+00  0.93800000000E+00 0.  1.
         11    1    1    2    0    0  0.47565813476E-01 -0.32291264513E-01  0.62607657454E+00  0.62871088004E+00  0.51100000000E-03 0.  1.
    9000002    1    1    2    0    0 -0.31135571415E+00  0.20670834871E+00  0.93911973042E-01  0.10140681342E+01  0.93800000000E+00 0.  1.
         22    1    1    2    0    0  0.26378990068E+00 -0.17441708420E+00  0.32800114198E+01  0.32952209857E+01  0.00000000000E+00 0.  1.
</event>
<event>
 5    1  0.3241783E+002  0.1532805E+01  0.7818608E-02  0.3429687E+00
         11   -1    0    0    0    0  0.00000000000E+00  0.00000000000E+00  0.39999999674E+01  0.40000000000E+01  0.51100000000E-03 0. -1.
    9000002   -1    0    0    0    0 -0.00000000000E+00 -0.00000000000E+00  0.00000000000E+00  0.93800000000E+00  0.93800000000E+00 0. -1.
         11    1    1    2    0    0 -0.13836390835E+00 -0.53636579200E-01  0.28026827304E+00  0.31713091896E+00  0.51100000000E-03 0. -1.
    9000002    1    1    2    0    0 -0.23584001409E+00  0.18461361568E-01  0.89798461059E-01  0.97152925727E+00  0.93800000000E+00 0. -1.
         22    1    1    2    0    0  0.37420392244E+00  0.35175217632E-01  0.36299332333E+01  0.36493398238E+01  0.00000000000E+00 0. -1.
</event>
<event>
 5    1  0.3241783E+002  0.1565970E+01  0.7818608E-02  0.3391147E+00
         11   -1    0    0    0    0  0.00000000000E+00  0.00000000000E+00  0.39999999674E+01  0.40000000000E+01  0.51100000000E-03 0. -1.
    9000002   -1    0    0    0    0 -0.00000000000E+00 -0.00000000000E+00  0.00000000000E+00  0.93800000000E+00  0.93800000000E+00 0.  1.
         11    1    1    2    0    0  0.38350766236E-01 -0.79651619528E-01  0.12024464858E+00  0.14924543008E+00  0.51100000000E-03 0. -1.
    9000002    1    1    2    0    0 -0.31333133255E+00  0.11639523940E+00  0.10217790160E+00  0.10010038458E+01  0.93800000000E+00 0.  1.
         22    1    1    2    0    0  0.27498056631E+00 -0.36743619868E-01  0.37775774172E+01  0.37877507241E+01  0.00000000000E+00 0. -1.
</event>
<event>
 5    1  0.3241783E+002  0.1599292E+01  0.7818608E-02  0.3354132E+00
         11   -1    0    0    0    0  0.00000000000E+00  0.00000000000E+00  0.39999999674E+01  0.40000000000E+01  0.51100000000E-03 0.  1.
    9000002   -1    0    0    0    0 -0.00000000000E+00 -0.00000000000E+00  0.00000000000E+00  0.93800000000E+00  0.93800000000E+00 0.  1.
         11    1    1    2    0    0  0.48647428859E+00  0.35748370184E-01  0.25639792695E+01  0.26099665008E+01  0.51100000000E-03 0.  1.
    9000002    1    1    2    0    0 -0.71489666871E+00 -0.66895691657E-01  0.37072195700E+00  0.12380755429E+01  0.93800000000E+00 0.  1.
         22    1    1    2    0    0  0.22842238012E+00  0.31147321472E-01  0.10652987408E+01  0.10899579564E+01  0.00000000000E+00 0. -1.
</event>
<event>
 5    1  0.3241783E+002  0.1599675E+01  0.7818608E-02  0.3353716E+00
         11   -1    0    0    0    0  0.00000000000E+00  0.00000000000E+00  0.39999999674E+01  0.40000000000E+01  0.51100000000E-03 0.  1.
    9000002   -1    0    0    0    0 -0.00000000000E+00 -0.00000000000E+00  0.00000000000E+00  0.93800000000E+00  0.93800000000E+00 0. -1.
         11    1    1    2    0    0  0.53354349301E-01 -0.24821546267E-01  0.65416323819E+00  0.65680484093E+00  0.51100000000E-03 0. -1.
    9000002    1    1    2    0    0 -0.31569124459E+00  0.15431667997E+00  0.82805136078E-01  0.10050747685E+01  0.93800000000E+00 0. -1.
         22    1    1    2    0    0  0.26233689529E+00 -0.12949513370E+00  0.32630315931E+01  0.32761203906E+01  0.00000000000E+00 0.  1.
</event>
<event>
 5    1  0.3241783E+002  0.1599296E+01  0.7818608E-02  0.3354128E+00
         11   -1    0    0    0    0  0.00000000000E+00  0.00000000000E+00  0.39999999674E+01  0.40000000000E+01  0.51100000000E-03 0.  1.
    9000002   -1    0    0    0    0 -0.00000000000E+00 -0.00000000000E+00  0.00000000000E+00  0.93800000000E+00  0.93800000000E+00 0.  1.
         11    1    1    2    0    0  0.13792242706E-01  0.14052905829E+00  0.12590740867E+01  0.12669674262E+01  0.51100000000E-03 0.  1.
    9000002    1    1    2    0    0 -0.69070267235E-01 -0.48972622056E+00  0.16763439436E+00  0.10735677729E+01  0.93800000000E+00 0.  1.
         22    1    1    2    0    0  0.55278024529E-01  0.34919716228E+00  0.25732914863E+01  0.25974648009E+01  0.00000000000E+00 0.  1.
</event>
<event>
 5    1  0.3241783E+002  0.1599677E+01  0.7818608E-02  0.3353714E+00
         11   -1    0    0    0    0  0.00000000000E+00  0.00000000000E+00  0.39999999674E+01  0.40000000000E+01  0.51100000000E-03 0.  1.
    9000002   -1    0    0    0    0 -0.00000000000E+00 -0.00000000000E+00  0.00000000000E+00  0.93800000000E+00  0.93800000000E+00 0.  1.
         11    1    1    2    0    0 -0.15015458807E+00 -0.41714987761E-01  0.85629977767E+00  0.87036550419E+00  0.51100000000E-03 0.  1.
    9000002    1    1    2    0    0  0.64429400644E+00  0.17872231477E+00  0.31690838813E+00  0.11947097384E+01  0.93800000000E+00 0.  1.
         22    1    1    2    0    0 -0.49413941838E+00 -0.13700732701E+00  0.28267918016E+01  0.28729247574E+01  0.00000000000E+00 0.  1.
</event>
<event>
 5    1  0.3241783E+002  0.1598072E+01  0.7818608E-02  0.3355459E+00
         11   -1    0    0    0    0  0.00000000000E+00  0.00000000000E+00  0.39999999674E+01  0.40000000000E+01  0.51100000000E-03 0.  1.
    9000002   -1    0    0    0    0 -0.00000000000E+00 -0.00000000000E+00  0.00000000000E+00  0.93800000000E+00  0.93800000000E+00 0.  1.
         11    1    1    2    0    0 -0.29732055765E+00 -0.22703906268E-01  0.18583852014E+01  0.18821558913E+01  0.51100000000E-03 0.  1.
    9000002    1    1    2    0    0  0.55350487341E+00  0.13018349900E+00  0.22566737886E+00  0.11198594350E+01  0.93800000000E+00 0.  1.
         22    1    1    2    0    0 -0.25618431577E+00 -0.10747959273E+00  0.19159473871E+01  0.19359846737E+01  0.00000000000E+00 0.  1.
</event>
<event>
 5    1  0.3241783E+002  0.1586828E+01  0.7818608E-02  0.3367785E+00
         11   -1    0    0    0    0  0.00000000000E+00  0.00000000000E+00  0.39999999674E+01  0.40000000000E+01  0.51100000000E-03 0.  1.
    9000002   -1    0    0    0    0 -0.00000000000E+00 -0.00000000000E+00  0.00000000000E+00  0.93800000000E+00  0.93800000000E+00 0. -1.
         11    1    1    2    0    0 -0.73977470945E-01 -0.69752109933E-01  0.15530247854E+01  0.15563496613E+01  0.51100000000E-03 0.  1.
    9000002    1    1    2    0    0  0.39795545549E+00 -0.83536681650E-01  0.12244612904E+00  0.10296523570E+01  0.93800000000E+00 0. -1.
         22    1    1    2    0    0 -0.32397798455E+00  0.15328879158E+00  0.23245290529E+01  0.23519979817E+01  0.00000000000E+00 0. -1.
</event>
<event>
 5    1  0.3241783E+002  0.1599511E+01  0.7818608E-02  0.3353895E+00
         11   -1    0    0    0    0  0.00000000000E+00  0.00000000000E+00  0.39999999674E+01  0.40000000000E+01  0.51100000000E-03 0. -1.
    9000002   -1    0    0    0    0 -0.00000000000E+00 -0.00000000000E+00  0.00000000000E+00  0.93800000000E+00  0.93800000000E+00 0. -1.
         11    1    1    2    0    0  0.17939005860E+00 -0.89900656469E-01  0.13941258432E+01  0.14084921189E+01  0.51100000000E-03 0. -1.
    9000002    1    1    2    0    0 -0.47900749753E+00  0.28398005129E+00  0.21462089493E+00  0.11117549104E+01  0.93800000000E+00 0. -1.
         22    1    1    2    0    0  0.29961743893E+00 -0.19407939482E+00  0.23912532293E+01  0.24177529708E+01  0.00000000000E+00 0. -1.
</event>
<event>
 5    1  0.3241783E+002  0.1596711E+01  0.7818608E-02  0.3356941E+00
         11   -1    0    0    0    0  0.00000000000E+00  0.00000000000E+00  0.39999999674E+01  0.40000000000E+01  0.51100000000E-03 0.  1.
    9000002   -1    0    0    0    0 -0.00000000000E+00 -0.00000000000E+00  0.00000000000E+00  0.93800000000E+00  0.93800000000E+00 0. -1.
         11    1    1    2    0    0 -0.73694793500E-01 -0.11267666669E-01  0.55139911804E+00  0.55641632919E+00  0.51100000000E-03 0.  1.
    9000002    1    1    2    0    0  0.47267115567E+00 -0.23857066984E+00  0.19564117802E+00  0.10947389901E+01  0.93800000000E+00 0. -1.
         22    1    1    2    0    0 -0.39897636217E+00  0.24983833651E+00  0.32529596713E+01  0.32868446807E+01  0.00000000000E+00 0.  1.
</event>
<event>
 5    1  0.3355987E+002  0.1595415E+01  0.7818608E-02  0.3358355E+00
         11   -1    0    0    0    0  0.00000000000E+00  0.00000000000E+00  0.39999999674E+01  0.40000000000E+01  0.51100000000E-03 0.  1.
    9000002   -1    0    0    0    0 -0.00000000000E+00 -0.00000000000E+00  0.00000000000E+00  0.93800000000E+00  0.93800000000E+00 0.  1.
         11    1    1    2    0    0 -0.33068926994E-01 -0.10915762807E-01  0.75085313914E+00  0.75166043230E+00  0.51100000000E-03 0.  1.
    9000002    1    1    2    0    0 -0.14040071436E+00  0.13802154337E+00  0.28853657999E-01  0.95887373549E+00  0.93800000000E+00 0.  1.
         22    1    1    2    0    0  0.17346964135E+00 -0.12710578057E+00  0.32202931702E+01  0.32274658322E+01  0.00000000000E+00 0.  1.
</event>
<event>
 5    1  0.3241783E+002  0.1597331E+01  0.7818608E-02  0.3356265E+00
         11   -1    0    0    0    0  0.00000000000E+00  0.00000000000E+00  0.39999999674E+01  0.40000000000E+01  0.51100000000E-03 0.  1.
    9000002   -1    0    0    0    0 -0.00000000000E+00 -0.00000000000E+00  0.00000000000E+00  0.93800000000E+00  0.93800000000E+00 0.  1.
         11    1    1    2    0    0 -0.30400782002E-01  0.10196149005E-01  0.44196808839E+00  0.44313002751E+00  0.51100000000E-03 0.  1.
    9000002    1    1    2    0    0 -0.14906696552E-01 -0.25127259076E+00  0.43890961885E-01  0.97217824549E+00  0.93800000000E+00 0.  1.
         22    1    1    2    0    0  0.45307478554E-01  0.24107644175E+00  0.35141409171E+01  0.35226917270E+01  0.00000000000E+00 0.  1.
</event>
<event>
 5    1  0.3241783E+002  0.1592209E+01  0.7818608E-02  0.3361863E+00
         11   -1    0    0    0    0  0.00000000000E+00  0.00000000000E+00  0.39999999674E+01  0.40000000000E+01  0.51100000000E-03 0. -1.
    9000002   -1    0    0    0    0 -0.00000000000E+00 -0.00000000000E+00  0.00000000000E+00  0.93800000000E+00  0.93800000000E+00 0. -1.
         11    1    1    2    0    0  0.14125238498E-01 -0.31565810652E-01  0.16448508683E+00  0.16808190764E+00  0.51100000000E-03 0. -1.
    9000002    1    1    2    0    0  0.12376024237E+00 -0.12688182827E+00  0.26346104227E-01  0.95496267631E+00  0.93800000000E+00 0. -1.
         22    1    1    2    0    0 -0.13788548087E+00  0.15844763892E+00  0.38091687763E+01  0.38149554161E+01  0.00000000000E+00 0. -1.
</event>
<event>
 5    1  0.3241783E+002  0.1599515E+01  0.7818608E-02  0.3353890E+00
         11   -1    0    0    0    0  0.00000000000E+00  0.00000000000E+00  0.39999999674E+01  0.40000000000E+01  0.51100000000E-03 0. -1.
    9000002   -1    0    0    0    0 -0.00000000000E+00 -0.00000000000E+00  0.00000000000E+00  0.93800000000E+00  0.93800000000E+00 0.  1.
         11    1    1    2    0    0 -0.63996237169E-02 -0.48705609752E-02  0.67212310953E-01  0.67693673357E-01  0.51100000000E-03 0. -1.
    9000002    1    1    2    0    0  0.18839322100E+00  0.15175742102E+00  0.38975515205E-01  0.96947687509E+00  0.93800000000E+00 0.  1.
         22    1    1    2    0    0 -0.18199359729E+00 -0.14688686004E+00  0.38938121412E+01  0.39008294516E+01  0.00000000000E+00 0. -1.
</event>
<event>
 5    1  0.3241783E+002  0.1596531E+01  0.7818608E-02  0.3357137E+00
         11   -1    0    0    0    0  0.00000000000E+00  0.00000000000E+00  0.39999999674E+01  0.40000000000E+01  0.51100000000E-03 0.  1.
    9000002   -1    0    0    0    0 -0.00000000000E+00 -0.00000000000E+00  0.00000000000E+00  0.93800000000E+00  0.93800000000E+00 0.  1.
         11    1    1    2    0    0  0.14028823561E+00  0.23658705377E-02  0.13210271962E+01  0.13284575645E+01  0.51100000000E-03 0.  1.
    9000002    1    1    2    0    0 -0.29190616922E+00  0.13547990922E+00  0.71730578457E-01  0.99426017386E+00  0.93800000000E+00 0.  1.
         22    1    1    2    0    0  0.15161793361E+00 -0.13784577975E+00  0.26072421927E+01  0.26152822616E+01  0.00000000000E+00 0.  1.
</event>
<event>
 5    1  0.3241783E+002  0.1599648E+01  0.7818608E-02  0.3353745E+00
         11   -1    0    0    0    0  0.00000000000E+00  0.00000000000E+00  0.39999999674E+01  0.40000000000E+01  0.51100000000E-03 0. -1.
    9000002   -1    0    0    0    0 -0.00000000000E+00 -0.00000000000E+00  0.00000000000E+00  0.93800000000E+00  0.93800000000E+00 0.  1.
         11    1    1    2    0    0  0.53157224627E-02 -0.15387384968E+00  0.17484805716E+01  0.17552464183E+01  0.51100000000E-03 0. -1.
    9000002    1    1    2    0    0 -0.14280211607E-01  0.35860250553E+00  0.86470593424E-01  0.10080281965E+01  0.93800000000E+00 0.  1.
         22    1    1    2    0    0  0.89644891440E-02 -0.20472865585E+00  0.21650488023E+01  0.21747253852E+01  0.00000000000E+00 0. -1.
</event>
<event>
 5    1  0.3241783E+002  0.1544606E+01  0.7818608E-02  0.3415772E+00
         11   -1    0    0    0    0  0.00000000000E+00  0.00000000000E+00  0.39999999674E+01  0.40000000000E+01  0.51100000000E-03 0.  1.
    9000002   -1    0    0    0    0 -0.00000000000E+00 -0.00000000000E+00  0.00000000000E+00  0.93800000000E+00  0.93800000000E+00 0. -1.
         11    1    1    2    0    0 -0.18231000329E+00  0.20532500162E+00  0.13274401841E+01  0.13555415881E+01  0.51100000000E-03 0.  1.
    9000002    1    1    2    0    0  0.79265376930E-01  0.34760373097E-01  0.46180364979E-01  0.94311606371E+00  0.93800000000E+00 0. -1.
         22    1    1    2    0    0  0.10304462636E+00 -0.24008537472E+00  0.26263794183E+01  0.26393423482E+01  0.00000000000E+00 0.  1.
</event>
<event>
 5    1  0.3241783E+002  0.1538244E+01  0.7818608E-02  0.3423245E+00
         11   -1    0    0    0    0  0.00000000000E+00  0.00000000000E+00  0.39999999674E+01  0.40000000000E+01  0.51100000000E-03 0.  1.
    9000002   -1    0    0    0    0 -0.00000000000E+00 -0.00000000000E+00  0.00000000000E+00  0.93800000000E+00  0.93800000000E+00 0. -1.
         11    1    1    2    0    0  0.62060686888E-01  0.12785570398E+00  0.31533631519E+01  0.31565642776E+01  0.51100000000E-03 0.  1.
    9000002    1    1    2    0    0  0.16226215342E+00 -0.31967391870E+00  0.13777426238E+00  0.10135808641E+01  0.93800000000E+00 0. -1.
         22    1    1    2    0    0 -0.22432284031E+00  0.19181821472E+00  0.70886255306E+00  0.76785485823E+00  0.00000000000E+00 0.  1.
</event>
<event>
 5    1  0.3241783E+002  0.1599676E+01  0.7818608E-02  0.3353715E+00
         11   -1    0    0    0    0  0.00000000000E+00  0.00000000000E+00  0.39999999674E+01  0.40000000000E+01  0.51100000000E-03 0. -1.
    9000002   -1    0    0    0    0 -0.00000000000E+00 -0.00000000000E+00  0.00000000000E+00  0.93800000000E+00  0.93800000000E+00 0. -1.
         11    1    1    2    0    0  0.25606009305E-01  0.58325394844E-01  0.68412339820E+00  0.68708267660E+00  0.51100000000E-03 0. -1.
    9000002    1    1    2    0    0 -0.14392343754E+00 -0.33012607008E+00  0.87062793523E-01  0.10085242228E+01  0.93800000000E+00 0. -1.
         22    1    1    2    0    0  0.11831742823E+00  0.27180067524E+00  0.32288137756E+01  0.32423931006E+01  0.00000000000E+00 0. -1.
</event>
<event>
 5    1  0.3241783E+002  0.1599019E+01  0.7818608E-02  0.3354429E+00
         11   -1    0    0    0    0  0.00000000000E+00  0.00000000000E+00  0.39999999674E+01  0.40000000000E+01  0.51100000000E-03 0.  1.
    9000002   -1    0    0    0    0 -0.00000000000E+00 -0.00000000000E+00  0.00000000000E+00  0.93800000000E+00  0.93800000000E+00 0. -1.
         11    1    1    2    0    0  0.39826325891E-03  0.18556676077E-02  0.20085232413E+00  0.20086194101E+00  0.51100000000E-03 0.  1.
    9000002    1    1    2    0    0 -0.16119255738E+00  0.18212741886E+00  0.39776831814E-01  0.96983484862E+00  0.93800000000E+00 0. -1.
         22    1    1    2    0    0  0.16079429412E+00 -0.18398308647E+00  0.37593708114E+01  0.37673032104E+01  0.00000000000E+00 0.  1.
</event>
<event>
 5    1  0.3241783E+002  0.1599580E+01  0.7818608E-02  0.3353819E+00
         11   -1    0    0    0    0  0.00000000000E+00  0.00000000000E+00  0.39999999674E+01  0.40000000000E+01  0.51100000000E-03 0. -1.
    9000002   -1    0    0    0    0 -0.00000000000E+00 -0.00000000000E+00  0.00000000000E+00  0.93800000000E+00  0.93800000000E+00 0.  1.
         11    1    1    2    0    0  0.15833108237E-02  0.27983278105E-02  0.15975068033E-01  0.16303417782E-01  0.51100000000E-03 0. -1.
    9000002    1    1    2    0    0 -0.32985391307E+00 -0.32849170175E+00  0.14761553822E+00  0.10575182028E+01  0.93800000000E+00 0.  1.
         22    1    1    2    0    0  0.32827060225E+00  0.32569337394E+00  0.38364093611E+01  0.38641783794E+01  0.00000000000E+00 0. -1.
</event>
<event>
 5    1  0.3241783E+002  0.1599655E+01  0.7818608E-02  0.3353738E+00
         11   -1    0    0    0    0  0.00000000000E+00  0.00000000000E+00  0.39999999674E+01  0.40000000000E+01  0.51100000000E-03 0.  1.
    9000002   -1    0    0    0    0 -0.00000000000E+00 -0.00000000000E+00  0.00000000000E+00  0.93800000000E+00  0.93800000000E+00 0.  1.
         11    1    1    2    0    0  0.10410449214E+00  0.23450488898E+00  0.22107688036E+01  0.22256076142E+01  0.51100000000E-03 0.  1.
    9000002    1    1    2    0    0 -0.18606928641E+00 -0.41795417918E+00  0.14233633143E+00  0.10532858617E+01  0.93800000000E+00 0.  1.
         22    1    1    2    0    0  0.81964794265E-01  0.18344929019E+00  0.16468948323E+01  0.16591065241E+01  0.00000000000E+00 0. -1.
</event>
<event>
 5    1  0.3241783E+002  0.1585611E+01  0.7818608E-02  0.3369131E+00
         11   -1    0    0    0    0  0.00000000000E+00  0.00000000000E+00  0.39999999674E+01  0.40000000000E+01  0.51100000000E-03 0. -1.
    9000002   -1    0    0    0    0 -0.00000000000E+00 -0.00000000000E+00  0.00000000000E+00  0.93800000000E+00  0.93800000000E+00 0.  1.
         11    1    1    2    0    0  0.12237662936E-01 -0.45263425224E-01  0.31521484783E+00  0.31868354126E+00  0.51100000000E-03 0. -1.
    9000002    1    1    2    0    0  0.21759398798E+00 -0.32922314472E+00  0.11672800620E+00  0.10243068144E+01  0.93800000000E+00 0.  1.
         22    1    1    2    0    0 -0.22983165092E+00  0.37448656994E+00  0.35680571133E+01  0.35950096443E+01  0.00000000000E+00 0. -1.
</event>
<event>
 5    1  0.3241783E+002  0.1599676E+01  0.7818608E-02  0.3353715E+00
         11   -1    0    0    0    0  0.00000000000E+00  0.00000000000E+00  0.39999999674E+01  0.40000000000E+01  0.51100000000E-03 0. -1.
    9000002   -1    0    0    0    0 -0.00000000000E+00 -0.00000000000E+00  0.00000000000E+00  0.93800000000E+00  0.93800000000E+00 0. -1.
         11    1    1    2    0    0  0.29281415080E+00  0.10294652418E+00  0.15620767828E+01  0.15926149096E+01  0.51100000000E-03 0. -1.
    9000002    1    1    2    0    0 -0.67980287122E+00 -0.23691975065E+00  0.37242474178E+00  0.12396802411E+01  0.93800000000E+00 0. -1.
         22    1    1    2    0    0  0.38698872042E+00  0.13397322647E+00  0.20654984428E+01  0.21057048493E+01  0.00000000000E+00 0. -1.
</event>
<event>
 5    1  0.3241783E+002  0.1599676E+01  0.7818608E-02  0.3353716E+00
         11   -1    0    0    0    0  0.00000000000E+00  0.00000000000E+00  0.39999999674E+01  0.40000000000E+01  0.51100000000E-03 0.  1.
    9000002   -1    0    0    0    0 -0.00000000000E+00 -0.00000000000E+00  0.00000000000E+00  0.93800000000E+00  0.93800000000E+00 0.  1.
         11    1    1    2    0    0  0.51459630050E-01  0.63209460529E-02  0.73620152164E+00  0.73802506019E+00  0.51100000000E-03 0.  1.
    9000002    1    1    2    0    0 -0.27869087545E+00 -0.28896495485E-01  0.52278720496E-01  0.98034722223E+00  0.93800000000E+00 0.  1.
         22    1    1    2    0    0  0.22723124540E+00  0.22575549432E-01  0.32115197252E+01  0.32196277176E+01  0.00000000000E+00 0.  1.
</event>
<event>
 5    1  0.3241783E+002  0.1598578E+01  0.7818608E-02  0.3354908E+00
         11   -1    0    0    0    0  0.00000000000E+00  0.00000000000E+00  0.39999999674E+01  0.40000000000E+01  0.51100000000E-03 0. -1.
    9000002   -1    0    0    0    0 -0.00000000000E+00 -0.00000000000E+00  0.00000000000E+00  0.93800000000E+00  0.93800000000E+00 0. -1.
         11    1    1    2    0    0  0.61192881276E-01  0.83846339367E-01  0.15524074928E+01  0.15558740509E+01  0.51100000000E-03 0. -1.
    9000002    1    1    2    0    0 -0.95239205627E-01 -0.29132862747E+00  0.63572329965E-01  0.98885201957E+00  0.93800000000E+00 0. -1.
         22    1    1    2    0    0  0.34046324351E-01  0.20748228810E+00  0.23840201446E+01  0.23932739296E+01  0.00000000000E+00 0. -1.
</event>
<event>
 5    1  0.3241783E+002  0.1599282E+01  0.7818608E-02  0.3354143E+00
         11   -1    0    0    0    0  0.00000000000E+00  0.00000000000E+00  0.39999999674E+01  0.40000000000E+01  0.51100000000E-03 0.  1.
    9000002   -1    0    0    0    0 -0.00000000000E+00 -0.00000000000E+00  0.00000000000E+00  0.93800000000E+00  0.93800000000E+00 0. -1.
         11    1    1    2    0    0  0.18661050349E-01 -0.19809446373E-01  0.39405367341E+00  0.39499266779E+00  0.51100000000E-03 0.  1.
    9000002    1    1    2    0    0 -0.46750755759E-01  0.22830046187E+00  0.36330084758E-01  0.96719729586E+00  0.93800000000E+00 0. -1.
         22    1    1    2    0    0  0.28089705409E-01 -0.20849101550E+00  0.35696162092E+01  0.35758100363E+01  0.00000000000E+00 0.  1.
</event>
<event>
 5    1  0.3241783E+002  0.1599648E+01  0.7818608E-02  0.3353746E+00
         11   -1    0    0    0    0  0.00000000000E+00  0.00000000000E+00  0.39999999674E+01  0.40000000000E+01  0.51100000000E-03 0. -1.
    9000002   -1    0    0    0    0 -0.00000000000E+00 -0.00000000000E+00  0.00000000000E+00  0.93800000000E+00  0.93800000000E+00 0.  1.
         11    1    1    2    0    0 -0.31383198174E-01  0.61913701293E-01  0.92588185891E+00  0.92848031175E+00  0.51100000000E-03 0. -1.
    9000002    1    1    2    0    0  0.15361983624E+00 -0.27473500378E+00  0.66212660713E-01  0.99161811845E+00  0.93800000000E+00 0.  1.
         22    1    1    2    0    0 -0.12223663807E+00  0.21282130249E+00  0.30079054477E+01  0.30179015698E+01  0.00000000000E+00 0. -1.
</event>
<event>
 5    1  0.3241783E+002  0.1599677E+01  0.7818608E-02  0.3353714E+00
         11   -1    0    0    0    0  0.00000000000E+00  0.00000000000E+00  0.39999999674E+01  0.40000000000E+01  0.51100000000E-03 0.  1.
    9000002   -1    0    0    0    0 -0.00000000000E+00 -0.00000000000E+00  0.00000000000E+00  0.93800000000E+00  0.93800000000E+00 0.  1.
         11    1    1    2    0    0 -0.17058132627E+00 -0.12453743678E+00  0.19853103754E+01  0.19965132381E+01  0.51100000000E-03 0.  1.
    9000002    1    1    2    0    0  0.33285131265E+00  0.24396065271E+00  0.11506606677E+00  0.10312085124E+01  0.93800000000E+00 0.  1.
         22    1    1    2    0    0 -0.16226998638E+00 -0.11942321593E+00  0.18996235252E+01  0.19102782495E+01  0.00000000000E+00 0.  1.
</event>
<event>
 5    1  0.3241783E+002  0.1545137E+01  0.7818608E-02  0.3415151E+00
         11   -1    0    0    0    0  0.00000000000E+00  0.00000000000E+00  0.39999999674E+01  0.40000000000E+01  0.51100000000E-03 0.  1.
    9000002   -1    0    0    0    0 -0.00000000000E+00 -0.00000000000E+00  0.00000000000E+00  0.93800000000E+00  0.93800000000E+00 0.  1.
         11    1    1    2    0    0 -0.37721010206E+00 -0.42284008562E+00  0.90929603672E+00  0.10714012986E+01  0.51100000000E-03 0.  1.
    9000002    1    1    2    0    0 -0.21394583624E-01  0.24127049681E+00  0.26115940039E+00  0.10033530850E+01  0.93800000000E+00 0.  1.
         22    1    1    2    0    0  0.39860468569E+00  0.18156958881E+00  0.28295445303E+01  0.28632456164E+01  0.00000000000E+00 0.  1.
</event>
<event>
 5    1  0.3241783E+002  0.1599667E+01  0.7818608E-02  0.3353725E+00
         11   -1    0    0    0    0  0.00000000000E+00  0.00000000000E+00  0.39999999674E+01  0.40000000000E+01  0.51100000000E-03 0.  1.
    9000002   -1    0    0    0    0 -0.00000000000E+00 -0.00000000000E+00  0.00000000000E+00  0.93800000000E+00  0.93800000000E+00 0.  1.
         11    1    1    2    0    0 -0.18867952866E+00  0.32088821595E-02  0.17715530641E+01  0.17815753651E+01  0.51100000000E-03 0.  1.
    9000002    1    1    2    0    0  0.42083293792E+00 -0.10884207248E-01  0.11987851287E+00  0.10351008093E+01  0.93800000000E+00 0.  1.
         22    1    1    2    0    0 -0.23215340926E+00  0.76753250888E-02  0.21085683904E+01  0.21213238256E+01  0.00000000000E+00 0.  1.
</event>
<event>
 5    1  0.3241783E+002  0.1599621E+01  0.7818608E-02  0.3353775E+00
         11   -1    0    0    0    0  0.00000000000E+00  0.00000000000E+00  0.39999999674E+01  0.40000000000E+01  0.51100000000E-03 0.  1.
    9000002   -1    0    0    0    0 -0.00000000000E+00 -0.00000000000E+00  0.00000000000E+00  0.93800000000E+00  0.93800000000E+00 0.  1.
         11    1    1    2    0    0 -0.16792428487E+00 -0.21548547627E+00  0.22016068178E+01  0.22184916942E+01  0.51100000000E-03 0.  1.
    9000002    1    1    2    0    0  0.30469882922E+00  0.36572773983E+00  0.15456414617E+00  0.10631708383E+01  0.93800000000E+00 0.  1.
         22    1    1    2    0    0 -0.13677454435E+00 -0.15024226356E+00  0.16438290034E+01  0.16563374675E+01  0.00000000000E+00 0.  1.
</event>
<event>
 5    1  0.3241783E+002  0.1598965E+01  0.7818608E-02  0.3354488E+00
         11   -1    0    0    0    0  0.00000000000E+00  0.00000000000E+00  0.39999999674E+01  0.40000000000E+01  0.51100000000E-03 0. -1.
    9000002   -1    0    0    0    0 -0.00000000000E+00 -0.00000000000E+00  0.00000000000E+00  0.93800000000E+00  0.93800000000E+00 0. -1.
         11    1    1    2    0    0 -0.10925669489E+00 -0.17760079308E+00  0.10113104074E+01  0.10325832017E+01  0.51100000000E-03 0. -1.
    9000002    1    1    2    0    0  0.28965169744E+00  0.64665937234E+00  0.36045774912E+00  0.12295691272E+01  0.93800000000E+00 0. -1.
         22    1    1    2    0    0 -0.18039500255E+00 -0.46905857926E+00  0.26282318108E+01  0.26758476711E+01  0.00000000000E+00 0. -1.
</event>
<event>
 5    1  0.3241783E+002  0.1571475E+01  0.7818608E-02  0.3384918E+00
         11   -1    0    0    0    0  0.00000000000E+00  0.00000000000E+00  0.39999999674E+01  0.40000000000E+01  0.51100000000E-03 0. -1.
    9000002   -1    0    0    0    0 -0.00000000000E+00 -0.00000000000E+00  0.00000000000E+00  0.93800000000E+00  0.93800000000E+00 0. -1.
         11    1    1    2    0    0 -0.62290791252E-01 -0.13921387334E+00  0.17632581436E+01  0.17698418537E+01  0.51100000000E-03 0. -1.
    9000002    1    1    2    0    0 -0.84416519441E-01 -0.78961433558E-01  0.29752093256E-01  0.94556345308E+00  0.93800000000E+00 0. -1.
         22    1    1    2    0    0  0.14670731069E+00  0.21817530690E+00  0.22069897306E+01  0.22225946932E+01  0.00000000000E+00 0. -1.
</event>
<event>
 5    1  0.3241783E+002  0.1597534E+01  0.7818608E-02  0.3356044E+00
         11   -1    0    0    0    0  0.00000000000E+00  0.00000000000E+00  0.39999999674E+01  0.40000000000E+01  0.51100000000E-03 0.  1.
    9000002   -1    0    0    0    0 -0.00000000000E+00 -0.00000000000E+00  0.00000000000E+00  0.93800000000E+00  0.93800000000E+00 0.  1.
         11    1    1    2    0    0  0.17601638826E-01 -0.59027947877E-01  0.86373508185E+00  0.86592878983E+00  0.51100000000E-03 0.  1.
    9000002    1    1    2    0    0 -0.33778712229E-02  0.45762848116E+00  0.14427140792E+00  0.10536097361E+01  0.93800000000E+00 0.  1.
         22    1    1    2    0    0 -0.14223767603E-01 -0.39860053328E+00  0.29919934776E+01  0.30184614741E+01  0.00000000000E+00 0.  1.
</event>
<event>
 5    1  0.3241783E+002  0.1596452E+01  0.7818608E-02  0.3357223E+00
         11   -1    0    0    0    0  0.00000000000E+00  0.00000000000E+00  0.39999999674E+01  0.40000000000E+01  0.51100000000E-03 0. -1.
    9000002   -1    0    0    0    0 -0.00000000000E+00 -0.00000000000E+00  0.00000000000E+00  0.93800000000E+00  0.93800000000E+00 0.  1.
         11    1    1    2    0    0  0.15692656745E+00 -0.12813713590E+00  0.12650506082E+01  0.12811707050E+01  0.51100000000E-03 0. -1.
    9000002    1    1    2    0    0 -0.43722765704E+00  0.19724702429E+00  0.15983450972E+00  0.10655822273E+01  0.93800000000E+00 0.  1.
         22    1    1    2    0    0  0.28030108959E+00 -0.69109888382E-01  0.25751148495E+01  0.25912470676E+01  0.00000000000E+00 0. -1.
</event>
<event>
 5    1  0.3241783E+002  0.1567815E+01  0.7818608E-02  0.3389054E+00
         11   -1    0    0    0    0  0.00000000000E+00  0.00000000000E+00  0.39999999674E+01  0.40000000000E+01  0.51100000000E-03 0. -1.
    9000002   -1    0    0    0    0 -0.00000000000E+00 -0.00000000000E+00  0.00000000000E+00  0.93800000000E+00  0.93800000000E+00 0. -1.
         11    1    1    2    0    0 -0.28849693192E+00  0.24606934056E+00  0.97221752261E+00  0.10435457692E+01  0.51100000000E-03 0. -1.
    9000002    1    1    2    0    0  0.43047287482E+00 -0.56450684868E+00  0.39830161934E+00  0.12419593625E+01  0.93800000000E+00 0. -1.
         22    1    1    2    0    0 -0.14197594290E+00  0.31843750812E+00  0.26294808254E+01  0.26524948683E+01  0.00000000000E+00 0. -1.
</event>
<event>
 5    1  0.3241783E+002  0.1587206E+01  0.7818608E-02  0.3367368E+00
         11   -1    0    0    0    0  0.00000000000E+00  0.00000000000E+00  0.39999999674E+01  0.40000000000E+01  0.51100000000E-03 0.  1.
    9000002   -1    0    0    0    0 -0.00000000000E+00 -0.00000000000E+00  0.00000000000E+00  0.93800000000E+00  0.93800000000E+00 0.  1.
         11    1    1    2    0    0 -0.65763583107E-01 -0.28798764819E-01  0.12449784309E+01  0.12470468204E+01  0.51100000000E-03 0.  1.
    9000002    1    1    2    0    0 -0.77631372295E-01 -0.18291588733E+00  0.35538289513E-01  0.95947476352E+00  0.93800000000E+00 0.  1.
         22    1    1    2    0    0  0.14339495540E+00  0.21171465215E+00  0.27194832469E+01  0.27314784161E+01  0.00000000000E+00 0. -1.
</event>
<event>
 5    1  0.3241783E+002  0.1569103E+01  0.7818608E-02  0.3387596E+00
         11   -1    0    0    0    0  0.00000000000E+00  0.00000000000E+00  0.39999999674E+01  0.40000000000E+01  0.51100000000E-03 0. -1.
    9000002   -1    0    0    0    0 -0.00000000000E+00 -0.00000000000E+00  0.00000000000E+00  0.93800000000E+00  0.93800000000E+00 0.  1.
         11    1    1    2    0    0 -0.53243249473E-01  0.86256071722E-01  0.14202826936E+01  0.14238954120E+01  0.51100000000E-03 0. -1.
    9000002    1    1    2    0    0 -0.22480517676E+00  0.17903765560E+00  0.79202693168E-01  0.98423011345E+00  0.93800000000E+00 0.  1.
         22    1    1    2    0    0  0.27804842624E+00 -0.26529372732E+00  0.25005145806E+01  0.25298744745E+01  0.00000000000E+00 0. -1.
</event>
<event>
 5    1  0.3241783E+002  0.1599676E+01  0.7818608E-02  0.3353715E+00
         11   -1    0    0    0    0  0.00000000000E+00  0.00000000000E+00  0.39999999674E+01  0.40000000000E+01  0.51100000000E-03 0.  1.
    9000002   -1    0    0    0    0 -0.00000000000E+00 -0.00000000000E+00  0.00000000000E+00  0.93800000000E+00  0.93800000000E+00 0.  1.
         11    1    1    2    0    0 -0.65524207891E-01 -0.21071752445E-01  0.95160584582E+00  0.95409191774E+00  0.51100000000E-03 0.  1.
    9000002    1    1    2    0    0  0.27222219010E+00  0.84003777327E-01  0.54070357244E-01  0.98179894017E+00  0.93800000000E+00 0.  1.
         22    1    1    2    0    0 -0.20669798221E+00 -0.62932024882E-01  0.29943237643E+01  0.30021091421E+01  0.00000000000E+00 0.  1.
</event>
<event>
 5    1  0.3241783E+002  0.1599550E+01  0.7818608E-02  0.3353852E+00
         11   -1    0    0    0    0  0.00000000000E+00  0.00000000000E+00  0.39999999674E+01  0.40000000000E+01  0.51100000000E-03 0. -1.
    9000002   -1    0    0    0    0 -0.00000000000E+00 -0.00000000000E+00  0.00000000000E+00  0.93800000000E+00  0.93800000000E+00 0. -1.
         11    1    1    2    0    0  0.83979714889E-01 -0.46295914296E-01  0.62434076747E+00  0.63166253589E+00  0.51100000000E-03 0. -1.
    9000002    1    1    2    0    0 -0.52737402720E+00  0.33162343969E+00  0.27227396627E+00  0.11584794271E+01  0.93800000000E+00 0. -1.
         22    1    1    2    0    0  0.44339431231E+00 -0.28532752539E+00  0.31033852336E+01  0.31478580370E+01  0.00000000000E+00 0. -1.
</event>
<event>
 5    1  0.3241783E+002  0.1599675E+01  0.7818608E-02  0.3353716E+00
         11   -1    0    0    0    0  0.00000000000E+00  0.00000000000E+00  0.39999999674E+01  0.40000000000E+01  0.51100000000E-03 0. -1.
    9000002   -1    0    0    0    0 -0.00000000000E+00 -0.00000000000E+00  0.00000000000E+00  0.93800000000E+00  0.93800000000E+00 0.  1.
         11    1    1    2    0    0 -0.70203469891E-01  0.19460531452E+00  0.17981346306E+01  0.18099967311E+01  0.51100000000E-03 0. -1.
    9000002    1    1    2    0    0  0.15414266791E+00 -0.41798246609E+00  0.13470964942E+00  0.10471198564E+01  0.93800000000E+00 0.  1.
         22    1    1    2    0    0 -0.83939198016E-01  0.22337715157E+00  0.20671556873E+01  0.20808834125E+01  0.00000000000E+00 0. -1.
</event>
<event>
 5    1  0.3241783E+002  0.1598807E+01  0.7818608E-02  0.3354659E+00
         11   -1    0    0    0    0  0.00000000000E+00  0.00000000000E+00  0.39999999674E+01  0.40000000000E+01  0.51100000000E-03 0. -1.
    9000002   -1    0    0    0    0 -0.00000000000E+00 -0.00000000000E+00  0.00000000000E+00  0.93800000000E+00  0.93800000000E+00 0. -1.
         11    1    1    2    0    0  0.18660022869E-01  0.27488142353E-01  0.74243269883E+00  0.74317586603E+00  0.51100000000E-03 0. -1.
    9000002    1    1    2    0    0 -0.23234959844E+00 -0.20826393705E+00  0.65709890699E-01  0.99071791803E+00  0.93800000000E+00 0. -1.
         22    1    1    2    0    0  0.21368957557E+00  0.18077579470E+00  0.31918573778E+01  0.32041062159E+01  0.00000000000E+00 0. -1.
</event>
<event>
 5    1  0.3241783E+002  0.1599352E+01  0.7818608E-02  0.3354067E+00
         11   -1    0    0    0    0  0.00000000000E+00  0.00000000000E+00  0.39999999674E+01  0.40000000000E+01  0.51100000000E-03 0.  1.
    9000002   -1    0    0    0    0 -0.00000000000E+00 -0.00000000000E+00  0.00000000000E+00  0.93800000000E+00  0.93800000000E+00 0. -1.
         11    1    1    2    0    0  0.10289495114E-01 -0.38127148926E-01  0.49586069068E+00  0.49743103932E+00  0.51100000000E-03 0.  1.
    9000002    1    1    2    0    0 -0.13689215024E+00  0.20356840392E+00  0.40210689612E-01  0.97038160299E+00  0.93800000000E+00 0. -1.
         22    1    1    2    0    0  0.12660265513E+00 -0.16544125499E+00  0.34639285871E+01  0.34701873577E+01  0.00000000000E+00 0.  1.
</event>
<event>
 5    1  0.3241783E+002  0.1597427E+01  0.7818608E-02  0.3356161E+00
         11   -1    0    0    0    0  0.00000000000E+00  0.00000000000E+00  0.39999999674E+01  0.40000000000E+01  0.51100000000E-03 0.  1.
    9000002   -1    0    0    0    0 -0.00000000000E+00 -0.00000000000E+00  0.00000000000E+00  0.93800000000E+00  0.93800000000E+00 0.  1.
         11    1    1    2    0    0 -0.69133511606E-01 -0.48883759408E-01  0.17632467927E+01  0.17652786119E+01  0.51100000000E-03 0.  1.
    9000002    1    1    2    0    0  0.27471677381E+00  0.67384687633E-01  0.55040826861E-01  0.98126627098E+00  0.93800000000E+00 0.  1.
         22    1    1    2    0    0 -0.20558326220E+00 -0.18500928225E-01  0.21817123478E+01  0.21914551171E+01  0.00000000000E+00 0.  1.
</event>
<event>
 5    1  0.3241783E+002  0.1599676E+01  0.7818608E-02  0.3353715E+00
         11   -1    0    0    0    0  0.00000000000E+00  0.00000000000E+00  0.39999999674E+01  0.40000000000E+01  0.51100000000E-03 0.  1.
    9000002   -1    0    0    0    0 -0.00000000000E+00 -0.00000000000E+00  0.00000000000E+00  0.93800000000E+00  0.93800000000E+00 0.  1.
         11    1    1    2    0    0  0.17278742509E-01 -0.18992749213E-01  0.40620562270E+00  0.40701664401E+00  0.51100000000E-03 0.  1.
    9000002    1    1    2    0    0 -0.16589199400E+00  0.17938061462E+00  0.39640336061E-01  0.97010974370E+00  0.93800000000E+00 0.  1.
         22    1    1    2    0    0  0.14861325149E+00 -0.16038786541E+00  0.35541540086E+01  0.35608736123E+01  0.00000000000E+00 0.  1.
</event>
<event>
 5    1  0.3241783E+002  0.1594887E+01  0.7818608E-02  0.3358931E+00
         11   -1    0    0    0    0  0.00000000000E+00  0.00000000000E+00  0.39999999674E+01  0.40000000000E+01  0.51100000000E-03 0. -1.
    9000002   -1    0    0    0    0 -0.00000000000E+00 -0.00000000000E+00  0.00000000000E+00  0.93800000000E+00  0.93800000000E+00 0. -1.
         11    1    1    2    0    0 -0.28250063978E+00 -0.86980491002E-01  0.26503968019E+01  0.26668287695E+01  0.51100000000E-03 0. -1.
    9000002    1    1    2    0    0  0.51557716568E+00  0.13506607469E+00  0.20004211874E+00  0.10972344816E+01  0.93800000000E+00 0. -1.
         22    1    1    2    0    0 -0.23307652589E+00 -0.48085583691E-01  0.11495610468E+01  0.11739367489E+01  0.00000000000E+00 0. -1.
</event>
<event>
 5    1  0.3241783E+002  0.1598946E+01  0.7818608E-02  0.3354508E+00
         11   -1    0    0    0    0  0.00000000000E+00  0.00000000000E+00  0.39999999674E+01  0.40000000000E+01  0.51100000000E-03 0. -1.
    9000002   -1    0    0    0    0 -0.00000000000E+00 -0.00000000000E+00  0.00000000000E+00  0.93800000000E+00  0.93800000000E+00 0. -1.
         11    1    1    2    0    0  0.73579802643E-02  0.56129957614E-02  0.10305434128E+00  0.10347030478E+00  0.51100000000E-03 0. -1.
    9000002    1    1    2    0    0  0.11381867686E+00 -0.18727654426E+00  0.32385564172E-01  0.96380496990E+00  0.93800000000E+00 0. -1.
         22    1    1    2    0    0 -0.12117665713E+00  0.18166354849E+00  0.38645600619E+01  0.38707247253E+01  0.00000000000E+00 0. -1.
</event>
<event>
 5    1  0.3241783E+002  0.1524333E+01  0.7818608E-02  0.3439819E+00
         11   -1    0    0    0    0  0.00000000000E+00  0.00000000000E+00  0.39999999674E+01  0.40000000000E+01  0.51100000000E-03 0. -1.
    9000002   -1    0    0    0    0 -0.00000000000E+00 -0.00000000000E+00  0.00000000000E+00  0.93800000000E+00  0.93800000000E+00 0.  1.
         11    1    1    2    0    0 -0.34033124642E+00 -0.18315831581E+00  0.22055739550E+01  0.22391804434E+01  0.51100000000E-03 0. -1.
    9000002    1    1    2    0    0  0.35319458105E-01  0.20410418524E+00  0.87327560531E-01  0.96456004758E+00  0.93800000000E+00 0.  1.
         22    1    1    2    0    0  0.30501178831E+00 -0.20945869429E-01  0.17070984518E+01  0.17342595090E+01  0.00000000000E+00 0. -1.
</event>
<event>
 5    1  0.3241783E+002  0.1489947E+01  0.7818608E-02  0.3482217E+00
         11   -1    0    0    0    0  0.00000000000E+00  0.00000000000E+00  0.39999999674E+01  0.40000000000E+01  0.51100000000E-03 0. -1.
    9000002   -1    0    0    0    0 -0.00000000000E+00 -0.00000000000E+00  0.00000000000E+00  0.93800000000E+00  0.93800000000E+00 0.  1.
         11    1    1    2    0    0 -0.56632387038E-01 -0.18486126211E+00  0.10210306531E+01  0.10391750426E+01  0.51100000000E-03 0. -1.
    9000002    1    1    2    0    0 -0.69216008531E+00 -0.23913619693E+00  0.52929207146E+00  0.13024076940E+01  0.93800000000E+00 0.  1.
         22    1    1    2    0    0  0.74879247235E+00  0.42399745905E+00  0.24496772428E+01  0.25964172634E+01  0.00000000000E+00 0.  1.
</event>
<event>
 5    1  0.3241783E+002  0.1589165E+01  0.7818608E-02  0.3365208E+00
         11   -1    0    0    0    0  0.00000000000E+00  0.00000000000E+00  0.39999999674E+01  0.40000000000E+01  0.51100000000E-03 0. -1.
    9000002   -1    0    0    0    0 -0.00000000000E+00 -0.00000000000E+00  0.00000000000E+00  0.93800000000E+00  0.93800000000E+00 0. -1.
         11    1    1    2    0    0  0.80669071840E-02  0.28238942008E-01  0.63082390845E-01  0.69585645020E-01  0.51100000000E-03 0. -1.
    9000002    1    1    2    0    0 -0.13687554791E+00  0.17115979859E+00  0.39811260238E-01  0.96408481407E+00  0.93800000000E+00 0. -1.
         22    1    1    2    0    0  0.12880864073E+00 -0.19939874060E+00  0.38971063163E+01  0.39043295409E+01  0.00000000000E+00 0. -1.
</event>
<event>
 5    1  0.3241783E+002  0.1573519E+01  0.7818608E-02  0.3382616E+00
         11   -1    0    0    0    0  0.00000000000E+00  0.00000000000E+00  0.39999999674E+01  0.40000000000E+01  0.51100000000E-03 0. -1.
    9000002   -1    0    0    0    0 -0.00000000000E+00 -0.00000000000E+00  0.00000000000E+00  0.93800000000E+00  0.93800000000E+00 0. -1.
         11    1    1    2    0    0 -0.55583084605E-01 -0.11145525386E+00  0.28260843028E+01  0.28288274074E+01  0.51100000000E-03 0. -1.
    9000002    1    1    2    0    0 -0.12260853641E+00  0.10452274852E-01  0.29421619666E-01  0.94649444528E+00  0.93800000000E+00 0. -1.
         22    1    1    2    0    0  0.17819162102E+00  0.10100297901E+00  0.11444940448E+01  0.11626781473E+01  0.00000000000E+00 0. -1.
</event>
<event>
 5    1  0.3241783E+002  0.1599670E+01  0.7818608E-02  0.3353722E+00
         11   -1    0    0    0    0  0.00000000000E+00  0.00000000000E+00  0.39999999674E+01  0.40000000000E+01  0.51100000000E-03 0. -1.
    9000002   -1    0    0    0    0 -0.00000000000E+00 -0.00000000000E+00  0.00000000000E+00  0.93800000000E+00  0.93800000000E+00 0. -1.
         11    1    1    2    0    0  0.19492631486E-01 -0.22321815031E-01  0.39396674781E+00  0.39508010025E+00  0.51100000000E-03 0. -1.
    9000002    1    1    2    0    0 -0.17974355182E+00  0.21325793584E+00  0.51799941270E-01  0.97995608347E+00  0.93800000000E+00 0. -1.
         22    1    1    2    0    0  0.16025092033E+00 -0.19093612081E+00  0.35542332783E+01  0.35629638163E+01  0.00000000000E+00 0. -1.
</event>
<event>
 5    1  0.3241783E+002  0.1599670E+01  0.7818608E-02  0.3353721E+00
         11   -1    0    0    0    0  0.00000000000E+00  0.00000000000E+00  0.39999999674E+01  0.40000000000E+01  0.51100000000E-03 0.  1.
    9000002   -1    0    0    0    0 -0.00000000000E+00 -0.00000000000E+00  0.00000000000E+00  0.93800000000E+00  0.93800000000E+00 0. -1.
         11    1    1    2    0    0 -0.25809922606E-01 -0.89415320054E-02  0.28443650734E+00  0.28574550028E+00  0.51100000000E-03 0.  1.
    9000002    1    1    2    0    0  0.37491424830E+00  0.12081583361E+00  0.10458099543E+00  0.10227112710E+01  0.93800000000E+00 0. -1.
         22    1    1    2    0    0 -0.34910432570E+00 -0.11187430161E+00  0.36109824646E+01  0.36295432287E+01  0.00000000000E+00 0.  1.
</event>
<event>
 5    1  0.3241783E+002  0.1599671E+01  0.7818608E-02  0.3353720E+00
         11   -1    0    0    0    0  0.00000000000E+00  0.00000000000E+00  0.39999999674E+01  0.40000000000E+01  0.51100000000E-03 0. -1.
    9000002   -1    0    0    0    0 -0.00000000000E+00 -0.00000000000E+00  0.00000000000E+00  0.93800000000E+00  0.93800000000E+00 0.  1.
         11    1    1    2    0    0 -0.55914179930E-01  0.69799839167E-01  0.11850410298E+01  0.11884110890E+01  0.51100000000E-03 0. -1.
    9000002    1    1    2    0    0  0.18926214755E+00 -0.24011024523E+00  0.62395265575E-01  0.98853945775E+00  0.93800000000E+00 0.  1.
         22    1    1    2    0    0 -0.13334796762E+00  0.17031040607E+00  0.27525636720E+01  0.27610494532E+01  0.00000000000E+00 0.  1.
</event>
<event>
 5    1  0.3241783E+002  0.1535880E+01  0.7818608E-02  0.3426040E+00
         11   -1    0    0    0    0  0.00000000000E+00  0.00000000000E+00  0.39999999674E+01  0.40000000000E+01  0.51100000000E-03 0.  1.
    9000002   -1    0    0    0    0 -0.00000000000E+00 -0.00000000000E+00  0.00000000000E+00  0.93800000000E+00  0.93800000000E+00 0.  1.
         11    1    1    2    0    0  0.16168693690E+00  0.28709310536E+00  0.87940438777E+00  0.93910460283E+00  0.51100000000E-03 0.  1.
    9000002    1    1    2    0    0 -0.45719650454E+00 -0.14219234988E+00  0.21517320793E+00  0.10748910724E+01  0.93800000000E+00 0.  1.
         22    1    1    2    0    0  0.29550956764E+00 -0.14490075548E+00  0.29054223717E+01  0.29240043248E+01  0.00000000000E+00 0.  1.
</event>
<event>
 5    1  0.3241783E+002  0.1599648E+01  0.7818608E-02  0.3353745E+00
         11   -1    0    0    0    0  0.00000000000E+00  0.00000000000E+00  0.39999999674E+01  0.40000000000E+01  0.51100000000E-03 0.  1.
    9000002   -1    0    0    0    0 -0.00000000000E+00 -0.00000000000E+00  0.00000000000E+00  0.93800000000E+00  0.93800000000E+00 0.  1.
         11    1    1    2    0    0  0.63746417177E-01 -0.17872685479E+00  0.16997297356E+01  0.17102889609E+01  0.51100000000E-03 0.  1.
    9000002    1    1    2    0    0 -0.15604622423E+00  0.39768166623E+00  0.12357259840E+00  0.10380825202E+01  0.93800000000E+00 0.  1.
         22    1    1    2    0    0  0.92299807051E-01 -0.21895481144E+00  0.21766976333E+01  0.21896285189E+01  0.00000000000E+00 0.  1.
</event>
<event>
 5    1  0.3241783E+002  0.1599674E+01  0.7818608E-02  0.3353718E+00
         11   -1    0    0    0    0  0.00000000000E+00  0.00000000000E+00  0.39999999674E+01  0.40000000000E+01  0.51100000000E-03 0. -1.
    9000002   -1    0    0    0    0 -0.00000000000E+00 -0.00000000000E+00  0.00000000000E+00  0.93800000000E+00  0.93800000000E+00 0.  1.
         11    1    1    2    0    0 -0.11032329981E+00  0.24535939300E+00  0.20003229915E+01  0.20183321812E+01  0.51100000000E-03 0. -1.
    9000002    1    1    2    0    0  0.20699037365E+00 -0.46682558123E+00  0.17883945729E+00  0.10828659610E+01  0.93800000000E+00 0.  1.
         22    1    1    2    0    0 -0.96667073840E-01  0.22146618823E+00  0.18208375185E+01  0.18368018577E+01  0.00000000000E+00 0. -1.
</event>
<event>
 5    1  0.3241783E+002  0.1583473E+01  0.7818608E-02  0.3371499E+00
         11   -1    0    0    0    0  0.00000000000E+00  0.00000000000E+00  0.39999999674E+01  0.40000000000E+01  0.51100000000E-03 0. -1.
    9000002   -1    0    0    0    0 -0.00000000000E+00 -0.00000000000E+00  0.00000000000E+00  0.93800000000E+00  0.93800000000E+00 0. -1.
         11    1    1    2    0    0  0.58424032973E-01 -0.17912214739E+00  0.21296371700E+01  0.21379552962E+01  0.51100000000E-03 0. -1.
    9000002    1    1    2    0    0  0.20543112084E-01  0.55850845466E+00  0.23170877815E+00  0.11161929364E+01  0.93800000000E+00 0. -1.
         22    1    1    2    0    0 -0.78967145057E-01 -0.37938630727E+00  0.16386540192E+01  0.16838517674E+01  0.00000000000E+00 0. -1.
</event>
<event>
 5    1  0.3241783E+002  0.1489146E+01  0.7818608E-02  0.3483230E+00
         11   -1    0    0    0    0  0.00000000000E+00  0.00000000000E+00  0.39999999674E+01  0.40000000000E+01  0.51100000000E-03 0.  1.
    9000002   -1    0    0    0    0 -0.00000000000E+00 -0.00000000000E+00  0.00000000000E+00  0.93800000000E+00  0.93800000000E+00 0. -1.
         11    1    1    2    0    0  0.81953185566E-01 -0.31560407311E+00  0.28480570233E+01  0.28666620528E+01  0.51100000000E-03 0.  1.
    9000002    1    1    2    0    0  0.27007802058E+00  0.13612478799E+00  0.15335687231E+00  0.99741386866E+00  0.93800000000E+00 0. -1.
         22    1    1    2    0    0 -0.35203120614E+00  0.17947928512E+00  0.99858607170E+00  0.10739240785E+01  0.00000000000E+00 0. -1.
</event>
<event>
 5    1  0.3241783E+002  0.1589173E+01  0.7818608E-02  0.3365199E+00
         11   -1    0    0    0    0  0.00000000000E+00  0.00000000000E+00  0.39999999674E+01  0.40000000000E+01  0.51100000000E-03 0. -1.
    9000002   -1    0    0    0    0 -0.00000000000E+00 -0.00000000000E+00  0.00000000000E+00  0.93800000000E+00  0.93800000000E+00 0.  1.
         11    1    1    2    0    0 -0.18157967792E-01  0.30056754578E-02  0.18001025993E-01  0.25749639553E-01  0.51100000000E-03 0. -1.
    9000002    1    1    2    0    0  0.97197906722E-01  0.57954070996E+00  0.25067608093E+00  0.11348997159E+01  0.93800000000E+00 0.  1.
         22    1    1    2    0    0 -0.79039938931E-01 -0.58254638542E+00  0.37313228604E+01  0.37773506446E+01  0.00000000000E+00 0. -1.
</event>
<event>
 5    1  0.3241783E+002  0.1599676E+01  0.7818608E-02  0.3353715E+00
         11   -1    0    0    0    0  0.00000000000E+00  0.00000000000E+00  0.39999999674E+01  0.40000000000E+01  0.51100000000E-03 0.  1.
    9000002   -1    0    0    0    0 -0.00000000000E+00 -0.00000000000E+00  0.00000000000E+00  0.93800000000E+00  0.93800000000E+00 0.  1.
         11    1    1    2    0    0 -0.23316650883E+00  0.13103240770E+00  0.21439985262E+01  0.21606170541E+01  0.51100000000E-03 0.  1.
    9000002    1    1    2    0    0  0.41964135685E+00 -0.23582416675E+00  0.15813661942E+00  0.10660971327E+01  0.93800000000E+00 0.  1.
         22    1    1    2    0    0 -0.18647484802E+00  0.10479175905E+00  0.16978648217E+01  0.17112858132E+01  0.00000000000E+00 0. -1.
</event>
<event>
 5    1  0.3241783E+002  0.1578711E+01  0.7818608E-02  0.3376799E+00
         11   -1    0    0    0    0  0.00000000000E+00  0.00000000000E+00  0.39999999674E+01  0.40000000000E+01  0.51100000000E-03 0. -1.
    9000002   -1    0    0    0    0 -0.00000000000E+00 -0.00000000000E+00  0.00000000000E+00  0.93800000000E+00  0.93800000000E+00 0.  1.
         11    1    1    2    0    0  0.50918425109E-02  0.39769714134E-01  0.22889489950E+01  0.22893001813E+01  0.51100000000E-03 0. -1.
    9000002    1    1    2    0    0 -0.14848272602E+00 -0.32599739528E+00  0.10328680355E+00  0.10093728674E+01  0.93800000000E+00 0.  1.
         22    1    1    2    0    0  0.14339088351E+00  0.28622768114E+00  0.16077641688E+01  0.16393269513E+01  0.00000000000E+00 0.  1.
</event>
<event>
 5    1  0.3241783E+002  0.1599642E+01  0.7818608E-02  0.3353752E+00
         11   -1    0    0    0    0  0.00000000000E+00  0.00000000000E+00  0.39999999674E+01  0.40000000000E+01  0.51100000000E-03 0. -1.
    9000002   -1    0    0    0    0 -0.00000000000E+00 -0.00000000000E+00  0.00000000000E+00  0.93800000000E+00  0.93800000000E+00 0.  1.
         11    1    1    2    0    0  0.14728086907E-02 -0.53453606231E-03  0.17074976803E-01  0.17154324472E-01  0.51100000000E-03 0.  1.
    9000002    1    1    2    0    0 -0.20425068418E+00  0.80705562604E-02  0.27694812610E-01  0.96041370175E+00  0.93800000000E+00 0.  1.
         22    1    1    2    0    0  0.20277787548E+00 -0.75360201981E-02  0.39552301779E+01  0.39604319738E+01  0.00000000000E+00 0. -1.
</event>
<event>
 5    1  0.3241783E+002  0.1599674E+01  0.7818608E-02  0.3353717E+00
         11   -1    0    0    0    0  0.00000000000E+00  0.00000000000E+00  0.39999999674E+01  0.40000000000E+01  0.51100000000E-03 0.  1.
    9000002   -1    0    0    0    0 -0.00000000000E+00 -0.00000000000E+00  0.00000000000E+00  0.93800000000E+00  0.93800000000E+00 0. -1.
         11    1    1    2    0    0  0.35404189826E-01 -0.95644328657E-01  0.12260172774E+01  0.12302519741E+01  0.51100000000E-03 0.  1.
    9000002    1    1    2    0    0 -0.10773871790E+00  0.30403659315E+00  0.69564663016E-01  0.99434859262E+00  0.93800000000E+00 0. -1.
         22    1    1    2    0    0  0.72334528073E-01 -0.20839226450E+00  0.27044180270E+01  0.27133994333E+01  0.00000000000E+00 0.  1.
</event>
<event>
 5    1  0.3241783E+002  0.1599676E+01  0.7818608E-02  0.3353715E+00
         11   -1    0    0    0    0  0.00000000000E+00  0.00000000000E+00  0.39999999674E+01  0.40000000000E+01  0.51100000000E-03 0.  1.
    9000002   -1    0    0    0    0 -0.00000000000E+00 -0.00000000000E+00  0.00000000000E+00  0.93800000000E+00  0.93800000000E+00 0.  1.
         11    1    1    2    0    0 -0.43721369007E-02 -0.17017739266E+00  0.18022858130E+01  0.18103076736E+01  0.51100000000E-03 0.  1.
    9000002    1    1    2    0    0  0.78534983045E-02  0.37020037133E+00  0.92146755439E-01  0.10126425909E+01  0.93800000000E+00 0.  1.
         22    1    1    2    0    0 -0.34813614038E-02 -0.20002297866E+00  0.21055673990E+01  0.21150497355E+01  0.00000000000E+00 0. -1.
</event>
<event>
 5    1  0.3241783E+002  0.1544793E+01  0.7818608E-02  0.3415553E+00
         11   -1    0    0    0    0  0.00000000000E+00  0.00000000000E+00  0.39999999674E+01  0.40000000000E+01  0.51100000000E-03 0. -1.
    9000002   -1    0    0    0    0 -0.00000000000E+00 -0.00000000000E+00  0.00000000000E+00  0.93800000000E+00  0.93800000000E+00 0. -1.
         11    1    1    2    0    0  0.63050605614E-01  0.36488294477E+00  0.21933527966E+01  0.22243901847E+01  0.51100000000E-03 0. -1.
    9000002    1    1    2    0    0 -0.51314090428E-02 -0.16397412032E+00  0.59607300920E-01  0.95410212966E+00  0.93800000000E+00 0. -1.
         22    1    1    2    0    0 -0.57919196571E-01 -0.20090882445E+00  0.17470398699E+01  0.17595076857E+01  0.00000000000E+00 0. -1.
</event>
<event>
 5    1  0.3241783E+002  0.1545629E+01  0.7818608E-02  0.3414576E+00
         11   -1    0    0    0    0  0.00000000000E+00  0.00000000000E+00  0.39999999674E+01  0.40000000000E+01  0.51100000000E-03 0. -1.
    9000002   -1    0    0    0    0 -0.00000000000E+00 -0.00000000000E+00  0.00000000000E+00  0.93800000000E+00  0.93800000000E+00 0.  1.
         11    1    1    2    0    0 -0.12670359992E+00  0.17555689461E+00  0.20652949375E+01  0.20766120161E+01  0.51100000000E-03 0. -1.
    9000002    1    1    2    0    0  0.82200247889E-01  0.17391087352E+00  0.66029296451E-01  0.95979463463E+00  0.93800000000E+00 0.  1.
         22    1    1    2    0    0  0.44503352031E-01 -0.34946776813E+00  0.18686757334E+01  0.19015933493E+01  0.00000000000E+00 0. -1.
</event>
<event>
 5    1  0.3241783E+002  0.1599034E+01  0.7818608E-02  0.3354413E+00
         11   -1    0    0    0    0  0.00000000000E+00  0.00000000000E+00  0.39999999674E+01  0.40000000000E+01  0.51100000000E-03 0.  1.
    9000002   -1    0    0    0    0 -0.00000000000E+00 -0.00000000000E+00  0.00000000000E+00  0.93800000000E+00  0.93800000000E+00 0.  1.
         11    1    1    2    0    0  0.68205307593E-01 -0.31582484288E-01  0.57434055868E+00  0.57923808210E+00  0.51100000000E-03 0.  1.
    9000002    1    1    2    0    0 -0.31577635539E+00  0.21446828680E+00  0.98589464938E-01  0.10174847592E+01  0.93800000000E+00 0.  1.
         22    1    1    2    0    0  0.24757104780E+00 -0.18288580251E+00  0.33270699437E+01  0.33412771587E+01  0.00000000000E+00 0.  1.
</event>
<event>
 5    1  0.3241783E+002  0.1599677E+01  0.7818608E-02  0.3353714E+00
         11   -1    0    0    0    0  0.00000000000E+00  0.00000000000E+00  0.39999999674E+01  0.40000000000E+01  0.51100000000E-03 0.  1.
    9000002   -1    0    0    0    0 -0.00000000000E+00 -0.00000000000E+00  0.00000000000E+00  0.93800000000E+00  0.93800000000E+00 0.  1.
         11    1    1    2    0    0 -0.53973327562E+00  0.36310402902E-01  0.10726177801E+01  0.12013074616E+01  0.51100000000E-03 0.  1.
    9000002    1    1    2    0    0  0.12335295010E+01 -0.83100204572E-01  0.15480189379E+01  0.21919642575E+01  0.93800000000E+00 0. -1.
         22    1    1    2    0    0 -0.69379622543E+00  0.46789801671E-01  0.13793632494E+01  0.15447282809E+01  0.00000000000E+00 0.  1.
</event>
<event>
 5    1  0.3241783E+002  0.1590580E+01  0.7818608E-02  0.3363651E+00
         11   -1    0    0    0    0  0.00000000000E+00  0.00000000000E+00  0.39999999674E+01  0.40000000000E+01  0.51100000000E-03 0. -1.
    9000002   -1    0    0    0    0 -0.00000000000E+00 -0.00000000000E+00  0.00000000000E+00  0.93800000000E+00  0.93800000000E+00 0.  1.
         11    1    1    2    0    0  0.19943670516E-02 -0.22155692611E-01  0.92437941409E-01  0.95078316918E-01  0.51100000000E-03 0. -1.
    9000002    1    1    2    0    0  0.35100689747E+00 -0.47992256953E+00  0.25542075472E+00  0.11395680220E+01  0.93800000000E+00 0.  1.
         22    1    1    2    0    0 -0.35300126452E+00  0.50207826214E+00  0.36521412712E+01  0.37033536611E+01  0.00000000000E+00 0. -1.
</event>
<event>
 5    1  0.3241783E+002  0.1589599E+01  0.7818608E-02  0.3364730E+00
         11   -1    0    0    0    0  0.00000000000E+00  0.00000000000E+00  0.39999999674E+01  0.40000000000E+01  0.51100000000E-03 0.  1.
    9000002   -1    0    0    0    0 -0.00000000000E+00 -0.00000000000E+00  0.00000000000E+00  0.93800000000E+00  0.93800000000E+00 0.  1.
         11    1    1    2    0    0  0.24556906151E-01 -0.48915728597E-01  0.25954555670E+00  0.26525449529E+00  0.51100000000E-03 0.  1.
    9000002    1    1    2    0    0 -0.31402411670E+00 -0.16974361728E+00  0.93700324510E-01  0.10079919604E+01  0.93800000000E+00 0.  1.
         22    1    1    2    0    0  0.28946721055E+00  0.21865934588E+00  0.36467540861E+01  0.36647535443E+01  0.00000000000E+00 0.  1.
</event>
<event>
 5    1  0.3241783E+002  0.1599675E+01  0.7818608E-02  0.3353716E+00
         11   -1    0    0    0    0  0.00000000000E+00  0.00000000000E+00  0.39999999674E+01  0.40000000000E+01  0.51100000000E-03 0. -1.
    9000002   -1    0    0    0    0 -0.00000000000E+00 -0.00000000000E+00  0.00000000000E+00  0.93800000000E+00  0.93800000000E+00 0.  1.
         11    1    1    2    0    0 -0.96114798306E-01 -0.73734821606E-01  0.10925082599E+01  0.10992040017E+01  0.51100000000E-03 0. -1.
    9000002    1    1    2    0    0  0.33646143351E+00  0.25913062715E+00  0.12205466730E+00  0.10368685162E+01  0.93800000000E+00 0.  1.
         22    1    1    2    0    0 -0.24034663520E+00 -0.18539580554E+00  0.27854370402E+01  0.28019274820E+01  0.00000000000E+00 0. -1.
</event>
<event>
 5    1  0.3241783E+002  0.1599651E+01  0.7818608E-02  0.3353742E+00
         11   -1    0    0    0    0  0.00000000000E+00  0.00000000000E+00  0.39999999674E+01  0.40000000000E+01  0.51100000000E-03 0.  1.
    9000002   -1    0    0    0    0 -0.00000000000E+00 -0.00000000000E+00  0.00000000000E+00  0.93800000000E+00  0.93800000000E+00 0.  1.
         11    1    1    2    0    0 -0.63175835249E-03 -0.43942619437E-03  0.82198798201E-02  0.82716237374E-02  0.51100000000E-03 0. -1.
    9000002    1    1    2    0    0  0.20476449195E+00  0.16666414042E+00  0.46375626358E-01  0.97555119373E+00  0.93800000000E+00 0.  1.
         22    1    1    2    0    0 -0.20413273360E+00 -0.16622471423E+00  0.39454044612E+01  0.39541771825E+01  0.00000000000E+00 0.  1.
</event>
<event>
 5    1  0.3241783E+002  0.1590865E+01  0.7818608E-02  0.3363339E+00
         11   -1    0    0    0    0  0.00000000000E+00  0.00000000000E+00  0.39999999674E+01  0.40000000000E+01  0.51100000000E-03 0. -1.
    9000002   -1    0    0    0    0 -0.00000000000E+00 -0.00000000000E+00  0.00000000000E+00  0.93800000000E+00  0.93800000000E+00 0. -1.
         11    1    1    2    0    0  0.47702926571E-01  0.68157598336E-01  0.57471680647E+00  0.58070706572E+00  0.51100000000E-03 0. -1.
    9000002    1    1    2    0    0  0.15089626740E+00 -0.20169535106E+00  0.48926384121E-01  0.97246516093E+00  0.93800000000E+00 0. -1.
         22    1    1    2    0    0 -0.19859919397E+00  0.13353775272E+00  0.33763567768E+01  0.33848277734E+01  0.00000000000E+00 0. -1.
</event>
<event>
 5    1  0.3241783E+002  0.1598923E+01  0.7818608E-02  0.3354534E+00
         11   -1    0    0    0    0  0.00000000000E+00  0.00000000000E+00  0.39999999674E+01  0.40000000000E+01  0.51100000000E-03 0.  1.
    9000002   -1    0    0    0    0 -0.00000000000E+00 -0.00000000000E+00  0.00000000000E+00  0.93800000000E+00  0.93800000000E+00 0.  1.
         11    1    1    2    0    0 -0.20961236803E+00 -0.32503769347E+00  0.21373281048E+01  0.21720401782E+01  0.51100000000E-03 0.  1.
    9000002    1    1    2    0    0  0.37143233683E+00  0.50887199246E+00  0.27954688959E+00  0.11640030709E+01  0.93800000000E+00 0.  1.
         22    1    1    2    0    0 -0.16181996880E+00 -0.18383429899E+00  0.15831249730E+01  0.16019567509E+01  0.00000000000E+00 0.  1.
</event>
<event>
 5    1  0.3241783E+002  0.1599668E+01  0.7818608E-02  0.3353724E+00
         11   -1    0    0    0    0  0.00000000000E+00  0.00000000000E+00  0.39999999674E+01  0.40000000000E+01  0.51100000000E-03 0.  1.
    9000002   -1    0    0    0    0 -0.00000000000E+00 -0.00000000000E+00  0.00000000000E+00  0.93800000000E+00  0.93800000000E+00 0. -1.
         11    1    1    2    0    0  0.17111960521E+00 -0.12878332749E-01  0.13954311290E+01  0.14059431239E+01  0.51100000000E-03 0.  1.
    9000002    1    1    2    0    0 -0.47325778773E+00  0.25969775812E-01  0.15314286727E+00  0.10620471273E+01  0.93800000000E+00 0. -1.
         22    1    1    2    0    0  0.30213818252E+00 -0.13091443063E-01  0.24514259711E+01  0.24700097488E+01  0.00000000000E+00 0.  1.
</event>
<event>
 5    1  0.3241783E+002  0.1597754E+01  0.7818608E-02  0.3355805E+00
         11   -1    0    0    0    0  0.00000000000E+00  0.00000000000E+00  0.39999999674E+01  0.40000000000E+01  0.51100000000E-03 0. -1.
    9000002   -1    0    0    0    0 -0.00000000000E+00 -0.00000000000E+00  0.00000000000E+00  0.93800000000E+00  0.93800000000E+00 0. -1.
         11    1    1    2    0    0 -0.38932849831E-01  0.55781083774E-01  0.90558151981E+00  0.90813294525E+00  0.51100000000E-03 0. -1.
    9000002    1    1    2    0    0  0.25533484780E+00 -0.69748322318E-01  0.48075431506E-01  0.97581553589E+00  0.93800000000E+00 0. -1.
         22    1    1    2    0    0 -0.21640199796E+00  0.13967238544E-01  0.30463430160E+01  0.30540515189E+01  0.00000000000E+00 0. -1.
</event>
<event>
 5    1  0.3241783E+002  0.1596769E+01  0.7818608E-02  0.3356878E+00
         11   -1    0    0    0    0  0.00000000000E+00  0.00000000000E+00  0.39999999674E+01  0.40000000000E+01  0.51100000000E-03 0. -1.
    9000002   -1    0    0    0    0 -0.00000000000E+00 -0.00000000000E+00  0.00000000000E+00  0.93800000000E+00  0.93800000000E+00 0. -1.
         11    1    1    2    0    0 -0.10150292776E+00 -0.21515036031E-01  0.63418249456E+00  0.64261453349E+00  0.51100000000E-03 0. -1.
    9000002    1    1    2    0    0  0.34960674905E+00  0.25389166414E-01  0.84735943550E-01  0.10049346590E+01  0.93800000000E+00 0. -1.
         22    1    1    2    0    0 -0.24810382128E+00 -0.38741303831E-02  0.32810815292E+01  0.32904508075E+01  0.00000000000E+00 0. -1.
</event>
<event>
 5    1  0.3241783E+002  0.1599532E+01  0.7818608E-02  0.3353871E+00
         11   -1    0    0    0    0  0.00000000000E+00  0.00000000000E+00  0.39999999674E+01  0.40000000000E+01  0.51100000000E-03 0.  1.
    9000002   -1    0    0    0    0 -0.00000000000E+00 -0.00000000000E+00  0.00000000000E+00  0.93800000000E+00  0.93800000000E+00 0. -1.
         11    1    1    2    0    0 -0.22125740933E-01  0.10222630902E-02  0.26281630972E+00  0.26374849234E+00  0.51100000000E-03 0.  1.
    9000002    1    1    2    0    0  0.42502326519E+00  0.28120232052E-01  0.12292863319E+00  0.10374926372E+01  0.93800000000E+00 0. -1.
         22    1    1    2    0    0 -0.40289752425E+00 -0.29142495142E-01  0.36142550245E+01  0.36367588705E+01  0.00000000000E+00 0.  1.
</event>
<event>
 5    1  0.3241783E+002  0.1599676E+01  0.7818608E-02  0.3353716E+00
         11   -1    0    0    0    0  0.00000000000E+00  0.00000000000E+00  0.39999999674E+01  0.40000000000E+01  0.51100000000E-03 0. -1.
    9000002   -1    0    0    0    0 -0.00000000000E+00 -0.00000000000E+00  0.00000000000E+00  0.93800000000E+00  0.93800000000E+00 0. -1.
         11    1    1    2    0    0 -0.37546159498E-01  0.18216059937E+00  0.16645580899E+01  0.16749167423E+01  0.51100000000E-03 0. -1.
    9000002    1    1    2    0    0  0.89933280576E-01 -0.42590943468E+00  0.12842450264E+00  0.10420286437E+01  0.93800000000E+00 0. -1.
         22    1    1    2    0    0 -0.52387121078E-01  0.24374883531E+00  0.22070173748E+01  0.22210546139E+01  0.00000000000E+00 0. -1.
</event>
<event>
 5    1  0.3241783E+002  0.1599673E+01  0.7818608E-02  0.3353718E+00
         11   -1    0    0    0    0  0.00000000000E+00  0.00000000000E+00  0.39999999674E+01  0.40000000000E+01  0.51100000000E-03 0. -1.
    9000002   -1    0    0    0    0 -0.00000000000E+00 -0.00000000000E+00  0.00000000000E+00  0.93800000000E+00  0.93800000000E+00 0.  1.
         11    1    1    2    0    0 -0.37572547002E+00  0.90698763846E-02  0.21376349557E+01  0.21704228519E+01  0.51100000000E-03 0. -1.
    9000002    1    1    2    0    0  0.64986349352E+00 -0.19525735059E-01  0.29829538436E+00  0.11796304298E+01  0.93800000000E+00 0.  1.
         22    1    1    2    0    0 -0.27413802350E+00  0.10455858675E-01  0.15640696273E+01  0.15879467183E+01  0.00000000000E+00 0. -1.
</event>
<event>
 5    1  0.3241783E+002  0.1599676E+01  0.7818608E-02  0.3353715E+00
         11   -1    0    0    0    0  0.00000000000E+00  0.00000000000E+00  0.39999999674E+01  0.40000000000E+01  0.51100000000E-03 0.  1.
    9000002   -1    0    0    0    0 -0.00000000000E+00 -0.00000000000E+00  0.00000000000E+00  0.93800000000E+00  0.93800000000E+00 0.  1.
         11    1    1    2    0    0  0.80098613326E-01  0.73208783523E-01  0.13716111202E+01  0.13758970310E+01  0.51100000000E-03 0.  1.
    9000002    1    1    2    0    0 -0.23282886408E+00 -0.20807511156E+00  0.65123309855E-01  0.99075202623E+00  0.93800000000E+00 0.  1.
         22    1    1    2    0    0  0.15273025075E+00  0.13486632804E+00  0.25632655374E+01  0.25713509428E+01  0.00000000000E+00 0. -1.
</event>
<event>
 5    1  0.3241783E+002  0.1577067E+01  0.7818608E-02  0.3378636E+00
         11   -1    0    0    0    0  0.00000000000E+00  0.00000000000E+00  0.39999999674E+01  0.40000000000E+01  0.51100000000E-03 0. -1.
    9000002   -1    0    0    0    0 -0.00000000000E+00 -0.00000000000E+00  0.00000000000E+00  0.93800000000E+00  0.93800000000E+00 0. -1.
         11    1    1    2    0    0  0.19578694098E+00 -0.22315005686E+00  0.12913195316E+01  0.13250037238E+01  0.51100000000E-03 0. -1.
    9000002    1    1    2    0    0 -0.13189160882E+00  0.42247798708E+00  0.15257535282E+00  0.10483350058E+01  0.93800000000E+00 0. -1.
         22    1    1    2    0    0 -0.63895332162E-01 -0.19932793022E+00  0.25561050829E+01  0.25646612704E+01  0.00000000000E+00 0. -1.
</event>
<event>
 5    1  0.3241783E+002  0.1599677E+01  0.7818608E-02  0.3353714E+00
         11   -1    0    0    0    0  0.00000000000E+00  0.00000000000E+00  0.39999999674E+01  0.40000000000E+01  0.51100000000E-03 0. -1.
    9000002   -1    0    0    0    0 -0.00000000000E+00 -0.00000000000E+00  0.00000000000E+00  0.93800000000E+00  0.93800000000E+00 0.  1.
         11    1    1    2    0    0 -0.80701246619E-01  0.25408055864E+00  0.20998030009E+01  0.21166583392E+01  0.51100000000E-03 0. -1.
    9000002    1    1    2    0    0  0.14737032490E+00 -0.46540943655E+00  0.16282778001E+00  0.10698975849E+01  0.93800000000E+00 0.  1.
         22    1    1    2    0    0 -0.66669078282E-01  0.21132887791E+00  0.17373691865E+01  0.17514440758E+01  0.00000000000E+00 0. -1.
</event>
<event>
 5    1  0.3241783E+002  0.1597288E+01  0.7818608E-02  0.3356312E+00
         11   -1    0    0    0    0  0.00000000000E+00  0.00000000000E+00  0.39999999674E+01  0.40000000000E+01  0.51100000000E-03 0.  1.
    9000002   -1    0    0    0    0 -0.00000000000E+00 -0.00000000000E+00  0.00000000000E+00  0.93800000000E+00  0.93800000000E+00 0.  1.
         11    1    1    2    0    0 -0.49307554704E+00 -0.14760529688E+00  0.20039231716E+01  0.20689657217E+01  0.51100000000E-03 0.  1.
    9000002    1    1    2    0    0  0.76909544095E+00  0.30739655407E+00  0.51359990356E+00  0.13526379041E+01  0.93800000000E+00 0.  1.
         22    1    1    2    0    0 -0.27601989390E+00 -0.15979125719E+00  0.14824768922E+01  0.15163963742E+01  0.00000000000E+00 0.  1.
</event>
<event>
 5    1  0.3241783E+002  0.1455950E+01  0.7818608E-02  0.3526264E+00
         11   -1    0    0    0    0  0.00000000000E+00  0.00000000000E+00  0.39999999674E+01  0.40000000000E+01  0.51100000000E-03 0.  1.
    9000002   -1    0    0    0    0 -0.00000000000E+00 -0.00000000000E+00  0.00000000000E+00  0.93800000000E+00  0.93800000000E+00 0.  1.
         11    1    1    2    0    0  0.28691182019E+00 -0.17562331137E+00  0.47903307288E+00  0.58535022516E+00  0.51100000000E-03 0.  1.
    9000002    1    1    2    0    0  0.16213475233E-01  0.12456715844E+00  0.13874822349E+00  0.95649094259E+00  0.93800000000E+00 0.  1.
         22    1    1    2    0    0 -0.30312529542E+00  0.51056152935E-01  0.33822186710E+01  0.33961588322E+01  0.00000000000E+00 0.  1.
</event>
<event>
 5    1  0.3241783E+002  0.1599673E+01  0.7818608E-02  0.3353718E+00
         11   -1    0    0    0    0  0.00000000000E+00  0.00000000000E+00  0.39999999674E+01  0.40000000000E+01  0.51100000000E-03 0.  1.
    9000002   -1    0    0    0    0 -0.00000000000E+00 -0.00000000000E+00  0.00000000000E+00  0.93800000000E+00  0.93800000000E+00 0.  1.
         11    1    1    2    0    0 -0.28138973662E-01 -0.42663195505E+00  0.23802589074E+01  0.24183546792E+01  0.51100000000E-03 0.  1.
    9000002    1    1    2    0    0  0.44695854091E-01  0.65838508535E+00  0.30803103386E+00  0.11875166347E+01  0.93800000000E+00 0.  1.
         22    1    1    2    0    0 -0.16556880429E-01 -0.23175313029E+00  0.13117100261E+01  0.13321286860E+01  0.00000000000E+00 0.  1.
</event>
<event>
 5    1  0.3241783E+002  0.1599672E+01  0.7818608E-02  0.3353719E+00
         11   -1    0    0    0    0  0.00000000000E+00  0.00000000000E+00  0.39999999674E+01  0.40000000000E+01  0.51100000000E-03 0. -1.
    9000002   -1    0    0    0    0 -0.00000000000E+00 -0.00000000000E+00  0.00000000000E+00  0.93800000000E+00  0.93800000000E+00 0.  1.
         11    1    1    2    0    0 -0.47358618587E-02  0.72479950726E-01  0.90399978236E+00  0.90691324793E+00  0.51100000000E-03 0. -1.
    9000002    1    1    2    0    0  0.25692362231E-01 -0.32298516474E+00  0.70200280416E-01  0.99486260031E+00  0.93800000000E+00 0.  1.
         22    1    1    2    0    0 -0.20956500372E-01  0.25050521402E+00  0.30257999046E+01  0.30362241518E+01  0.00000000000E+00 0. -1.
</event>
<event>
 5    1  0.3241783E+002  0.1561380E+01  0.7818608E-02  0.3396377E+00
         11   -1    0    0    0    0  0.00000000000E+00  0.00000000000E+00  0.39999999674E+01  0.40000000000E+01  0.51100000000E-03 0.  1.
    9000002   -1    0    0    0    0 -0.00000000000E+00 -0.00000000000E+00  0.00000000000E+00  0.93800000000E+00  0.93800000000E+00 0.  1.
         11    1    1    2    0    0  0.17492006558E-01  0.15082793572E+00  0.14593535710E+01  0.14672314551E+01  0.51100000000E-03 0.  1.
    9000002    1    1    2    0    0  0.12122235743E+00  0.18332489110E+00  0.61503994474E-01  0.96536501748E+00  0.93800000000E+00 0.  1.
         22    1    1    2    0    0 -0.13871436399E+00 -0.33415282682E+00  0.24791424019E+01  0.25054035275E+01  0.00000000000E+00 0.  1.
</event>
<event>
 5    1  0.3241783E+002  0.1599656E+01  0.7818608E-02  0.3353737E+00
         11   -1    0    0    0    0  0.00000000000E+00  0.00000000000E+00  0.39999999674E+01  0.40000000000E+01  0.51100000000E-03 0.  1.
    9000002   -1    0    0    0    0 -0.00000000000E+00 -0.00000000000E+00  0.00000000000E+00  0.93800000000E+00  0.93800000000E+00 0. -1.
         11    1    1    2    0    0 -0.10572288132E-01 -0.16825183869E-01  0.35735064206E+00  0.35790306312E+00  0.51100000000E-03 0.  1.
    9000002    1    1    2    0    0  0.12804645712E+00  0.21965742426E+00  0.42973749770E-01  0.97279803782E+00  0.93800000000E+00 0. -1.
         22    1    1    2    0    0 -0.11747416898E+00 -0.20283224039E+00  0.35996755755E+01  0.36072988991E+01  0.00000000000E+00 0.  1.
</event>
<event>
 5    1  0.3241783E+002  0.1597930E+01  0.7818608E-02  0.3355613E+00
         11   -1    0    0    0    0  0.00000000000E+00  0.00000000000E+00  0.39999999674E+01  0.40000000000E+01  0.51100000000E-03 0.  1.
    9000002   -1    0    0    0    0 -0.00000000000E+00 -0.00000000000E+00  0.00000000000E+00  0.93800000000E+00  0.93800000000E+00 0.  1.
         11    1    1    2    0    0  0.19848106423E+00 -0.53417537034E+00  0.19167256648E+01  0.19996438669E+01  0.51100000000E-03 0.  1.
    9000002    1    1    2    0    0 -0.33403338535E+00  0.96274808782E+00  0.84840753368E+00  0.16242233610E+01  0.93800000000E+00 0.  1.
         22    1    1    2    0    0  0.13555232112E+00 -0.42857271748E+00  0.12348667689E+01  0.13141327721E+01  0.00000000000E+00 0. -1.
</event>
<event>
 5    1  0.3241783E+002  0.1599533E+01  0.7818608E-02  0.3353870E+00
         11   -1    0    0    0    0  0.00000000000E+00  0.00000000000E+00  0.39999999674E+01  0.40000000000E+01  0.51100000000E-03 0.  1.
    9000002   -1    0    0    0    0 -0.00000000000E+00 -0.00000000000E+00  0.00000000000E+00  0.93800000000E+00  0.93800000000E+00 0.  1.
         11    1    1    2    0    0  0.29780036279E-03  0.25677491705E-01  0.31143438972E+00  0.31249169987E+00  0.51100000000E-03 0.  1.
    9000002    1    1    2    0    0  0.47484921298E-01 -0.24214045663E+00  0.40546060620E-01  0.97075990931E+00  0.93800000000E+00 0.  1.
         22    1    1    2    0    0 -0.47782721661E-01  0.21646296492E+00  0.36480195170E+01  0.36547483908E+01  0.00000000000E+00 0.  1.
</event>
<event>
 5    1  0.3241783E+002  0.1599173E+01  0.7818608E-02  0.3354262E+00
         11   -1    0    0    0    0  0.00000000000E+00  0.00000000000E+00  0.39999999674E+01  0.40000000000E+01  0.51100000000E-03 0. -1.
    9000002   -1    0    0    0    0 -0.00000000000E+00 -0.00000000000E+00  0.00000000000E+00  0.93800000000E+00  0.93800000000E+00 0. -1.
         11    1    1    2    0    0  0.67896776317E-01  0.17365878436E+00  0.11852689662E+01  0.11998458772E+01  0.51100000000E-03 0. -1.
    9000002    1    1    2    0    0 -0.21298437795E+00 -0.62101841854E+00  0.30516849666E+00  0.11849042294E+01  0.93800000000E+00 0. -1.
         22    1    1    2    0    0  0.14508760163E+00  0.44735963418E+00  0.25095625045E+01  0.25532498934E+01  0.00000000000E+00 0. -1.
</event>
<event>
 5    1  0.3241783E+002  0.1599325E+01  0.7818608E-02  0.3354097E+00
         11   -1    0    0    0    0  0.00000000000E+00  0.00000000000E+00  0.39999999674E+01  0.40000000000E+01  0.51100000000E-03 0.  1.
    9000002   -1    0    0    0    0 -0.00000000000E+00 -0.00000000000E+00  0.00000000000E+00  0.93800000000E+00  0.93800000000E+00 0.  1.
         11    1    1    2    0    0 -0.18419161304E-02  0.36961041988E-02  0.35529167919E-01  0.35772010501E-01  0.51100000000E-03 0.  1.
    9000002    1    1    2    0    0  0.23135895753E+00  0.59133824769E-01  0.38116704765E-01  0.96866953067E+00  0.93800000000E+00 0.  1.
         22    1    1    2    0    0 -0.22951704140E+00 -0.62829928968E-01  0.39263540947E+01  0.39335584588E+01  0.00000000000E+00 0.  1.
</event>
<event>
 5    1  0.3241783E+002  0.1599575E+01  0.7818608E-02  0.3353825E+00
         11   -1    0    0    0    0  0.00000000000E+00  0.00000000000E+00  0.39999999674E+01  0.40000000000E+01  0.51100000000E-03 0.  1.
    9000002   -1    0    0    0    0 -0.00000000000E+00 -0.00000000000E+00  0.00000000000E+00  0.93800000000E+00  0.93800000000E+00 0. -1.
         11    1    1    2    0    0 -0.89527325945E-01 -0.13958727514E-01  0.11495450701E+01  0.11531106267E+01  0.51100000000E-03 0.  1.
    9000002    1    1    2    0    0  0.28984515138E+00  0.81650830088E-01  0.60577866958E-01  0.98701101706E+00  0.93800000000E+00 0. -1.
         22    1    1    2    0    0 -0.20031782544E+00 -0.67692102574E-01  0.27898770303E+01  0.27978783562E+01  0.00000000000E+00 0.  1.
</event>
<event>
 5    1  0.3241783E+002  0.1599446E+01  0.7818608E-02  0.3353965E+00
         11   -1    0    0    0    0  0.00000000000E+00  0.00000000000E+00  0.39999999674E+01  0.40000000000E+01  0.51100000000E-03 0. -1.
    9000002   -1    0    0    0    0 -0.00000000000E+00 -0.00000000000E+00  0.00000000000E+00  0.93800000000E+00  0.93800000000E+00 0. -1.
         11    1    1    2    0    0  0.65770992316E-02  0.31629349265E-01  0.42143885904E+00  0.42267558127E+00  0.51100000000E-03 0. -1.
    9000002    1    1    2    0    0  0.43662896389E-01 -0.30615932997E+00  0.64040504666E-01  0.98973995074E+00  0.93800000000E+00 0. -1.
         22    1    1    2    0    0 -0.50239995620E-01  0.27452998070E+00  0.35145206037E+01  0.35255844680E+01  0.00000000000E+00 0. -1.
</event>
<event>
 5    1  0.3241783E+002  0.1599677E+01  0.7818608E-02  0.3353714E+00
         11   -1    0    0    0    0  0.00000000000E+00  0.00000000000E+00  0.39999999674E+01  0.40000000000E+01  0.51100000000E-03 0.  1.
    9000002   -1    0    0    0    0 -0.00000000000E+00 -0.00000000000E+00  0.00000000000E+00  0.93800000000E+00  0.93800000000E+00 0. -1.
         11    1    1    2    0    0 -0.17567955811E-01 -0.78928436421E-01  0.95630894984E+00  0.95972152201E+00  0.51100000000E-03 0. -1.
    9000002    1    1    2    0    0  0.71385984980E-01  0.32251495518E+00  0.73007144594E-01  0.99713885609E+00  0.93800000000E+00 0. -1.
         22    1    1    2    0    0 -0.53818029169E-01 -0.24358651876E+00  0.29706838729E+01  0.29811396219E+01  0.00000000000E+00 0.  1.
</event>
<event>
 5    1  0.3241783E+002  0.1599649E+01  0.7818608E-02  0.3353745E+00
         11   -1    0    0    0    0  0.00000000000E+00  0.00000000000E+00  0.39999999674E+01  0.40000000000E+01  0.51100000000E-03 0. -1.
    9000002   -1    0    0    0    0 -0.00000000000E+00 -0.00000000000E+00  0.00000000000E+00  0.93800000000E+00  0.93800000000E+00 0.  1.
         11    1    1    2    0    0 -0.60830292134E-02  0.42303775485E-02  0.93260396279E-01  0.93555662435E-01  0.51100000000E-03 0. -1.
    9000002    1    1    2    0    0  0.22850758043E+00 -0.10566205471E+00  0.42130004838E-01  0.97211065287E+00  0.93800000000E+00 0.  1.
         22    1    1    2    0    0 -0.22242455122E+00  0.10143167716E+00  0.38646095662E+01  0.38723336847E+01  0.00000000000E+00 0. -1.
</event>
<event>
 5    1  0.3241783E+002  0.1599677E+01  0.7818608E-02  0.3353714E+00
         11   -1    0    0    0    0  0.00000000000E+00  0.00000000000E+00  0.39999999674E+01  0.40000000000E+01  0.51100000000E-03 0.  1.
    9000002   -1    0    0    0    0 -0.00000000000E+00 -0.00000000000E+00  0.00000000000E+00  0.93800000000E+00  0.93800000000E+00 0.  1.
         11    1    1    2    0    0 -0.21767123379E-01  0.21329512093E+00  0.15865125411E+01  0.16009343898E+01  0.51100000000E-03 0. -1.
    9000002    1    1    2    0    0  0.53270803747E-01 -0.51291400637E+00  0.18252542263E+00  0.10858536211E+01  0.93800000000E+00 0.  1.
         22    1    1    2    0    0 -0.31503680369E-01  0.29961888544E+00  0.22309620036E+01  0.22512119891E+01  0.00000000000E+00 0.  1.
</event>
<event>
 5    1  0.3241783E+002  0.1599676E+01  0.7818608E-02  0.3353715E+00
         11   -1    0    0    0    0  0.00000000000E+00  0.00000000000E+00  0.39999999674E+01  0.40000000000E+01  0.51100000000E-03 0.  1.
    9000002   -1    0    0    0    0 -0.00000000000E+00 -0.00000000000E+00  0.00000000000E+00  0.93800000000E+00  0.93800000000E+00 0. -1.
         11    1    1    2    0    0 -0.13650541497E-01  0.80646593707E-02  0.26474964545E+00  0.26522445570E+00  0.51100000000E-03 0. -1.
    9000002    1    1    2    0    0  0.20397529222E+00 -0.12161264355E+00  0.37428479794E-01  0.96831835984E+00  0.93800000000E+00 0. -1.
         22    1    1    2    0    0 -0.19032475073E+00  0.11354798418E+00  0.36978218421E+01  0.37044571845E+01  0.00000000000E+00 0.  1.
</event>
<event>
 5    1  0.3241783E+002  0.1599667E+01  0.7818608E-02  0.3353725E+00
         11   -1    0    0    0    0  0.00000000000E+00  0.00000000000E+00  0.39999999674E+01  0.40000000000E+01  0.51100000000E-03 0. -1.
    9000002   -1    0    0    0    0 -0.00000000000E+00 -0.00000000000E+00  0.00000000000E+00  0.93800000000E+00  0.93800000000E+00 0.  1.
         11    1    1    2    0    0 -0.84260968361E-01  0.20124282671E-01  0.10508625658E+01  0.10544274706E+01  0.51100000000E-03 0. -1.
    9000002    1    1    2    0    0  0.30324963345E+00 -0.78442652940E-01  0.65543241437E-01  0.99108703275E+00  0.93800000000E+00 0.  1.
         22    1    1    2    0    0 -0.21898866509E+00  0.58318370269E-01  0.28835941602E+01  0.28924854966E+01  0.00000000000E+00 0. -1.
</event>
<event>
 5    1  0.3241783E+002  0.1599677E+01  0.7818608E-02  0.3353715E+00
         11   -1    0    0    0    0  0.00000000000E+00  0.00000000000E+00  0.39999999674E+01  0.40000000000E+01  0.51100000000E-03 0.  1.
    9000002   -1    0    0    0    0 -0.00000000000E+00 -0.00000000000E+00  0.00000000000E+00  0.93800000000E+00  0.93800000000E+00 0.  1.
         11    1    1    2    0    0  0.10326877983E+00  0.12381018286E+00  0.16733077259E+01  0.16810569321E+01  0.51100000000E-03 0.  1.
    9000002    1    1    2    0    0 -0.24227124229E+00 -0.28751093357E+00  0.95065621274E-01  0.10150070759E+01  0.93800000000E+00 0.  1.
         22    1    1    2    0    0  0.13900246247E+00  0.16370075071E+00  0.22316266202E+01  0.22419359920E+01  0.00000000000E+00 0.  1.
</event>
<event>
 5    1  0.3241783E+002  0.1599579E+01  0.7818608E-02  0.3353820E+00
         11   -1    0    0    0    0  0.00000000000E+00  0.00000000000E+00  0.39999999674E+01  0.40000000000E+01  0.51100000000E-03 0.  1.
    9000002   -1    0    0    0    0 -0.00000000000E+00 -0.00000000000E+00  0.00000000000E+00  0.93800000000E+00  0.93800000000E+00 0.  1.
         11    1    1    2    0    0  0.46011163854E-02  0.97735271471E-02  0.24780836123E+00  0.24804422412E+00  0.51100000000E-03 0.  1.
    9000002    1    1    2    0    0 -0.16346048125E+00 -0.17499199500E+00  0.38135631923E-01  0.96883427565E+00  0.93800000000E+00 0.  1.
         22    1    1    2    0    0  0.15885936487E+00  0.16521846785E+00  0.37140559742E+01  0.37211215002E+01  0.00000000000E+00 0.  1.
</event>
<event>
 5    1  0.3241783E+002  0.1595575E+01  0.7818608E-02  0.3358180E+00
         11   -1    0    0    0    0  0.00000000000E+00  0.00000000000E+00  0.39999999674E+01  0.40000000000E+01  0.51100000000E-03 0. -1.
    9000002   -1    0    0    0    0 -0.00000000000E+00 -0.00000000000E+00  0.00000000000E+00  0.93800000000E+00  0.93800000000E+00 0.  1.
         11    1    1    2    0    0 -0.16320219389E-01  0.51956228093E-01  0.23392111034E+00  0.24017732237E+00  0.51100000000E-03 0. -1.
    9000002    1    1    2    0    0  0.18087698855E+00 -0.26079244762E+00  0.70557829062E-01  0.99274951169E+00  0.93800000000E+00 0.  1.
         22    1    1    2    0    0 -0.16455676916E+00  0.20883621952E+00  0.36955210280E+01  0.37050731659E+01  0.00000000000E+00 0. -1.
</event>
<event>
 5    1  0.3241783E+002  0.1598787E+01  0.7818608E-02  0.3354681E+00
         11   -1    0    0    0    0  0.00000000000E+00  0.00000000000E+00  0.39999999674E+01  0.40000000000E+01  0.51100000000E-03 0. -1.
    9000002   -1    0    0    0    0 -0.00000000000E+00 -0.00000000000E+00  0.00000000000E+00  0.93800000000E+00  0.93800000000E+00 0.  1.
         11    1    1    2    0    0  0.15846314283E-01 -0.53550944062E-01  0.57688816246E+00  0.57958521582E+00  0.51100000000E-03 0. -1.
    9000002    1    1    2    0    0  0.65075389303E-01  0.36839601684E+00  0.94825803472E-01  0.10142910650E+01  0.93800000000E+00 0.  1.
         22    1    1    2    0    0 -0.80921703586E-01 -0.31484507278E+00  0.33282860014E+01  0.33441237192E+01  0.00000000000E+00 0. -1.
</event>
<event>
 5    1  0.3241783E+002  0.1599375E+01  0.7818608E-02  0.3354042E+00
         11   -1    0    0    0    0  0.00000000000E+00  0.00000000000E+00  0.39999999674E+01  0.40000000000E+01  0.51100000000E-03 0. -1.
    9000002   -1    0    0    0    0 -0.00000000000E+00 -0.00000000000E+00  0.00000000000E+00  0.93800000000E+00  0.93800000000E+00 0.  1.
         11    1    1    2    0    0 -0.48728288155E-01 -0.87055240718E-01  0.57978242802E+00  0.58830348118E+00  0.51100000000E-03 0. -1.
    9000002    1    1    2    0    0  0.38855901977E+00  0.49759738176E+00  0.28033933900E+00  0.11649100442E+01  0.93800000000E+00 0.  1.
         22    1    1    2    0    0 -0.33983073161E+00 -0.41054214104E+00  0.31398782003E+01  0.31847864746E+01  0.00000000000E+00 0. -1.
</event>
<event>
 5    1  0.3241783E+002  0.1599656E+01  0.7818608E-02  0.3353737E+00
         11   -1    0    0    0    0  0.00000000000E+00  0.00000000000E+00  0.39999999674E+01  0.40000000000E+01  0.51100000000E-03 0. -1.
    9000002   -1    0    0    0    0 -0.00000000000E+00 -0.00000000000E+00  0.00000000000E+00  0.93800000000E+00  0.93800000000E+00 0.  1.
         11    1    1    2    0    0  0.26509183957E-01  0.82971602366E-02  0.35273087573E+00  0.35382327724E+00  0.51100000000E-03 0.  1.
    9000002    1    1    2    0    0 -0.26409875724E+00 -0.10547463568E+00  0.53891435991E-01  0.98164216455E+00  0.93800000000E+00 0.  1.
         22    1    1    2    0    0  0.23758957328E+00  0.97177475447E-01  0.35933776556E+01  0.36025345582E+01  0.00000000000E+00 0. -1.
</event>
<event>
 5    1  0.3241783E+002  0.1599675E+01  0.7818608E-02  0.3353717E+00
         11   -1    0    0    0    0  0.00000000000E+00  0.00000000000E+00  0.39999999674E+01  0.40000000000E+01  0.51100000000E-03 0.  1.
    9000002   -1    0    0    0    0 -0.00000000000E+00 -0.00000000000E+00  0.00000000000E+00  0.93800000000E+00  0.93800000000E+00 0.  1.
         11    1    1    2    0    0 -0.32772044622E-02  0.14175636738E+00  0.14658199812E+01  0.14726622445E+01  0.51100000000E-03 0.  1.
    9000002    1    1    2    0    0  0.13207176395E-01 -0.37937660174E+00  0.96954377776E-01  0.10165358758E+01  0.93800000000E+00 0.  1.
         22    1    1    2    0    0 -0.99299719325E-02  0.23762023436E+00  0.24372256084E+01  0.24488018797E+01  0.00000000000E+00 0.  1.
</event>
<event>
 5    1  0.3241783E+002  0.1560420E+01  0.7818608E-02  0.3397475E+00
         11   -1    0    0    0    0  0.00000000000E+00  0.00000000000E+00  0.39999999674E+01  0.40000000000E+01  0.51100000000E-03 0. -1.
    9000002   -1    0    0    0    0 -0.00000000000E+00 -0.00000000000E+00  0.00000000000E+00  0.93800000000E+00  0.93800000000E+00 0. -1.
         11    1    1    2    0    0  0.22088511825E+00 -0.27977833881E-01  0.20536150440E+01  0.20656495358E+01  0.51100000000E-03 0. -1.
    9000002    1    1    2    0    0  0.27019722202E-01  0.13082861478E+00  0.41207490834E-01  0.94836082223E+00  0.93800000000E+00 0. -1.
         22    1    1    2    0    0 -0.24790484045E+00 -0.10285078090E+00  0.19051774326E+01  0.19239896420E+01  0.00000000000E+00 0. -1.
</event>
<event>
 5    1  0.3241783E+002  0.1599673E+01  0.7818608E-02  0.3353719E+00
         11   -1    0    0    0    0  0.00000000000E+00  0.00000000000E+00  0.39999999674E+01  0.40000000000E+01  0.51100000000E-03 0. -1.
    9000002   -1    0    0    0    0 -0.00000000000E+00 -0.00000000000E+00  0.00000000000E+00  0.93800000000E+00  0.93800000000E+00 0. -1.
         11    1    1    2    0    0  0.85304489032E-01  0.99339480085E-01  0.12890383347E+01  0.12956717476E+01  0.51100000000E-03 0. -1.
    9000002    1    1    2    0    0 -0.25848806698E+00 -0.29320869415E+00  0.10294278140E+00  0.10213856448E+01  0.93800000000E+00 0. -1.
         22    1    1    2    0    0  0.17318357795E+00  0.19386921407E+00  0.26080188513E+01  0.26209426076E+01  0.00000000000E+00 0.  1.
</event>
<event>
 5    1  0.3241783E+002  0.1599632E+01  0.7818608E-02  0.3353763E+00
         11   -1    0    0    0    0  0.00000000000E+00  0.00000000000E+00  0.39999999674E+01  0.40000000000E+01  0.51100000000E-03 0.  1.
    9000002   -1    0    0    0    0 -0.00000000000E+00 -0.00000000000E+00  0.00000000000E+00  0.93800000000E+00  0.93800000000E+00 0.  1.
         11    1    1    2    0    0  0.59020825045E-02  0.19421419457E-01  0.23412686219E+00  0.23500569107E+00  0.51100000000E-03 0.  1.
    9000002    1    1    2    0    0 -0.86889370321E-01 -0.26486792276E+00  0.51774006246E-01  0.97991291802E+00  0.93800000000E+00 0.  1.
         22    1    1    2    0    0  0.80987287816E-01  0.24544650330E+00  0.37140990989E+01  0.37230813909E+01  0.00000000000E+00 0.  1.
</event>
<event>
 5    1  0.3241783E+002  0.1593335E+01  0.7818608E-02  0.3360629E+00
         11   -1    0    0    0    0  0.00000000000E+00  0.00000000000E+00  0.39999999674E+01  0.40000000000E+01  0.51100000000E-03 0. -1.
    9000002   -1    0    0    0    0 -0.00000000000E+00 -0.00000000000E+00  0.00000000000E+00  0.93800000000E+00  0.93800000000E+00 0. -1.
         11    1    1    2    0    0 -0.41154534426E-01  0.24226874516E-01  0.15127354355E+01  0.15134891463E+01  0.51100000000E-03 0. -1.
    9000002    1    1    2    0    0 -0.10703817885E+00 -0.17940733293E+00  0.33691808466E-01  0.96157334655E+00  0.93800000000E+00 0. -1.
         22    1    1    2    0    0  0.14819271327E+00  0.15518045841E+00  0.24535727234E+01  0.24629375071E+01  0.00000000000E+00 0.  1.
</event>
<event>
 5    1  0.3241783E+002  0.1599674E+01  0.7818608E-02  0.3353717E+00
         11   -1    0    0    0    0  0.00000000000E+00  0.00000000000E+00  0.39999999674E+01  0.40000000000E+01  0.51100000000E-03 0.  1.
    9000002   -1    0    0    0    0 -0.00000000000E+00 -0.00000000000E+00  0.00000000000E+00  0.93800000000E+00  0.93800000000E+00 0.  1.
         11    1    1    2    0    0 -0.20516814865E+00  0.83658550633E-01  0.16441877622E+01  0.16590498428E+01  0.51100000000E-03 0.  1.
    9000002    1    1    2    0    0  0.48101754206E+00 -0.19352258471E+00  0.18461684290E+00  0.10875459739E+01  0.93800000000E+00 0.  1.
         22    1    1    2    0    0 -0.27584939341E+00  0.10986403408E+00  0.21711953623E+01  0.21914041834E+01  0.00000000000E+00 0. -1.
</event>
<event>
 5    1  0.3241783E+002  0.1599668E+01  0.7818608E-02  0.3353724E+00
         11   -1    0    0    0    0  0.00000000000E+00  0.00000000000E+00  0.39999999674E+01  0.40000000000E+01  0.51100000000E-03 0.  1.
    9000002   -1    0    0    0    0 -0.00000000000E+00 -0.00000000000E+00  0.00000000000E+00  0.93800000000E+00  0.93800000000E+00 0.  1.
         11    1    1    2    0    0  0.27419863722E-01 -0.62991267729E-03  0.36496454020E+00  0.36599401968E+00  0.51100000000E-03 0.  1.
    9000002    1    1    2    0    0 -0.31578652320E+00  0.15231707593E-01  0.66790205054E-01  0.99209781002E+00  0.93800000000E+00 0.  1.
         22    1    1    2    0    0  0.28836665948E+00 -0.14601794916E-01  0.35682452221E+01  0.35799081703E+01  0.00000000000E+00 0.  1.
</event>
<event>
 5    1  0.3241783E+002  0.1537583E+01  0.7818608E-02  0.3424026E+00
         11   -1    0    0    0    0  0.00000000000E+00  0.00000000000E+00  0.39999999674E+01  0.40000000000E+01  0.51100000000E-03 0. -1.
    9000002   -1    0    0    0    0 -0.00000000000E+00 -0.00000000000E+00  0.00000000000E+00  0.93800000000E+00  0.93800000000E+00 0. -1.
         11    1    1    2    0    0 -0.72281027449E-01  0.22430832062E+00  0.18149661874E+01  0.18302025277E+01  0.51100000000E-03 0. -1.
    9000002    1    1    2    0    0 -0.10560844376E+00  0.10658126117E+00  0.62178667251E-01  0.95195740203E+00  0.93800000000E+00 0. -1.
         22    1    1    2    0    0  0.17788947121E+00 -0.33088958179E+00  0.21228551127E+01  0.21558400703E+01  0.00000000000E+00 0. -1.
</event>
<event>
 5    1  0.3241783E+002  0.1599602E+01  0.7818608E-02  0.3353796E+00
         11   -1    0    0    0    0  0.00000000000E+00  0.00000000000E+00  0.39999999674E+01  0.40000000000E+01  0.51100000000E-03 0.  1.
    9000002   -1    0    0    0    0 -0.00000000000E+00 -0.00000000000E+00  0.00000000000E+00  0.93800000000E+00  0.93800000000E+00 0.  1.
         11    1    1    2    0    0 -0.34274953997E-01  0.69516136925E-01  0.99231565602E+00  0.99533807727E+00  0.51100000000E-03 0.  1.
    9000002    1    1    2    0    0  0.10050204396E+00 -0.28122063777E+00  0.59548209664E-01  0.98619252543E+00  0.93800000000E+00 0.  1.
         22    1    1    2    0    0 -0.66227089959E-01  0.21170450085E+00  0.29481361017E+01  0.29564693973E+01  0.00000000000E+00 0.  1.
</event>
<event>
 5    1  0.3241783E+002  0.1599671E+01  0.7818608E-02  0.3353720E+00
         11   -1    0    0    0    0  0.00000000000E+00  0.00000000000E+00  0.39999999674E+01  0.40000000000E+01  0.51100000000E-03 0.  1.
    9000002   -1    0    0    0    0 -0.00000000000E+00 -0.00000000000E+00  0.00000000000E+00  0.93800000000E+00  0.93800000000E+00 0.  1.
         11    1    1    2    0    0  0.18199155100E+00 -0.25689614719E+00  0.22620774411E+01  0.22838807249E+01  0.51100000000E-03 0.  1.
    9000002    1    1    2    0    0 -0.30267940408E+00  0.43557332099E+00  0.19362208068E+00  0.10948390063E+01  0.93800000000E+00 0.  1.
         22    1    1    2    0    0  0.12068785308E+00 -0.17867717380E+00  0.15443004456E+01  0.15592802688E+01  0.00000000000E+00 0. -1.
</event>
<event>
 5    1  0.3241783E+002  0.1599673E+01  0.7818608E-02  0.3353719E+00
         11   -1    0    0    0    0  0.00000000000E+00  0.00000000000E+00  0.39999999674E+01  0.40000000000E+01  0.51100000000E-03 0. -1.
    9000002   -1    0    0    0    0 -0.00000000000E+00 -0.00000000000E+00  0.00000000000E+00  0.93800000000E+00  0.93800000000E+00 0. -1.
         11    1    1    2    0    0  0.43535630075E-01 -0.17329320594E+00  0.16699267497E+01  0.16794586916E+01  0.51100000000E-03 0. -1.
    9000002    1    1    2    0    0 -0.10643759903E+00  0.40513015705E+00  0.11864953064E+00  0.10341088520E+01  0.93800000000E+00 0. -1.
         22    1    1    2    0    0  0.62901968957E-01 -0.23183695111E+00  0.22114236871E+01  0.22244324564E+01  0.00000000000E+00 0. -1.
</event>
<event>
 5    1  0.3241783E+002  0.1598782E+01  0.7818608E-02  0.3354686E+00
         11   -1    0    0    0    0  0.00000000000E+00  0.00000000000E+00  0.39999999674E+01  0.40000000000E+01  0.51100000000E-03 0.  1.
    9000002   -1    0    0    0    0 -0.00000000000E+00 -0.00000000000E+00  0.00000000000E+00  0.93800000000E+00  0.93800000000E+00 0. -1.
         11    1    1    2    0    0  0.44104594359E-01  0.19916499718E-02  0.33292584925E+00  0.33584083155E+00  0.51100000000E-03 0.  1.
    9000002    1    1    2    0    0 -0.28627596556E+00 -0.54665112844E-01  0.57318984296E-01  0.98390633141E+00  0.93800000000E+00 0. -1.
         22    1    1    2    0    0  0.24217137120E+00  0.52673462872E-01  0.36097551338E+01  0.36182528370E+01  0.00000000000E+00 0.  1.
</event>
<event>
 5    1  0.3800805E+002  0.1591398E+01  0.7818608E-02  0.3362753E+00
         11   -1    0    0    0    0  0.00000000000E+00  0.00000000000E+00  0.39999999674E+01  0.40000000000E+01  0.51100000000E-03 0. -1.
    9000002   -1    0    0    0    0 -0.00000000000E+00 -0.00000000000E+00  0.00000000000E+00  0.93800000000E+00  0.93800000000E+00 0. -1.
         11    1    1    2    0    0  0.10549984304E-01  0.44946686493E-01  0.31528510711E+00  0.31864787255E+00  0.51100000000E-03 0. -1.
    9000002    1    1    2    0    0  0.44313641423E-01  0.15864318614E+00  0.24087382933E-01  0.95265710586E+00  0.93800000000E+00 0. -1.
         22    1    1    2    0    0 -0.54863625726E-01 -0.20358987263E+00  0.36606274773E+01  0.36666950216E+01  0.00000000000E+00 0. -1.
</event>
