<event>
 5    1  0.3222854E+002  0.1523247E+01  0.7818608E-02  0.3441127E+00
         11   -1    0    0    0    0  0.00000000000E+00  0.00000000000E+00  0.39999999674E+01  0.40000000000E+01  0.51100000000E-03 0. -1.
    9000002   -1    0    0    0    0 -0.00000000000E+00 -0.00000000000E+00  0.00000000000E+00  0.93800000000E+00  0.93800000000E+00 0.  1.
         11    1    1    2    0    0  0.10155960573E+00 -0.29599965641E+00  0.34898062896E+01  0.35038091201E+01  0.51100000000E-03 0. -1.
    9000002    1    1    2    0    0 -0.30794163475E+00  0.36494717876E+00  0.22647389925E+00  0.10766377853E+01  0.93800000000E+00 0.  1.
         22    1    1    2    0    0  0.20638202902E+00 -0.68947522348E-01  0.28371977855E+00  0.35755309463E+00  0.00000000000E+00 0.  1.
</event>
<event>
 5    1  0.3222854E+002  0.1595644E+01  0.7818608E-02  0.3358105E+00
         11   -1    0    0    0    0  0.00000000000E+00  0.00000000000E+00  0.39999999674E+01  0.40000000000E+01  0.51100000000E-03 0. -1.
    9000002   -1    0    0    0    0 -0.00000000000E+00 -0.00000000000E+00  0.00000000000E+00  0.93800000000E+00  0.93800000000E+00 0.  1.
         11    1    1    2    0    0 -0.60408201118E-01  0.10200513489E-01  0.75157999186E+00  0.75407290531E+00  0.51100000000E-03 0. -1.
    9000002    1    1    2    0    0  0.12019474201E+00 -0.29924790954E+00  0.72730597649E-01  0.99455006269E+00  0.93800000000E+00 0.  1.
         22    1    1    2    0    0 -0.59786540894E-01  0.28904739605E+00  0.31756893778E+01  0.31893770320E+01  0.00000000000E+00 0. -1.
</event>
<event>
 5    1  0.3222854E+002  0.1599290E+01  0.7818608E-02  0.3354135E+00
         11   -1    0    0    0    0  0.00000000000E+00  0.00000000000E+00  0.39999999674E+01  0.40000000000E+01  0.51100000000E-03 0. -1.
    9000002   -1    0    0    0    0 -0.00000000000E+00 -0.00000000000E+00  0.00000000000E+00  0.93800000000E+00  0.93800000000E+00 0.  1.
         11    1    1    2    0    0  0.16915613799E+00  0.13839413912E+00  0.16987334222E+01  0.17127353087E+01  0.51100000000E-03 0. -1.
    9000002    1    1    2    0    0 -0.36781100444E+00 -0.26348902433E+00  0.13942231132E+00  0.10507111791E+01  0.93800000000E+00 0.  1.
         22    1    1    2    0    0  0.19865486645E+00  0.12509488521E+00  0.21618442339E+01  0.21745535123E+01  0.00000000000E+00 0.  1.
</event>
<event>
 5    1  0.3222854E+002  0.1599657E+01  0.7818608E-02  0.3353736E+00
         11   -1    0    0    0    0  0.00000000000E+00  0.00000000000E+00  0.39999999674E+01  0.40000000000E+01  0.51100000000E-03 0.  1.
    9000002   -1    0    0    0    0 -0.00000000000E+00 -0.00000000000E+00  0.00000000000E+00  0.93800000000E+00  0.93800000000E+00 0.  1.
         11    1    1    2    0    0 -0.23476248201E+00 -0.67723360812E-01  0.15746281660E+01  0.15934723087E+01  0.51100000000E-03 0.  1.
    9000002    1    1    2    0    0  0.56367825144E+00  0.14947611123E+00  0.23645436275E+00  0.11295268676E+01  0.93800000000E+00 0.  1.
         22    1    1    2    0    0 -0.32891576943E+00 -0.81752750420E-01  0.21889174386E+01  0.22150008236E+01  0.00000000000E+00 0.  1.
</event>
<event>
 5    1  0.3222854E+002  0.1599609E+01  0.7818608E-02  0.3353788E+00
         11   -1    0    0    0    0  0.00000000000E+00  0.00000000000E+00  0.39999999674E+01  0.40000000000E+01  0.51100000000E-03 0. -1.
    9000002   -1    0    0    0    0 -0.00000000000E+00 -0.00000000000E+00  0.00000000000E+00  0.93800000000E+00  0.93800000000E+00 0. -1.
         11    1    1    2    0    0 -0.36416713009E-01 -0.13545744366E-01  0.29601187406E+00  0.29855142753E+00  0.51100000000E-03 0. -1.
    9000002    1    1    2    0    0  0.45948601094E+00  0.24219835072E+00  0.18536489294E+00  0.10881137711E+01  0.93800000000E+00 0. -1.
         22    1    1    2    0    0 -0.42306929793E+00 -0.22865260636E+00  0.35186232004E+01  0.35513348014E+01  0.00000000000E+00 0. -1.
</event>
<event>
 5    1  0.3222854E+002  0.1599676E+01  0.7818608E-02  0.3353715E+00
         11   -1    0    0    0    0  0.00000000000E+00  0.00000000000E+00  0.39999999674E+01  0.40000000000E+01  0.51100000000E-03 0.  1.
    9000002   -1    0    0    0    0 -0.00000000000E+00 -0.00000000000E+00  0.00000000000E+00  0.93800000000E+00  0.93800000000E+00 0. -1.
         11    1    1    2    0    0 -0.90573576688E-01  0.10041992787E+00  0.13310734744E+01  0.13379254800E+01  0.51100000000E-03 0.  1.
    9000002    1    1    2    0    0  0.26522393876E+00 -0.29747919446E+00  0.10712025124E+00  0.10247713682E+01  0.93800000000E+00 0. -1.
         22    1    1    2    0    0 -0.17465036207E+00  0.19705926659E+00  0.25618062417E+01  0.25753031518E+01  0.00000000000E+00 0.  1.
</event>
<event>
 5    1  0.3222854E+002  0.1599277E+01  0.7818608E-02  0.3354148E+00
         11   -1    0    0    0    0  0.00000000000E+00  0.00000000000E+00  0.39999999674E+01  0.40000000000E+01  0.51100000000E-03 0. -1.
    9000002   -1    0    0    0    0 -0.00000000000E+00 -0.00000000000E+00  0.00000000000E+00  0.93800000000E+00  0.93800000000E+00 0.  1.
         11    1    1    2    0    0 -0.65009217243E-02 -0.89851354105E-01  0.83785241568E+00  0.84268170705E+00  0.51100000000E-03 0. -1.
    9000002    1    1    2    0    0 -0.20848335711E-01  0.34338108177E+00  0.79620436622E-01  0.10022617594E+01  0.93800000000E+00 0.  1.
         22    1    1    2    0    0  0.27349257436E-01 -0.25352972766E+00  0.30825271151E+01  0.30930565336E+01  0.00000000000E+00 0. -1.
</event>
<event>
 5    1  0.3222854E+002  0.1599668E+01  0.7818608E-02  0.3353723E+00
         11   -1    0    0    0    0  0.00000000000E+00  0.00000000000E+00  0.39999999674E+01  0.40000000000E+01  0.51100000000E-03 0. -1.
    9000002   -1    0    0    0    0 -0.00000000000E+00 -0.00000000000E+00  0.00000000000E+00  0.93800000000E+00  0.93800000000E+00 0. -1.
         11    1    1    2    0    0  0.10404587823E+00 -0.15970094823E-02  0.11078743985E+01  0.11127506635E+01  0.51100000000E-03 0. -1.
    9000002    1    1    2    0    0 -0.37677429816E+00  0.10460712125E-01  0.95560790676E-01  0.10154034484E+01  0.93800000000E+00 0. -1.
         22    1    1    2    0    0  0.27272841994E+00 -0.88637026428E-02  0.27965647782E+01  0.28098458881E+01  0.00000000000E+00 0. -1.
</event>
<event>
 5    1  0.3222854E+002  0.1599592E+01  0.7818608E-02  0.3353806E+00
         11   -1    0    0    0    0  0.00000000000E+00  0.00000000000E+00  0.39999999674E+01  0.40000000000E+01  0.51100000000E-03 0. -1.
    9000002   -1    0    0    0    0 -0.00000000000E+00 -0.00000000000E+00  0.00000000000E+00  0.93800000000E+00  0.93800000000E+00 0.  1.
         11    1    1    2    0    0  0.22497199085E-01  0.68270429787E-01  0.10110304745E+01  0.10135826839E+01  0.51100000000E-03 0. -1.
    9000002    1    1    2    0    0 -0.12341681657E+00 -0.25403114090E+00  0.53192646218E-01  0.98103872950E+00  0.93800000000E+00 0.  1.
         22    1    1    2    0    0  0.10091961749E+00  0.18576071111E+00  0.29357768466E+01  0.29433785866E+01  0.00000000000E+00 0. -1.
</event>
<event>
 5    1  0.3222854E+002  0.1599667E+01  0.7818608E-02  0.3353725E+00
         11   -1    0    0    0    0  0.00000000000E+00  0.00000000000E+00  0.39999999674E+01  0.40000000000E+01  0.51100000000E-03 0.  1.
    9000002   -1    0    0    0    0 -0.00000000000E+00 -0.00000000000E+00  0.00000000000E+00  0.93800000000E+00  0.93800000000E+00 0. -1.
         11    1    1    2    0    0  0.16675494801E-01 -0.28165716740E-01  0.50070454259E+00  0.50177353439E+00  0.51100000000E-03 0.  1.
    9000002    1    1    2    0    0 -0.12197902476E+00  0.20535385680E+00  0.37873435176E-01  0.96867305427E+00  0.93800000000E+00 0. -1.
         22    1    1    2    0    0  0.10530352996E+00 -0.17718814006E+00  0.34614219896E+01  0.34675534113E+01  0.00000000000E+00 0.  1.
</event>
<event>
 5    1  0.3222854E+002  0.1599674E+01  0.7818608E-02  0.3353717E+00
         11   -1    0    0    0    0  0.00000000000E+00  0.00000000000E+00  0.39999999674E+01  0.40000000000E+01  0.51100000000E-03 0. -1.
    9000002   -1    0    0    0    0 -0.00000000000E+00 -0.00000000000E+00  0.00000000000E+00  0.93800000000E+00  0.93800000000E+00 0. -1.
         11    1    1    2    0    0  0.49760656549E-01 -0.38615427722E-01  0.72684464222E+00  0.72956882420E+00  0.51100000000E-03 0. -1.
    9000002    1    1    2    0    0 -0.27242491554E+00  0.21501133564E+00  0.80735704253E-01  0.10033979584E+01  0.93800000000E+00 0. -1.
         22    1    1    2    0    0  0.22266425899E+00 -0.17639590792E+00  0.31924196209E+01  0.32050332174E+01  0.00000000000E+00 0. -1.
</event>
<event>
 5    1  0.3222854E+002  0.1579168E+01  0.7818608E-02  0.3376289E+00
         11   -1    0    0    0    0  0.00000000000E+00  0.00000000000E+00  0.39999999674E+01  0.40000000000E+01  0.51100000000E-03 0. -1.
    9000002   -1    0    0    0    0 -0.00000000000E+00 -0.00000000000E+00  0.00000000000E+00  0.93800000000E+00  0.93800000000E+00 0.  1.
         11    1    1    2    0    0 -0.11970986415E+00  0.79711931180E-01  0.78586957240E+00  0.79892157906E+00  0.51100000000E-03 0. -1.
    9000002    1    1    2    0    0  0.17820480101E+00  0.14787662381E+00  0.51291401364E-01  0.96752222446E+00  0.93800000000E+00 0.  1.
         22    1    1    2    0    0 -0.58494936863E-01 -0.22758855499E+00  0.31628389936E+01  0.31715561965E+01  0.00000000000E+00 0. -1.
</event>
<event>
 5    1  0.3222854E+002  0.1582303E+01  0.7818608E-02  0.3372798E+00
         11   -1    0    0    0    0  0.00000000000E+00  0.00000000000E+00  0.39999999674E+01  0.40000000000E+01  0.51100000000E-03 0. -1.
    9000002   -1    0    0    0    0 -0.00000000000E+00 -0.00000000000E+00  0.00000000000E+00  0.93800000000E+00  0.93800000000E+00 0. -1.
         11    1    1    2    0    0  0.28859487436E-01 -0.80743638650E-01  0.37352272368E+00  0.38323868728E+00  0.51100000000E-03 0. -1.
    9000002    1    1    2    0    0 -0.17772436573E+00 -0.12245368722E+00  0.44079266431E-01  0.96351846761E+00  0.93800000000E+00 0. -1.
         22    1    1    2    0    0  0.14886487830E+00  0.20319732587E+00  0.35823979772E+01  0.35912428451E+01  0.00000000000E+00 0. -1.
</event>
<event>
 5    1  0.3222854E+002  0.1598298E+01  0.7818608E-02  0.3355213E+00
         11   -1    0    0    0    0  0.00000000000E+00  0.00000000000E+00  0.39999999674E+01  0.40000000000E+01  0.51100000000E-03 0.  1.
    9000002   -1    0    0    0    0 -0.00000000000E+00 -0.00000000000E+00  0.00000000000E+00  0.93800000000E+00  0.93800000000E+00 0. -1.
         11    1    1    2    0    0  0.19984229987E-01 -0.10028401164E+00  0.82059855170E+00  0.82694528030E+00  0.51100000000E-03 0.  1.
    9000002    1    1    2    0    0 -0.72338474691E-02  0.32933185198E+00  0.73696181871E-01  0.99688862191E+00  0.93800000000E+00 0. -1.
         22    1    1    2    0    0 -0.12750382518E-01 -0.22904784034E+00  0.31057052338E+01  0.31141660978E+01  0.00000000000E+00 0.  1.
</event>
<event>
 5    1  0.3222854E+002  0.1599406E+01  0.7818608E-02  0.3354008E+00
         11   -1    0    0    0    0  0.00000000000E+00  0.00000000000E+00  0.39999999674E+01  0.40000000000E+01  0.51100000000E-03 0.  1.
    9000002   -1    0    0    0    0 -0.00000000000E+00 -0.00000000000E+00  0.00000000000E+00  0.93800000000E+00  0.93800000000E+00 0. -1.
         11    1    1    2    0    0  0.90207454471E-01 -0.13129085380E+00  0.85841387441E+00  0.87306890566E+00  0.51100000000E-03 0.  1.
    9000002    1    1    2    0    0 -0.39078526546E+00  0.62313399704E+00  0.39083375721E+00  0.12544337877E+01  0.93800000000E+00 0. -1.
         22    1    1    2    0    0  0.30057781099E+00 -0.49184314324E+00  0.27507523357E+01  0.28104973066E+01  0.00000000000E+00 0.  1.
</event>
<event>
 5    1  0.3222854E+002  0.1594792E+01  0.7818608E-02  0.3359036E+00
         11   -1    0    0    0    0  0.00000000000E+00  0.00000000000E+00  0.39999999674E+01  0.40000000000E+01  0.51100000000E-03 0.  1.
    9000002   -1    0    0    0    0 -0.00000000000E+00 -0.00000000000E+00  0.00000000000E+00  0.93800000000E+00  0.93800000000E+00 0.  1.
         11    1    1    2    0    0  0.18574007003E+00 -0.15507762154E+00  0.19291601511E+01  0.19442755957E+01  0.51100000000E-03 0.  1.
    9000002    1    1    2    0    0 -0.21600047325E+00  0.37391530625E+00  0.13048753580E+00  0.10408361339E+01  0.93800000000E+00 0.  1.
         22    1    1    2    0    0  0.30260403222E-01 -0.21883768471E+00  0.19403522805E+01  0.19528882704E+01  0.00000000000E+00 0.  1.
</event>
<event>
 5    1  0.3222854E+002  0.1599641E+01  0.7818608E-02  0.3353753E+00
         11   -1    0    0    0    0  0.00000000000E+00  0.00000000000E+00  0.39999999674E+01  0.40000000000E+01  0.51100000000E-03 0.  1.
    9000002   -1    0    0    0    0 -0.00000000000E+00 -0.00000000000E+00  0.00000000000E+00  0.93800000000E+00  0.93800000000E+00 0. -1.
         11    1    1    2    0    0 -0.59385567222E-02  0.11585045476E+00  0.14780451377E+01  0.14825903968E+01  0.51100000000E-03 0.  1.
    9000002    1    1    2    0    0  0.21680611662E-01 -0.32561539796E+00  0.71255675382E-01  0.99569915516E+00  0.93800000000E+00 0. -1.
         22    1    1    2    0    0 -0.15742054940E-01  0.20976494320E+00  0.24506991543E+01  0.24597104481E+01  0.00000000000E+00 0.  1.
</event>
<event>
 5    1  0.3222854E+002  0.1599671E+01  0.7818608E-02  0.3353721E+00
         11   -1    0    0    0    0  0.00000000000E+00  0.00000000000E+00  0.39999999674E+01  0.40000000000E+01  0.51100000000E-03 0. -1.
    9000002   -1    0    0    0    0 -0.00000000000E+00 -0.00000000000E+00  0.00000000000E+00  0.93800000000E+00  0.93800000000E+00 0.  1.
         11    1    1    2    0    0 -0.14329221761E-01 -0.74615310265E-01  0.95365060972E+00  0.95667262826E+00  0.51100000000E-03 0. -1.
    9000002    1    1    2    0    0  0.50670608123E-01  0.31378059253E+00  0.67515953211E-01  0.99268734993E+00  0.93800000000E+00 0.  1.
         22    1    1    2    0    0 -0.36341386362E-01 -0.23916528227E+00  0.29788334044E+01  0.29886400218E+01  0.00000000000E+00 0. -1.
</event>
<event>
 5    1  0.3222854E+002  0.1599566E+01  0.7818608E-02  0.3353835E+00
         11   -1    0    0    0    0  0.00000000000E+00  0.00000000000E+00  0.39999999674E+01  0.40000000000E+01  0.51100000000E-03 0.  1.
    9000002   -1    0    0    0    0 -0.00000000000E+00 -0.00000000000E+00  0.00000000000E+00  0.93800000000E+00  0.93800000000E+00 0. -1.
         11    1    1    2    0    0  0.18551953410E+00  0.28669043829E+00  0.23073449368E+01  0.23324771860E+01  0.51100000000E-03 0.  1.
    9000002    1    1    2    0    0 -0.32379690112E+00 -0.46683024980E+00  0.22383371861E+00  0.11192499492E+01  0.93800000000E+00 0. -1.
         22    1    1    2    0    0  0.13827736702E+00  0.18013981152E+00  0.14688213120E+01  0.14862728647E+01  0.00000000000E+00 0. -1.
</event>
<event>
 5    1  0.3222854E+002  0.1599667E+01  0.7818608E-02  0.3353725E+00
         11   -1    0    0    0    0  0.00000000000E+00  0.00000000000E+00  0.39999999674E+01  0.40000000000E+01  0.51100000000E-03 0. -1.
    9000002   -1    0    0    0    0 -0.00000000000E+00 -0.00000000000E+00  0.00000000000E+00  0.93800000000E+00  0.93800000000E+00 0. -1.
         11    1    1    2    0    0  0.64440933175E-02  0.25121553837E-01  0.38307527724E+00  0.38395253347E+00  0.51100000000E-03 0. -1.
    9000002    1    1    2    0    0 -0.67642180379E-01 -0.28174106490E+00  0.55961913494E-01  0.98332559612E+00  0.93800000000E+00 0. -1.
         22    1    1    2    0    0  0.61198087061E-01  0.25661951106E+00  0.35609627766E+01  0.35707218704E+01  0.00000000000E+00 0. -1.
</event>
<event>
 5    1  0.3222854E+002  0.1599677E+01  0.7818608E-02  0.3353714E+00
         11   -1    0    0    0    0  0.00000000000E+00  0.00000000000E+00  0.39999999674E+01  0.40000000000E+01  0.51100000000E-03 0. -1.
    9000002   -1    0    0    0    0 -0.00000000000E+00 -0.00000000000E+00  0.00000000000E+00  0.93800000000E+00  0.93800000000E+00 0. -1.
         11    1    1    2    0    0  0.46868094797E-01 -0.63656661319E+00  0.24913596364E+01  0.25718255715E+01  0.51100000000E-03 0. -1.
    9000002    1    1    2    0    0 -0.64758220528E-01  0.87352459814E+00  0.58134730956E+00  0.14089171534E+01  0.93800000000E+00 0. -1.
         22    1    1    2    0    0  0.17890125731E-01 -0.23695798496E+00  0.92729302139E+00  0.95725727511E+00  0.00000000000E+00 0. -1.
</event>
<event>
 5    1  0.3222854E+002  0.1599644E+01  0.7818608E-02  0.3353750E+00
         11   -1    0    0    0    0  0.00000000000E+00  0.00000000000E+00  0.39999999674E+01  0.40000000000E+01  0.51100000000E-03 0.  1.
    9000002   -1    0    0    0    0 -0.00000000000E+00 -0.00000000000E+00  0.00000000000E+00  0.93800000000E+00  0.93800000000E+00 0. -1.
         11    1    1    2    0    0  0.25922042083E-01  0.11761448266E-04  0.33470090968E+00  0.33570360806E+00  0.51100000000E-03 0.  1.
    9000002    1    1    2    0    0 -0.29161130801E+00 -0.43399598127E-01  0.57984217782E-01  0.98495017620E+00  0.93800000000E+00 0. -1.
         22    1    1    2    0    0  0.26568926592E+00  0.43387836679E-01  0.36073148399E+01  0.36173462157E+01  0.00000000000E+00 0.  1.
</event>
<event>
 5    1  0.3222854E+002  0.1599669E+01  0.7818608E-02  0.3353723E+00
         11   -1    0    0    0    0  0.00000000000E+00  0.00000000000E+00  0.39999999674E+01  0.40000000000E+01  0.51100000000E-03 0. -1.
    9000002   -1    0    0    0    0 -0.00000000000E+00 -0.00000000000E+00  0.00000000000E+00  0.93800000000E+00  0.93800000000E+00 0. -1.
         11    1    1    2    0    0 -0.35011385631E-01  0.26253711392E-01  0.64591628842E+00  0.64739722524E+00  0.51100000000E-03 0. -1.
    9000002    1    1    2    0    0  0.19907468169E+00 -0.16211957508E+00  0.43814839579E-01  0.97348714716E+00  0.93800000000E+00 0. -1.
         22    1    1    2    0    0 -0.16406329605E+00  0.13586586368E+00  0.33102688394E+01  0.33171156276E+01  0.00000000000E+00 0. -1.
</event>
<event>
 5    1  0.3222854E+002  0.1493580E+01  0.7818608E-02  0.3477637E+00
         11   -1    0    0    0    0  0.00000000000E+00  0.00000000000E+00  0.39999999674E+01  0.40000000000E+01  0.51100000000E-03 0.  1.
    9000002   -1    0    0    0    0 -0.00000000000E+00 -0.00000000000E+00  0.00000000000E+00  0.93800000000E+00  0.93800000000E+00 0. -1.
         11    1    1    2    0    0 -0.40823531115E+00  0.41980966124E+00  0.31341118689E+01  0.31883465447E+01  0.51100000000E-03 0.  1.
    9000002    1    1    2    0    0  0.15638483203E+00 -0.38043433431E+00  0.20939485575E+00  0.10454074345E+01  0.93800000000E+00 0. -1.
         22    1    1    2    0    0  0.25185047912E+00 -0.39375326924E-01  0.65649324268E+00  0.70424602085E+00  0.00000000000E+00 0. -1.
</event>
<event>
 5    1  0.3535819E+002  0.1473059E+01  0.7818608E-02  0.3503822E+00
         11   -1    0    0    0    0  0.00000000000E+00  0.00000000000E+00  0.39999999674E+01  0.40000000000E+01  0.51100000000E-03 0. -1.
    9000002   -1    0    0    0    0 -0.00000000000E+00 -0.00000000000E+00  0.00000000000E+00  0.93800000000E+00  0.93800000000E+00 0.  1.
         11    1    1    2    0    0 -0.21503170969E-02 -0.90478616606E-01  0.11522752609E-02  0.90512942642E-01  0.51100000000E-03 0. -1.
    9000002    1    1    2    0    0 -0.61330343589E-02 -0.11281401194E+00  0.10755859692E+00  0.95088246759E+00  0.93800000000E+00 0.  1.
         22    1    1    2    0    0  0.82833514558E-02  0.20329262854E+00  0.38912890952E+01  0.38966045898E+01  0.00000000000E+00 0. -1.
</event>
<event>
 5    1  0.3222854E+002  0.1599510E+01  0.7818608E-02  0.3353896E+00
         11   -1    0    0    0    0  0.00000000000E+00  0.00000000000E+00  0.39999999674E+01  0.40000000000E+01  0.51100000000E-03 0.  1.
    9000002   -1    0    0    0    0 -0.00000000000E+00 -0.00000000000E+00  0.00000000000E+00  0.93800000000E+00  0.93800000000E+00 0.  1.
         11    1    1    2    0    0  0.27867595291E+00  0.24199654988E-01  0.18320078638E+01  0.18532401313E+01  0.51100000000E-03 0.  1.
    9000002    1    1    2    0    0 -0.59162800130E+00 -0.24862597198E-01  0.24440088737E+00  0.11358774733E+01  0.93800000000E+00 0.  1.
         22    1    1    2    0    0  0.31295204839E+00  0.66294220969E-03  0.19235912162E+01  0.19488823954E+01  0.00000000000E+00 0. -1.
</event>
<event>
 5    1  0.3708673E+002  0.1599676E+01  0.7818608E-02  0.3353715E+00
         11   -1    0    0    0    0  0.00000000000E+00  0.00000000000E+00  0.39999999674E+01  0.40000000000E+01  0.51100000000E-03 0. -1.
    9000002   -1    0    0    0    0 -0.00000000000E+00 -0.00000000000E+00  0.00000000000E+00  0.93800000000E+00  0.93800000000E+00 0. -1.
         11    1    1    2    0    0  0.44691193476E+00  0.21737506582E-01  0.24239245111E+01  0.24648758779E+01  0.51100000000E-03 0. -1.
    9000002    1    1    2    0    0 -0.67888334200E+00 -0.32982619752E-01  0.32840145974E+00  0.12040190879E+01  0.93800000000E+00 0. -1.
         22    1    1    2    0    0  0.23197140725E+00  0.11245113170E-01  0.12476739965E+01  0.12691050342E+01  0.00000000000E+00 0. -1.
</event>
<event>
 5    1  0.3222854E+002  0.1599669E+01  0.7818608E-02  0.3353722E+00
         11   -1    0    0    0    0  0.00000000000E+00  0.00000000000E+00  0.39999999674E+01  0.40000000000E+01  0.51100000000E-03 0. -1.
    9000002   -1    0    0    0    0 -0.00000000000E+00 -0.00000000000E+00  0.00000000000E+00  0.93800000000E+00  0.93800000000E+00 0. -1.
         11    1    1    2    0    0 -0.22234783840E-01  0.13412369266E-01  0.42574053786E+00  0.42653199641E+00  0.51100000000E-03 0. -1.
    9000002    1    1    2    0    0  0.19938515713E+00 -0.14185138047E+00  0.39764970492E-01  0.97020694076E+00  0.93800000000E+00 0. -1.
         22    1    1    2    0    0 -0.17715037329E+00  0.12843901121E+00  0.35344944590E+01  0.35412610628E+01  0.00000000000E+00 0. -1.
</event>
<event>
 5    1  0.3222854E+002  0.1594629E+01  0.7818608E-02  0.3359213E+00
         11   -1    0    0    0    0  0.00000000000E+00  0.00000000000E+00  0.39999999674E+01  0.40000000000E+01  0.51100000000E-03 0.  1.
    9000002   -1    0    0    0    0 -0.00000000000E+00 -0.00000000000E+00  0.00000000000E+00  0.93800000000E+00  0.93800000000E+00 0. -1.
         11    1    1    2    0    0  0.19330688313E+00 -0.40118718950E-01  0.88559012361E+00  0.90732970349E+00  0.51100000000E-03 0.  1.
    9000002    1    1    2    0    0 -0.51385279066E+00  0.17743481677E+00  0.20862595924E+00  0.11040365010E+01  0.93800000000E+00 0. -1.
         22    1    1    2    0    0  0.32054590752E+00 -0.13731609782E+00  0.29057838845E+01  0.29266337955E+01  0.00000000000E+00 0.  1.
</event>
<event>
 5    1  0.3222854E+002  0.1599669E+01  0.7818608E-02  0.3353723E+00
         11   -1    0    0    0    0  0.00000000000E+00  0.00000000000E+00  0.39999999674E+01  0.40000000000E+01  0.51100000000E-03 0. -1.
    9000002   -1    0    0    0    0 -0.00000000000E+00 -0.00000000000E+00  0.00000000000E+00  0.93800000000E+00  0.93800000000E+00 0. -1.
         11    1    1    2    0    0 -0.18455365606E-01 -0.32396693488E+00  0.13693452303E+01  0.14072674928E+01  0.51100000000E-03 0. -1.
    9000002    1    1    2    0    0  0.42470493265E-01  0.83144535196E+00  0.51645327996E+00  0.13563454967E+01  0.93800000000E+00 0. -1.
         22    1    1    2    0    0 -0.24015127659E-01 -0.50747841708E+00  0.21142014571E+01  0.21743870105E+01  0.00000000000E+00 0. -1.
</event>
<event>
 5    1  0.3222854E+002  0.1595335E+01  0.7818608E-02  0.3358442E+00
         11   -1    0    0    0    0  0.00000000000E+00  0.00000000000E+00  0.39999999674E+01  0.40000000000E+01  0.51100000000E-03 0.  1.
    9000002   -1    0    0    0    0 -0.00000000000E+00 -0.00000000000E+00  0.00000000000E+00  0.93800000000E+00  0.93800000000E+00 0.  1.
         11    1    1    2    0    0 -0.39480364038E-01 -0.84404830436E-02  0.40031457936E+00  0.40234557841E+00  0.51100000000E-03 0.  1.
    9000002    1    1    2    0    0  0.36562297578E-01 -0.23011609586E+00  0.39320984107E-01  0.96730572156E+00  0.93800000000E+00 0.  1.
         22    1    1    2    0    0  0.29180664601E-02  0.23855657891E+00  0.35603644039E+01  0.35683487000E+01  0.00000000000E+00 0.  1.
</event>
<event>
 5    1  0.3222854E+002  0.1599649E+01  0.7818608E-02  0.3353744E+00
         11   -1    0    0    0    0  0.00000000000E+00  0.00000000000E+00  0.39999999674E+01  0.40000000000E+01  0.51100000000E-03 0. -1.
    9000002   -1    0    0    0    0 -0.00000000000E+00 -0.00000000000E+00  0.00000000000E+00  0.93800000000E+00  0.93800000000E+00 0.  1.
         11    1    1    2    0    0  0.17688305762E-01 -0.73495185429E-02  0.32190572003E+00  0.32247549565E+00  0.51100000000E-03 0. -1.
    9000002    1    1    2    0    0 -0.23892640139E+00  0.53855762797E-01  0.39854150237E-01  0.97026729398E+00  0.93800000000E+00 0.  1.
         22    1    1    2    0    0  0.22123809563E+00 -0.46506244255E-01  0.36382400971E+01  0.36452572104E+01  0.00000000000E+00 0. -1.
</event>
<event>
 5    1  0.3222854E+002  0.1587282E+01  0.7818608E-02  0.3367284E+00
         11   -1    0    0    0    0  0.00000000000E+00  0.00000000000E+00  0.39999999674E+01  0.40000000000E+01  0.51100000000E-03 0. -1.
    9000002   -1    0    0    0    0 -0.00000000000E+00 -0.00000000000E+00  0.00000000000E+00  0.93800000000E+00  0.93800000000E+00 0.  1.
         11    1    1    2    0    0 -0.38286701014E-01 -0.21066602843E-01  0.68857056016E-01  0.81555064306E-01  0.51100000000E-03 0. -1.
    9000002    1    1    2    0    0  0.44524607189E+00 -0.54162231800E-01  0.14737892105E+00  0.10501153071E+01  0.93800000000E+00 0.  1.
         22    1    1    2    0    0 -0.40695937088E+00  0.75228834643E-01  0.37837639903E+01  0.38063296286E+01  0.00000000000E+00 0. -1.
</event>
<event>
 5    1  0.3222854E+002  0.1599360E+01  0.7818608E-02  0.3354059E+00
         11   -1    0    0    0    0  0.00000000000E+00  0.00000000000E+00  0.39999999674E+01  0.40000000000E+01  0.51100000000E-03 0. -1.
    9000002   -1    0    0    0    0 -0.00000000000E+00 -0.00000000000E+00  0.00000000000E+00  0.93800000000E+00  0.93800000000E+00 0. -1.
         11    1    1    2    0    0  0.47917435114E-01 -0.23841135576E-01  0.69486885636E+00  0.69692716190E+00  0.51100000000E-03 0. -1.
    9000002    1    1    2    0    0 -0.20571482089E+00  0.20014228443E+00  0.55135728800E-01  0.98247619317E+00  0.93800000000E+00 0. -1.
         22    1    1    2    0    0  0.15779738578E+00 -0.17630114885E+00  0.32499953822E+01  0.32585966449E+01  0.00000000000E+00 0. -1.
</event>
<event>
 5    1  0.3222854E+002  0.1599607E+01  0.7818608E-02  0.3353790E+00
         11   -1    0    0    0    0  0.00000000000E+00  0.00000000000E+00  0.39999999674E+01  0.40000000000E+01  0.51100000000E-03 0. -1.
    9000002   -1    0    0    0    0 -0.00000000000E+00 -0.00000000000E+00  0.00000000000E+00  0.93800000000E+00  0.93800000000E+00 0.  1.
         11    1    1    2    0    0 -0.20837109362E-03 -0.33307651146E-01  0.36173939137E+00  0.36326999798E+00  0.51100000000E-03 0. -1.
    9000002    1    1    2    0    0  0.36442496227E-01  0.30924489962E+00  0.64808407944E-01  0.99045675989E+00  0.93800000000E+00 0.  1.
         22    1    1    2    0    0 -0.36234125134E-01 -0.27593724848E+00  0.35734521680E+01  0.35842732421E+01  0.00000000000E+00 0. -1.
</event>
<event>
 5    1  0.3222854E+002  0.1595845E+01  0.7818608E-02  0.3357886E+00
         11   -1    0    0    0    0  0.00000000000E+00  0.00000000000E+00  0.39999999674E+01  0.40000000000E+01  0.51100000000E-03 0.  1.
    9000002   -1    0    0    0    0 -0.00000000000E+00 -0.00000000000E+00  0.00000000000E+00  0.93800000000E+00  0.93800000000E+00 0.  1.
         11    1    1    2    0    0  0.17003239159E+00  0.29469183721E+00  0.22204215660E+01  0.22463362360E+01  0.51100000000E-03 0.  1.
    9000002    1    1    2    0    0 -0.39663508146E+00 -0.43975822009E+00  0.24807090203E+00  0.11367013031E+01  0.93800000000E+00 0.  1.
         22    1    1    2    0    0  0.22660268987E+00  0.14506638288E+00  0.15315074993E+01  0.15549624610E+01  0.00000000000E+00 0.  1.
</event>
<event>
 5    1  0.3222854E+002  0.1599674E+01  0.7818608E-02  0.3353717E+00
         11   -1    0    0    0    0  0.00000000000E+00  0.00000000000E+00  0.39999999674E+01  0.40000000000E+01  0.51100000000E-03 0. -1.
    9000002   -1    0    0    0    0 -0.00000000000E+00 -0.00000000000E+00  0.00000000000E+00  0.93800000000E+00  0.93800000000E+00 0. -1.
         11    1    1    2    0    0 -0.15816003729E-01 -0.32230613181E-02  0.27119754097E+00  0.27167793699E+00  0.51100000000E-03 0. -1.
    9000002    1    1    2    0    0  0.21851911463E+00  0.49645077528E-01  0.33296998189E-01  0.96497042818E+00  0.93800000000E+00 0. -1.
         22    1    1    2    0    0 -0.20270311090E+00 -0.46422016210E-01  0.36955054282E+01  0.37013516348E+01  0.00000000000E+00 0. -1.
</event>
<event>
 5    1  0.3222854E+002  0.1597830E+01  0.7818608E-02  0.3355722E+00
         11   -1    0    0    0    0  0.00000000000E+00  0.00000000000E+00  0.39999999674E+01  0.40000000000E+01  0.51100000000E-03 0.  1.
    9000002   -1    0    0    0    0 -0.00000000000E+00 -0.00000000000E+00  0.00000000000E+00  0.93800000000E+00  0.93800000000E+00 0.  1.
         11    1    1    2    0    0 -0.25571320096E-02 -0.40703848445E-02  0.68268570277E-02  0.83650495978E-02  0.51100000000E-03 0.  1.
    9000002    1    1    2    0    0 -0.77199535458E-01  0.24868652979E+00  0.46498240093E-01  0.97458239503E+00  0.93800000000E+00 0.  1.
         22    1    1    2    0    0  0.79756667468E-01 -0.24461614494E+00  0.39466748702E+01  0.39550525554E+01  0.00000000000E+00 0.  1.
</event>
<event>
 5    1  0.3222854E+002  0.1540413E+01  0.7818608E-02  0.3420690E+00
         11   -1    0    0    0    0  0.00000000000E+00  0.00000000000E+00  0.39999999674E+01  0.40000000000E+01  0.51100000000E-03 0.  1.
    9000002   -1    0    0    0    0 -0.00000000000E+00 -0.00000000000E+00  0.00000000000E+00  0.93800000000E+00  0.93800000000E+00 0.  1.
         11    1    1    2    0    0  0.42632285087E-01  0.19737109310E+00  0.38106834186E+00  0.43126117657E+00  0.51100000000E-03 0.  1.
    9000002    1    1    2    0    0 -0.24913717317E+00 -0.18814161658E+00  0.11334914799E+00  0.99506714763E+00  0.93800000000E+00 0.  1.
         22    1    1    2    0    0  0.20650488808E+00 -0.92294765204E-02  0.35055824775E+01  0.35116716758E+01  0.00000000000E+00 0.  1.
</event>
<event>
 5    1  0.3222854E+002  0.1599666E+01  0.7818608E-02  0.3353726E+00
         11   -1    0    0    0    0  0.00000000000E+00  0.00000000000E+00  0.39999999674E+01  0.40000000000E+01  0.51100000000E-03 0. -1.
    9000002   -1    0    0    0    0 -0.00000000000E+00 -0.00000000000E+00  0.00000000000E+00  0.93800000000E+00  0.93800000000E+00 0.  1.
         11    1    1    2    0    0 -0.55577857132E-01 -0.12873491120E+00  0.15927761065E+01  0.15989363846E+01  0.51100000000E-03 0. -1.
    9000002    1    1    2    0    0  0.13876903036E+00  0.32613419389E+00  0.84280454188E-01  0.10062641558E+01  0.93800000000E+00 0.  1.
         22    1    1    2    0    0 -0.83191173231E-01 -0.19739928268E+00  0.23229434067E+01  0.23327994596E+01  0.00000000000E+00 0. -1.
</event>
<event>
 5    1  0.3222854E+002  0.1596594E+01  0.7818608E-02  0.3357069E+00
         11   -1    0    0    0    0  0.00000000000E+00  0.00000000000E+00  0.39999999674E+01  0.40000000000E+01  0.51100000000E-03 0. -1.
    9000002   -1    0    0    0    0 -0.00000000000E+00 -0.00000000000E+00  0.00000000000E+00  0.93800000000E+00  0.93800000000E+00 0. -1.
         11    1    1    2    0    0  0.79770284291E-01 -0.15101186948E+00  0.17974497062E+01  0.18055452336E+01  0.51100000000E-03 0. -1.
    9000002    1    1    2    0    0 -0.28829171278E+00  0.24028453529E+00  0.97241989968E-01  0.10149624496E+01  0.93800000000E+00 0. -1.
         22    1    1    2    0    0  0.20852142848E+00 -0.89272665811E-01  0.21053082711E+01  0.21174923168E+01  0.00000000000E+00 0.  1.
</event>
<event>
 5    1  0.3222854E+002  0.1599677E+01  0.7818608E-02  0.3353714E+00
         11   -1    0    0    0    0  0.00000000000E+00  0.00000000000E+00  0.39999999674E+01  0.40000000000E+01  0.51100000000E-03 0. -1.
    9000002   -1    0    0    0    0 -0.00000000000E+00 -0.00000000000E+00  0.00000000000E+00  0.93800000000E+00  0.93800000000E+00 0.  1.
         11    1    1    2    0    0 -0.10760656931E+00 -0.84090807214E-01  0.12142210710E+01  0.12218770429E+01  0.51100000000E-03 0. -1.
    9000002    1    1    2    0    0  0.34283829080E+00  0.26817103846E+00  0.12840016164E+00  0.10420097893E+01  0.93800000000E+00 0.  1.
         22    1    1    2    0    0 -0.23523172149E+00 -0.18408023125E+00  0.26573787347E+01  0.26741131678E+01  0.00000000000E+00 0.  1.
</event>
<event>
 5    1  0.3222854E+002  0.1599629E+01  0.7818608E-02  0.3353766E+00
         11   -1    0    0    0    0  0.00000000000E+00  0.00000000000E+00  0.39999999674E+01  0.40000000000E+01  0.51100000000E-03 0. -1.
    9000002   -1    0    0    0    0 -0.00000000000E+00 -0.00000000000E+00  0.00000000000E+00  0.93800000000E+00  0.93800000000E+00 0.  1.
         11    1    1    2    0    0 -0.24018152769E+00  0.17006069986E+00  0.20999686205E+01  0.21204896312E+01  0.51100000000E-03 0. -1.
    9000002    1    1    2    0    0  0.42299191760E+00 -0.30156643570E+00  0.18540161667E+00  0.10881554287E+01  0.93800000000E+00 0.  1.
         22    1    1    2    0    0 -0.18281038991E+00  0.13150573584E+00  0.17146297302E+01  0.17293549401E+01  0.00000000000E+00 0. -1.
</event>
<event>
 5    1  0.3222854E+002  0.1599616E+01  0.7818608E-02  0.3353780E+00
         11   -1    0    0    0    0  0.00000000000E+00  0.00000000000E+00  0.39999999674E+01  0.40000000000E+01  0.51100000000E-03 0. -1.
    9000002   -1    0    0    0    0 -0.00000000000E+00 -0.00000000000E+00  0.00000000000E+00  0.93800000000E+00  0.93800000000E+00 0. -1.
         11    1    1    2    0    0  0.15112782991E-02 -0.61407310866E-01  0.84161138283E+00  0.84385017783E+00  0.51100000000E-03 0. -1.
    9000002    1    1    2    0    0  0.17689468863E-01  0.26212624799E+00  0.45944235439E-01  0.97518098831E+00  0.93800000000E+00 0. -1.
         22    1    1    2    0    0 -0.19200747162E-01 -0.20071893712E+00  0.31124443491E+01  0.31189688339E+01  0.00000000000E+00 0. -1.
</event>
<event>
 5    1  0.3222854E+002  0.1594560E+01  0.7818608E-02  0.3359289E+00
         11   -1    0    0    0    0  0.00000000000E+00  0.00000000000E+00  0.39999999674E+01  0.40000000000E+01  0.51100000000E-03 0. -1.
    9000002   -1    0    0    0    0 -0.00000000000E+00 -0.00000000000E+00  0.00000000000E+00  0.93800000000E+00  0.93800000000E+00 0.  1.
         11    1    1    2    0    0 -0.17206077553E-01 -0.24167979086E-01  0.10352659341E+00  0.10769473980E+00  0.51100000000E-03 0. -1.
    9000002    1    1    2    0    0 -0.14211959371E+00  0.22599583496E+00  0.51359585188E-01  0.97660324765E+00  0.93800000000E+00 0.  1.
         22    1    1    2    0    0  0.15932567126E+00 -0.20182785588E+00  0.38451137888E+01  0.38537020125E+01  0.00000000000E+00 0. -1.
</event>
<event>
 5    1  0.3222854E+002  0.1485047E+01  0.7818608E-02  0.3488431E+00
         11   -1    0    0    0    0  0.00000000000E+00  0.00000000000E+00  0.39999999674E+01  0.40000000000E+01  0.51100000000E-03 0.  1.
    9000002   -1    0    0    0    0 -0.00000000000E+00 -0.00000000000E+00  0.00000000000E+00  0.93800000000E+00  0.93800000000E+00 0.  1.
         11    1    1    2    0    0  0.31102239329E+00 -0.25181038622E+00  0.77815632911E+00  0.87502624726E+00  0.51100000000E-03 0.  1.
    9000002    1    1    2    0    0 -0.38886691859E+00  0.30169773412E-01  0.20417481410E+00  0.10361752025E+01  0.93800000000E+00 0.  1.
         22    1    1    2    0    0  0.77844525300E-01  0.22164061281E+00  0.30176688242E+01  0.30267985502E+01  0.00000000000E+00 0.  1.
</event>
<event>
 5    1  0.3222854E+002  0.1599063E+01  0.7818608E-02  0.3354380E+00
         11   -1    0    0    0    0  0.00000000000E+00  0.00000000000E+00  0.39999999674E+01  0.40000000000E+01  0.51100000000E-03 0. -1.
    9000002   -1    0    0    0    0 -0.00000000000E+00 -0.00000000000E+00  0.00000000000E+00  0.93800000000E+00  0.93800000000E+00 0.  1.
         11    1    1    2    0    0  0.22962147130E+00 -0.20917582264E+00  0.21410954789E+01  0.21635088758E+01  0.51100000000E-03 0. -1.
    9000002    1    1    2    0    0 -0.35699390821E+00  0.38276486965E+00  0.18886170293E+00  0.10906265808E+01  0.93800000000E+00 0.  1.
         22    1    1    2    0    0  0.12737243691E+00 -0.17358904701E+00  0.16700427855E+01  0.16838645434E+01  0.00000000000E+00 0.  1.
</event>
<event>
 5    1  0.3222854E+002  0.1593486E+01  0.7818608E-02  0.3360464E+00
         11   -1    0    0    0    0  0.00000000000E+00  0.00000000000E+00  0.39999999674E+01  0.40000000000E+01  0.51100000000E-03 0.  1.
    9000002   -1    0    0    0    0 -0.00000000000E+00 -0.00000000000E+00  0.00000000000E+00  0.93800000000E+00  0.93800000000E+00 0.  1.
         11    1    1    2    0    0 -0.22001952896E-01 -0.58648335302E-01  0.39639818141E+00  0.40131719687E+00  0.51100000000E-03 0.  1.
    9000002    1    1    2    0    0  0.24960997526E+00  0.17385772693E-01  0.46336560732E-01  0.97190456409E+00  0.93800000000E+00 0.  1.
         22    1    1    2    0    0 -0.22760802236E+00  0.41262562609E-01  0.35572652252E+01  0.35647782390E+01  0.00000000000E+00 0.  1.
</event>
<event>
 5    1  0.3222854E+002  0.1599657E+01  0.7818608E-02  0.3353736E+00
         11   -1    0    0    0    0  0.00000000000E+00  0.00000000000E+00  0.39999999674E+01  0.40000000000E+01  0.51100000000E-03 0. -1.
    9000002   -1    0    0    0    0 -0.00000000000E+00 -0.00000000000E+00  0.00000000000E+00  0.93800000000E+00  0.93800000000E+00 0.  1.
         11    1    1    2    0    0 -0.12843625599E-01  0.15963657184E-01  0.31855133978E+00  0.31920998460E+00  0.51100000000E-03 0. -1.
    9000002    1    1    2    0    0  0.18905154549E+00 -0.21766965433E+00  0.55407292738E-01  0.98287055778E+00  0.93800000000E+00 0.  1.
         22    1    1    2    0    0 -0.17620791989E+00  0.20170599715E+00  0.36260413348E+01  0.36359194576E+01  0.00000000000E+00 0. -1.
</event>
<event>
 5    1  0.3222854E+002  0.1599461E+01  0.7818608E-02  0.3353948E+00
         11   -1    0    0    0    0  0.00000000000E+00  0.00000000000E+00  0.39999999674E+01  0.40000000000E+01  0.51100000000E-03 0.  1.
    9000002   -1    0    0    0    0 -0.00000000000E+00 -0.00000000000E+00  0.00000000000E+00  0.93800000000E+00  0.93800000000E+00 0.  1.
         11    1    1    2    0    0  0.11215739508E-01 -0.27033080486E+00  0.22679306595E+01  0.22840127571E+01  0.51100000000E-03 0.  1.
    9000002    1    1    2    0    0 -0.22332308685E-01  0.48687814353E+00  0.16246932554E+00  0.10694808743E+01  0.93800000000E+00 0.  1.
         22    1    1    2    0    0  0.11116569177E-01 -0.21654733867E+00  0.15695999823E+01  0.15845063687E+01  0.00000000000E+00 0.  1.
</event>
<event>
 5    1  0.3222854E+002  0.1387925E+01  0.7818608E-02  0.3626426E+00
         11   -1    0    0    0    0  0.00000000000E+00  0.00000000000E+00  0.39999999674E+01  0.40000000000E+01  0.51100000000E-03 0.  1.
    9000002   -1    0    0    0    0 -0.00000000000E+00 -0.00000000000E+00  0.00000000000E+00  0.93800000000E+00  0.93800000000E+00 0. -1.
         11    1    1    2    0    0 -0.61187644368E+00  0.36359402040E+00  0.68013450076E+00  0.98446767049E+00  0.51100000000E-03 0.  1.
    9000002    1    1    2    0    0  0.63941810205E+00 -0.59577977989E+00  0.10106318348E+01  0.16324918869E+01  0.93800000000E+00 0. -1.
         22    1    1    2    0    0 -0.27541658369E-01  0.23218575949E+00  0.23092336318E+01  0.23210404426E+01  0.00000000000E+00 0.  1.
</event>
<event>
 5    1  0.3222854E+002  0.1581390E+01  0.7818608E-02  0.3373814E+00
         11   -1    0    0    0    0  0.00000000000E+00  0.00000000000E+00  0.39999999674E+01  0.40000000000E+01  0.51100000000E-03 0. -1.
    9000002   -1    0    0    0    0 -0.00000000000E+00 -0.00000000000E+00  0.00000000000E+00  0.93800000000E+00  0.93800000000E+00 0.  1.
         11    1    1    2    0    0 -0.17092301810E+00 -0.31333254842E+00  0.21581322095E+01  0.21874475671E+01  0.51100000000E-03 0. -1.
    9000002    1    1    2    0    0  0.32706886838E-01  0.46250703799E+00  0.16246006259E+00  0.10588766560E+01  0.93800000000E+00 0.  1.
         22    1    1    2    0    0  0.13821613126E+00 -0.14917448957E+00  0.16794076953E+01  0.16916757769E+01  0.00000000000E+00 0.  1.
</event>
<event>
 5    1  0.3222854E+002  0.1596680E+01  0.7818608E-02  0.3356974E+00
         11   -1    0    0    0    0  0.00000000000E+00  0.00000000000E+00  0.39999999674E+01  0.40000000000E+01  0.51100000000E-03 0.  1.
    9000002   -1    0    0    0    0 -0.00000000000E+00 -0.00000000000E+00  0.00000000000E+00  0.93800000000E+00  0.93800000000E+00 0.  1.
         11    1    1    2    0    0 -0.18601798109E+00  0.20015519135E+00  0.24670631611E+01  0.24821494096E+01  0.51100000000E-03 0.  1.
    9000002    1    1    2    0    0  0.38630058419E+00 -0.32033706008E+00  0.17516292871E+00  0.10781326565E+01  0.93800000000E+00 0.  1.
         22    1    1    2    0    0 -0.20028260311E+00  0.12018186873E+00  0.13577738776E+01  0.13777179339E+01  0.00000000000E+00 0.  1.
</event>
<event>
 5    1  0.3222854E+002  0.1599677E+01  0.7818608E-02  0.3353714E+00
         11   -1    0    0    0    0  0.00000000000E+00  0.00000000000E+00  0.39999999674E+01  0.40000000000E+01  0.51100000000E-03 0. -1.
    9000002   -1    0    0    0    0 -0.00000000000E+00 -0.00000000000E+00  0.00000000000E+00  0.93800000000E+00  0.93800000000E+00 0.  1.
         11    1    1    2    0    0 -0.54199130462E-01 -0.26422265474E-01  0.71513470934E+00  0.71767234549E+00  0.51100000000E-03 0.  1.
    9000002    1    1    2    0    0  0.29789116157E+00  0.14375883006E+00  0.73207124243E-01  0.99730087155E+00  0.93800000000E+00 0.  1.
         22    1    1    2    0    0 -0.24369203111E+00 -0.11733656458E+00  0.32116581338E+01  0.32230267830E+01  0.00000000000E+00 0. -1.
</event>
<event>
 5    1  0.3222854E+002  0.1599656E+01  0.7818608E-02  0.3353737E+00
         11   -1    0    0    0    0  0.00000000000E+00  0.00000000000E+00  0.39999999674E+01  0.40000000000E+01  0.51100000000E-03 0.  1.
    9000002   -1    0    0    0    0 -0.00000000000E+00 -0.00000000000E+00  0.00000000000E+00  0.93800000000E+00  0.93800000000E+00 0. -1.
         11    1    1    2    0    0  0.65967199626E-01 -0.32457491201E-01  0.67743568019E+00  0.68141362040E+00  0.51100000000E-03 0.  1.
    9000002    1    1    2    0    0 -0.39507380595E+00  0.20030042101E+00  0.13313899807E+00  0.10458362987E+01  0.93800000000E+00 0. -1.
         22    1    1    2    0    0  0.32910660632E+00 -0.16784292981E+00  0.31894252891E+01  0.32107500809E+01  0.00000000000E+00 0.  1.
</event>
<event>
 5    1  0.3222854E+002  0.1599660E+01  0.7818608E-02  0.3353733E+00
         11   -1    0    0    0    0  0.00000000000E+00  0.00000000000E+00  0.39999999674E+01  0.40000000000E+01  0.51100000000E-03 0.  1.
    9000002   -1    0    0    0    0 -0.00000000000E+00 -0.00000000000E+00  0.00000000000E+00  0.93800000000E+00  0.93800000000E+00 0. -1.
         11    1    1    2    0    0 -0.15010493804E+00  0.18708429933E+00  0.17235907959E+01  0.17402004254E+01  0.51100000000E-03 0.  1.
    9000002    1    1    2    0    0  0.33840692354E+00 -0.40475419316E+00  0.19147433859E+00  0.10930926883E+01  0.93800000000E+00 0. -1.
         22    1    1    2    0    0 -0.18830198550E+00  0.21766989383E+00  0.20849348328E+01  0.21047068864E+01  0.00000000000E+00 0.  1.
</event>
<event>
 5    1  0.3222854E+002  0.1513470E+01  0.7818608E-02  0.3452989E+00
         11   -1    0    0    0    0  0.00000000000E+00  0.00000000000E+00  0.39999999674E+01  0.40000000000E+01  0.51100000000E-03 0.  1.
    9000002   -1    0    0    0    0 -0.00000000000E+00 -0.00000000000E+00  0.00000000000E+00  0.93800000000E+00  0.93800000000E+00 0. -1.
         11    1    1    2    0    0  0.37993907344E-01  0.33621295866E+00  0.87607720577E+00  0.93914547444E+00  0.51100000000E-03 0.  1.
    9000002    1    1    2    0    0  0.11696370532E+00 -0.19782936407E+00  0.10347624079E+00  0.97127148525E+00  0.93800000000E+00 0. -1.
         22    1    1    2    0    0 -0.15495761266E+00 -0.13838359459E+00  0.30204465208E+01  0.30275830403E+01  0.00000000000E+00 0.  1.
</event>
<event>
 5    1  0.3222854E+002  0.1599668E+01  0.7818608E-02  0.3353724E+00
         11   -1    0    0    0    0  0.00000000000E+00  0.00000000000E+00  0.39999999674E+01  0.40000000000E+01  0.51100000000E-03 0. -1.
    9000002   -1    0    0    0    0 -0.00000000000E+00 -0.00000000000E+00  0.00000000000E+00  0.93800000000E+00  0.93800000000E+00 0. -1.
         11    1    1    2    0    0  0.96226585057E-01 -0.23891909041E+00  0.11048551042E+01  0.11344809164E+01  0.51100000000E-03 0. -1.
    9000002    1    1    2    0    0 -0.29644030631E+00  0.75447003888E+00  0.48581501684E+00  0.13315262391E+01  0.93800000000E+00 0. -1.
         22    1    1    2    0    0  0.20021372125E+00 -0.51555094847E+00  0.24093298464E+01  0.24719928445E+01  0.00000000000E+00 0. -1.
</event>
<event>
 5    1  0.3222854E+002  0.1594412E+01  0.7818608E-02  0.3359450E+00
         11   -1    0    0    0    0  0.00000000000E+00  0.00000000000E+00  0.39999999674E+01  0.40000000000E+01  0.51100000000E-03 0. -1.
    9000002   -1    0    0    0    0 -0.00000000000E+00 -0.00000000000E+00  0.00000000000E+00  0.93800000000E+00  0.93800000000E+00 0.  1.
         11    1    1    2    0    0 -0.22384043679E-01 -0.13806583214E+00  0.86758510665E+00  0.87878745884E+00  0.51100000000E-03 0. -1.
    9000002    1    1    2    0    0 -0.13796064116E+00  0.39417171702E+00  0.12236161181E+00  0.10340313559E+01  0.93800000000E+00 0.  1.
         22    1    1    2    0    0  0.16034468484E+00 -0.25610588488E+00  0.30100532489E+01  0.30251811852E+01  0.00000000000E+00 0. -1.
</event>
<event>
 5    1  0.3222854E+002  0.1594214E+01  0.7818608E-02  0.3359667E+00
         11   -1    0    0    0    0  0.00000000000E+00  0.00000000000E+00  0.39999999674E+01  0.40000000000E+01  0.51100000000E-03 0. -1.
    9000002   -1    0    0    0    0 -0.00000000000E+00 -0.00000000000E+00  0.00000000000E+00  0.93800000000E+00  0.93800000000E+00 0.  1.
         11    1    1    2    0    0  0.62940948372E-02 -0.27467712953E-01  0.66702943378E-01  0.72412945397E-01  0.51100000000E-03 0. -1.
    9000002    1    1    2    0    0 -0.17486069863E+00  0.24275165006E+00  0.63991235085E-01  0.98663240657E+00  0.93800000000E+00 0.  1.
         22    1    1    2    0    0  0.16856660379E+00 -0.21528393711E+00  0.38693057889E+01  0.38789546480E+01  0.00000000000E+00 0. -1.
</event>
<event>
 5    1  0.3222854E+002  0.1599677E+01  0.7818608E-02  0.3353715E+00
         11   -1    0    0    0    0  0.00000000000E+00  0.00000000000E+00  0.39999999674E+01  0.40000000000E+01  0.51100000000E-03 0. -1.
    9000002   -1    0    0    0    0 -0.00000000000E+00 -0.00000000000E+00  0.00000000000E+00  0.93800000000E+00  0.93800000000E+00 0. -1.
         11    1    1    2    0    0  0.32701019305E-01 -0.13282898409E+00  0.62736700631E+00  0.64210787054E+00  0.51100000000E-03 0. -1.
    9000002    1    1    2    0    0 -0.18479044530E+00  0.75141755613E+00  0.43728947629E+00  0.12922236410E+01  0.93800000000E+00 0. -1.
         22    1    1    2    0    0  0.15208942600E+00 -0.61858857204E+00  0.29353434848E+01  0.30036684884E+01  0.00000000000E+00 0. -1.
</event>
<event>
 5    1  0.3222854E+002  0.1455259E+01  0.7818608E-02  0.3527183E+00
         11   -1    0    0    0    0  0.00000000000E+00  0.00000000000E+00  0.39999999674E+01  0.40000000000E+01  0.51100000000E-03 0.  1.
    9000002   -1    0    0    0    0 -0.00000000000E+00 -0.00000000000E+00  0.00000000000E+00  0.93800000000E+00  0.93800000000E+00 0.  1.
         11    1    1    2    0    0 -0.38659854238E+00 -0.35745132610E-01  0.66536437443E+00  0.77035456730E+00  0.51100000000E-03 0.  1.
    9000002    1    1    2    0    0  0.19037069109E+00 -0.20264218849E-01  0.14119793955E+00  0.96769442322E+00  0.93800000000E+00 0.  1.
         22    1    1    2    0    0  0.19622785130E+00  0.56009351459E-01  0.31934376534E+01  0.31999510095E+01  0.00000000000E+00 0.  1.
</event>
<event>
 5    1  0.3222854E+002  0.1599660E+01  0.7818608E-02  0.3353733E+00
         11   -1    0    0    0    0  0.00000000000E+00  0.00000000000E+00  0.39999999674E+01  0.40000000000E+01  0.51100000000E-03 0.  1.
    9000002   -1    0    0    0    0 -0.00000000000E+00 -0.00000000000E+00  0.00000000000E+00  0.93800000000E+00  0.93800000000E+00 0. -1.
         11    1    1    2    0    0 -0.10220644830E+00  0.80767687299E-01  0.14152474048E+01  0.14212301204E+01  0.51100000000E-03 0.  1.
    9000002    1    1    2    0    0  0.29168921299E+00 -0.21361102907E+00  0.87771686447E-01  0.10090887660E+01  0.93800000000E+00 0. -1.
         22    1    1    2    0    0 -0.18948276469E+00  0.13284334177E+00  0.24969808762E+01  0.25076811136E+01  0.00000000000E+00 0.  1.
</event>
<event>
 5    1  0.3222854E+002  0.1598641E+01  0.7818608E-02  0.3354840E+00
         11   -1    0    0    0    0  0.00000000000E+00  0.00000000000E+00  0.39999999674E+01  0.40000000000E+01  0.51100000000E-03 0.  1.
    9000002   -1    0    0    0    0 -0.00000000000E+00 -0.00000000000E+00  0.00000000000E+00  0.93800000000E+00  0.93800000000E+00 0. -1.
         11    1    1    2    0    0 -0.11281045603E+00  0.67241169532E-02  0.16923029339E+01  0.16960721960E+01  0.51100000000E-03 0.  1.
    9000002    1    1    2    0    0  0.30253264582E+00  0.64087450168E-01  0.64669491623E-01  0.98977742256E+00  0.93800000000E+00 0. -1.
         22    1    1    2    0    0 -0.18972218978E+00 -0.70811567122E-01  0.22430275418E+01  0.22521503815E+01  0.00000000000E+00 0.  1.
</event>
<event>
 5    1  0.3222854E+002  0.1599585E+01  0.7818608E-02  0.3353814E+00
         11   -1    0    0    0    0  0.00000000000E+00  0.00000000000E+00  0.39999999674E+01  0.40000000000E+01  0.51100000000E-03 0.  1.
    9000002   -1    0    0    0    0 -0.00000000000E+00 -0.00000000000E+00  0.00000000000E+00  0.93800000000E+00  0.93800000000E+00 0.  1.
         11    1    1    2    0    0  0.24798420656E-01 -0.52648395777E-01  0.86014378650E+00  0.86211043946E+00  0.51100000000E-03 0.  1.
    9000002    1    1    2    0    0 -0.72110961779E-01  0.25486746211E+00  0.46730614872E-01  0.97579975631E+00  0.93800000000E+00 0.  1.
         22    1    1    2    0    0  0.47312541124E-01 -0.20221906633E+00  0.30931255660E+01  0.31000898042E+01  0.00000000000E+00 0.  1.
</event>
<event>
 5    1  0.3222854E+002  0.1581816E+01  0.7818608E-02  0.3373339E+00
         11   -1    0    0    0    0  0.00000000000E+00  0.00000000000E+00  0.39999999674E+01  0.40000000000E+01  0.51100000000E-03 0. -1.
    9000002   -1    0    0    0    0 -0.00000000000E+00 -0.00000000000E+00  0.00000000000E+00  0.93800000000E+00  0.93800000000E+00 0. -1.
         11    1    1    2    0    0  0.23629858815E+00  0.10913717228E-01  0.12372661767E+01  0.12596761430E+01  0.51100000000E-03 0. -1.
    9000002    1    1    2    0    0 -0.42766163508E+00  0.32172047553E+00  0.21408074560E+00  0.11009419168E+01  0.93800000000E+00 0. -1.
         22    1    1    2    0    0  0.19136304693E+00 -0.33263419276E+00  0.25486530450E+01  0.25773819402E+01  0.00000000000E+00 0.  1.
</event>
<event>
 5    1  0.3222854E+002  0.1595497E+01  0.7818608E-02  0.3358266E+00
         11   -1    0    0    0    0  0.00000000000E+00  0.00000000000E+00  0.39999999674E+01  0.40000000000E+01  0.51100000000E-03 0. -1.
    9000002   -1    0    0    0    0 -0.00000000000E+00 -0.00000000000E+00  0.00000000000E+00  0.93800000000E+00  0.93800000000E+00 0.  1.
         11    1    1    2    0    0  0.26109372337E+00 -0.11249080304E+00  0.15163092855E+01  0.15427307684E+01  0.51100000000E-03 0. -1.
    9000002    1    1    2    0    0 -0.48150611218E+00  0.19929013266E+00  0.19042718286E+00  0.10898032873E+01  0.93800000000E+00 0.  1.
         22    1    1    2    0    0  0.22041238881E+00 -0.86799329616E-01  0.22932634990E+01  0.23054659443E+01  0.00000000000E+00 0. -1.
</event>
<event>
 5    1  0.3222854E+002  0.1599131E+01  0.7818608E-02  0.3354308E+00
         11   -1    0    0    0    0  0.00000000000E+00  0.00000000000E+00  0.39999999674E+01  0.40000000000E+01  0.51100000000E-03 0.  1.
    9000002   -1    0    0    0    0 -0.00000000000E+00 -0.00000000000E+00  0.00000000000E+00  0.93800000000E+00  0.93800000000E+00 0.  1.
         11    1    1    2    0    0  0.15227076510E+00 -0.16968819293E+00  0.13342583463E+01  0.13535974529E+01  0.51100000000E-03 0.  1.
    9000002    1    1    2    0    0 -0.47999837863E+00  0.42245645944E+00  0.28836314708E+00  0.11712664975E+01  0.93800000000E+00 0.  1.
         22    1    1    2    0    0  0.32772761353E+00 -0.25276826651E+00  0.23773784740E+01  0.24131360496E+01  0.00000000000E+00 0.  1.
</event>
<event>
 5    1  0.3222854E+002  0.1599080E+01  0.7818608E-02  0.3354362E+00
         11   -1    0    0    0    0  0.00000000000E+00  0.00000000000E+00  0.39999999674E+01  0.40000000000E+01  0.51100000000E-03 0. -1.
    9000002   -1    0    0    0    0 -0.00000000000E+00 -0.00000000000E+00  0.00000000000E+00  0.93800000000E+00  0.93800000000E+00 0. -1.
         11    1    1    2    0    0  0.28480803445E-01 -0.18185814789E-01  0.49265578906E+00  0.49381359604E+00  0.51100000000E-03 0. -1.
    9000002    1    1    2    0    0 -0.26870698832E+00 -0.45928206638E-02  0.48509879848E-01  0.97694511003E+00  0.93800000000E+00 0. -1.
         22    1    1    2    0    0  0.24022618487E+00  0.22778635453E-01  0.34588342985E+01  0.34672412939E+01  0.00000000000E+00 0. -1.
</event>
<event>
 5    1  0.3222854E+002  0.1599677E+01  0.7818608E-02  0.3353714E+00
         11   -1    0    0    0    0  0.00000000000E+00  0.00000000000E+00  0.39999999674E+01  0.40000000000E+01  0.51100000000E-03 0. -1.
    9000002   -1    0    0    0    0 -0.00000000000E+00 -0.00000000000E+00  0.00000000000E+00  0.93800000000E+00  0.93800000000E+00 0. -1.
         11    1    1    2    0    0 -0.21238501127E+00  0.41132634603E-01  0.17061340069E+01  0.17197944055E+01  0.51100000000E-03 0. -1.
    9000002    1    1    2    0    0  0.47894318415E+00 -0.92128611456E-01  0.16250833756E+00  0.10696388243E+01  0.93800000000E+00 0. -1.
         22    1    1    2    0    0 -0.26655817288E+00  0.50995976853E-01  0.21313576229E+01  0.21485667702E+01  0.00000000000E+00 0. -1.
</event>
<event>
 5    1  0.3222854E+002  0.1599576E+01  0.7818608E-02  0.3353824E+00
         11   -1    0    0    0    0  0.00000000000E+00  0.00000000000E+00  0.39999999674E+01  0.40000000000E+01  0.51100000000E-03 0.  1.
    9000002   -1    0    0    0    0 -0.00000000000E+00 -0.00000000000E+00  0.00000000000E+00  0.93800000000E+00  0.93800000000E+00 0.  1.
         11    1    1    2    0    0 -0.99376329306E-01 -0.16927593502E+00  0.13709247402E+01  0.13849060984E+01  0.51100000000E-03 0.  1.
    9000002    1    1    2    0    0  0.29729020203E+00  0.48788516669E+00  0.22648986843E+00  0.11214076246E+01  0.93800000000E+00 0.  1.
         22    1    1    2    0    0 -0.19791387273E+00 -0.31860923166E+00  0.24025853587E+01  0.24316862769E+01  0.00000000000E+00 0.  1.
</event>
<event>
 5    1  0.3222854E+002  0.1586256E+01  0.7818608E-02  0.3368417E+00
         11   -1    0    0    0    0  0.00000000000E+00  0.00000000000E+00  0.39999999674E+01  0.40000000000E+01  0.51100000000E-03 0.  1.
    9000002   -1    0    0    0    0 -0.00000000000E+00 -0.00000000000E+00  0.00000000000E+00  0.93800000000E+00  0.93800000000E+00 0. -1.
         11    1    1    2    0    0  0.29690260619E-01 -0.89416604155E-01  0.43852306663E+00  0.44853046915E+00  0.51100000000E-03 0.  1.
    9000002    1    1    2    0    0  0.41691256601E+00  0.39397496863E+00  0.24140483801E+00  0.11256787550E+01  0.93800000000E+00 0. -1.
         22    1    1    2    0    0 -0.44660282663E+00 -0.30455836448E+00  0.33200720627E+01  0.33637907759E+01  0.00000000000E+00 0.  1.
</event>
<event>
 5    1  0.3222854E+002  0.1599634E+01  0.7818608E-02  0.3353760E+00
         11   -1    0    0    0    0  0.00000000000E+00  0.00000000000E+00  0.39999999674E+01  0.40000000000E+01  0.51100000000E-03 0.  1.
    9000002   -1    0    0    0    0 -0.00000000000E+00 -0.00000000000E+00  0.00000000000E+00  0.93800000000E+00  0.93800000000E+00 0.  1.
         11    1    1    2    0    0  0.17427899224E-01 -0.18154723736E+00  0.11017503620E+01  0.11167440406E+01  0.51100000000E-03 0.  1.
    9000002    1    1    2    0    0 -0.36321348566E-01  0.60794362855E+00  0.25933458586E+00  0.11480475266E+01  0.93800000000E+00 0.  1.
         22    1    1    2    0    0  0.18893449341E-01 -0.42639639118E+00  0.26389150195E+01  0.26732084328E+01  0.00000000000E+00 0.  1.
</event>
<event>
 5    1  0.3222854E+002  0.1598330E+01  0.7818608E-02  0.3355177E+00
         11   -1    0    0    0    0  0.00000000000E+00  0.00000000000E+00  0.39999999674E+01  0.40000000000E+01  0.51100000000E-03 0. -1.
    9000002   -1    0    0    0    0 -0.00000000000E+00 -0.00000000000E+00  0.00000000000E+00  0.93800000000E+00  0.93800000000E+00 0. -1.
         11    1    1    2    0    0  0.14652368290E-01  0.19147036319E-01  0.16387783262E+00  0.16564270598E+00  0.51100000000E-03 0. -1.
    9000002    1    1    2    0    0 -0.34388694847E+00 -0.34573130423E-01  0.81138495930E-01  0.10029361845E+01  0.93800000000E+00 0. -1.
         22    1    1    2    0    0  0.32923458018E+00  0.15426094104E-01  0.37549836388E+01  0.37694211095E+01  0.00000000000E+00 0. -1.
</event>
<event>
 5    1  0.3222854E+002  0.1599667E+01  0.7818608E-02  0.3353725E+00
         11   -1    0    0    0    0  0.00000000000E+00  0.00000000000E+00  0.39999999674E+01  0.40000000000E+01  0.51100000000E-03 0. -1.
    9000002   -1    0    0    0    0 -0.00000000000E+00 -0.00000000000E+00  0.00000000000E+00  0.93800000000E+00  0.93800000000E+00 0. -1.
         11    1    1    2    0    0  0.20215340948E-01  0.40598016437E-01  0.72444373209E+00  0.72586213639E+00  0.51100000000E-03 0. -1.
    9000002    1    1    2    0    0 -0.11193535396E+00 -0.23748548806E+00  0.45841610399E-01  0.97512785508E+00  0.93800000000E+00 0. -1.
         22    1    1    2    0    0  0.91720013012E-01  0.19688747163E+00  0.32297146249E+01  0.32370100085E+01  0.00000000000E+00 0. -1.
</event>
<event>
 5    1  0.3222854E+002  0.1599580E+01  0.7818608E-02  0.3353819E+00
         11   -1    0    0    0    0  0.00000000000E+00  0.00000000000E+00  0.39999999674E+01  0.40000000000E+01  0.51100000000E-03 0. -1.
    9000002   -1    0    0    0    0 -0.00000000000E+00 -0.00000000000E+00  0.00000000000E+00  0.93800000000E+00  0.93800000000E+00 0.  1.
         11    1    1    2    0    0  0.11597537457E-01  0.47341415387E-01  0.76669086141E+00  0.76823879788E+00  0.51100000000E-03 0. -1.
    9000002    1    1    2    0    0 -0.29853838312E-01 -0.28162165318E+00  0.53497839137E-01  0.98127877079E+00  0.93800000000E+00 0.  1.
         22    1    1    2    0    0  0.18256300854E-01  0.23428023780E+00  0.31798112668E+01  0.31884824313E+01  0.00000000000E+00 0. -1.
</event>
<event>
 5    1  0.3222854E+002  0.1598666E+01  0.7818608E-02  0.3354812E+00
         11   -1    0    0    0    0  0.00000000000E+00  0.00000000000E+00  0.39999999674E+01  0.40000000000E+01  0.51100000000E-03 0.  1.
    9000002   -1    0    0    0    0 -0.00000000000E+00 -0.00000000000E+00  0.00000000000E+00  0.93800000000E+00  0.93800000000E+00 0. -1.
         11    1    1    2    0    0 -0.10413550097E+00 -0.56121017869E-01  0.12161671930E+01  0.12219069824E+01  0.51100000000E-03 0.  1.
    9000002    1    1    2    0    0  0.39657108684E+00  0.85492672463E-01  0.11193746933E+00  0.10280815245E+01  0.93800000000E+00 0. -1.
         22    1    1    2    0    0 -0.29243558588E+00 -0.29371654594E-01  0.26718953051E+01  0.26880114931E+01  0.00000000000E+00 0.  1.
</event>
<event>
 5    1  0.3222854E+002  0.1529084E+01  0.7818608E-02  0.3434123E+00
         11   -1    0    0    0    0  0.00000000000E+00  0.00000000000E+00  0.39999999674E+01  0.40000000000E+01  0.51100000000E-03 0. -1.
    9000002   -1    0    0    0    0 -0.00000000000E+00 -0.00000000000E+00  0.00000000000E+00  0.93800000000E+00  0.93800000000E+00 0. -1.
         11    1    1    2    0    0 -0.12605469955E+00 -0.26323938564E-01  0.10382448997E+00  0.16541621100E+00  0.51100000000E-03 0. -1.
    9000002    1    1    2    0    0  0.31408222645E+00  0.18078497123E+00  0.14786754273E+00  0.10163855868E+01  0.93800000000E+00 0. -1.
         22    1    1    2    0    0 -0.18802752689E+00 -0.15446103266E+00  0.37483079347E+01  0.37561982022E+01  0.00000000000E+00 0. -1.
</event>
<event>
 5    1  0.3222854E+002  0.1597782E+01  0.7818608E-02  0.3355774E+00
         11   -1    0    0    0    0  0.00000000000E+00  0.00000000000E+00  0.39999999674E+01  0.40000000000E+01  0.51100000000E-03 0.  1.
    9000002   -1    0    0    0    0 -0.00000000000E+00 -0.00000000000E+00  0.00000000000E+00  0.93800000000E+00  0.93800000000E+00 0.  1.
         11    1    1    2    0    0  0.28158961408E+00 -0.30334778088E+00  0.22990777906E+01  0.23360375715E+01  0.51100000000E-03 0.  1.
    9000002    1    1    2    0    0 -0.48841526133E+00  0.41471984207E+00  0.29103654665E+00  0.11726415848E+01  0.93800000000E+00 0.  1.
         22    1    1    2    0    0  0.20682564725E+00 -0.11137206119E+00  0.14098856301E+01  0.14293208437E+01  0.00000000000E+00 0.  1.
</event>
<event>
 5    1  0.3222854E+002  0.1536359E+01  0.7818608E-02  0.3425473E+00
         11   -1    0    0    0    0  0.00000000000E+00  0.00000000000E+00  0.39999999674E+01  0.40000000000E+01  0.51100000000E-03 0.  1.
    9000002   -1    0    0    0    0 -0.00000000000E+00 -0.00000000000E+00  0.00000000000E+00  0.93800000000E+00  0.93800000000E+00 0.  1.
         11    1    1    2    0    0 -0.16259948797E+00 -0.15807321713E+00  0.20079665823E+01  0.20207314993E+01  0.51100000000E-03 0.  1.
    9000002    1    1    2    0    0 -0.16369432078E+00 -0.36283511091E-01  0.67101148366E-01  0.95522713945E+00  0.93800000000E+00 0.  1.
         22    1    1    2    0    0  0.32629380875E+00  0.19435672822E+00  0.19249322367E+01  0.19620413612E+01  0.00000000000E+00 0.  1.
</event>
<event>
 5    1  0.3222854E+002  0.1599667E+01  0.7818608E-02  0.3353725E+00
         11   -1    0    0    0    0  0.00000000000E+00  0.00000000000E+00  0.39999999674E+01  0.40000000000E+01  0.51100000000E-03 0.  1.
    9000002   -1    0    0    0    0 -0.00000000000E+00 -0.00000000000E+00  0.00000000000E+00  0.93800000000E+00  0.93800000000E+00 0.  1.
         11    1    1    2    0    0 -0.68952670747E-01 -0.13551728094E+00  0.15818453036E+01  0.15891363157E+01  0.51100000000E-03 0.  1.
    9000002    1    1    2    0    0  0.17914545062E+00  0.33632562710E+00  0.97722630740E-01  0.10171537408E+01  0.93800000000E+00 0.  1.
         22    1    1    2    0    0 -0.11019277987E+00 -0.20080834615E+00  0.23204320331E+01  0.23317099435E+01  0.00000000000E+00 0.  1.
</event>
<event>
 5    1  0.5910318E+002  0.1585380E+01  0.7818608E-02  0.3369385E+00
         11   -1    0    0    0    0  0.00000000000E+00  0.00000000000E+00  0.39999999674E+01  0.40000000000E+01  0.51100000000E-03 0.  1.
    9000002   -1    0    0    0    0 -0.00000000000E+00 -0.00000000000E+00  0.00000000000E+00  0.93800000000E+00  0.93800000000E+00 0.  1.
         11    1    1    2    0    0  0.84710747689E-01  0.45086780760E-01  0.16621482501E+01  0.16649161525E+01  0.51100000000E-03 0.  1.
    9000002    1    1    2    0    0  0.36071611262E-01  0.13364270760E+00  0.23241912578E-01  0.94844384174E+00  0.93800000000E+00 0.  1.
         22    1    1    2    0    0 -0.12078235895E+00 -0.17872948836E+00  0.23146098047E+01  0.23246400058E+01  0.00000000000E+00 0.  1.
</event>
<event>
 5    1  0.3222854E+002  0.1599646E+01  0.7818608E-02  0.3353748E+00
         11   -1    0    0    0    0  0.00000000000E+00  0.00000000000E+00  0.39999999674E+01  0.40000000000E+01  0.51100000000E-03 0.  1.
    9000002   -1    0    0    0    0 -0.00000000000E+00 -0.00000000000E+00  0.00000000000E+00  0.93800000000E+00  0.93800000000E+00 0.  1.
         11    1    1    2    0    0 -0.25865070793E-01 -0.87254443580E-02  0.48700706287E+00  0.48777174547E+00  0.51100000000E-03 0.  1.
    9000002    1    1    2    0    0  0.21025121025E+00  0.10662132403E+00  0.36901455086E-01  0.96787364647E+00  0.93800000000E+00 0.  1.
         22    1    1    2    0    0 -0.18438613945E+00 -0.97895879676E-01  0.34760914494E+01  0.34823546081E+01  0.00000000000E+00 0.  1.
</event>
<event>
 5    1  0.3222854E+002  0.1591132E+01  0.7818608E-02  0.3363045E+00
         11   -1    0    0    0    0  0.00000000000E+00  0.00000000000E+00  0.39999999674E+01  0.40000000000E+01  0.51100000000E-03 0.  1.
    9000002   -1    0    0    0    0 -0.00000000000E+00 -0.00000000000E+00  0.00000000000E+00  0.93800000000E+00  0.93800000000E+00 0.  1.
         11    1    1    2    0    0  0.61411766731E-01 -0.22546722813E-01  0.10047528929E+01  0.10068805275E+01  0.51100000000E-03 0.  1.
    9000002    1    1    2    0    0  0.13941424574E+00  0.97767581494E-01  0.25532827632E-01  0.95367224831E+00  0.93800000000E+00 0.  1.
         22    1    1    2    0    0 -0.20082601247E+00 -0.75220858681E-01  0.29697142468E+01  0.29774472242E+01  0.00000000000E+00 0.  1.
</event>
<event>
 5    1  0.3222854E+002  0.1599164E+01  0.7818608E-02  0.3354272E+00
         11   -1    0    0    0    0  0.00000000000E+00  0.00000000000E+00  0.39999999674E+01  0.40000000000E+01  0.51100000000E-03 0. -1.
    9000002   -1    0    0    0    0 -0.00000000000E+00 -0.00000000000E+00  0.00000000000E+00  0.93800000000E+00  0.93800000000E+00 0.  1.
         11    1    1    2    0    0  0.17194282835E+00  0.25218027119E-01  0.19112856776E+01  0.19191699997E+01  0.51100000000E-03 0. -1.
    9000002    1    1    2    0    0 -0.35875885330E+00 -0.10677544244E+00  0.94626548930E-01  0.10143505773E+01  0.93800000000E+00 0.  1.
         22    1    1    2    0    0  0.18681602496E+00  0.81557415317E-01  0.19940877408E+01  0.20044794230E+01  0.00000000000E+00 0. -1.
</event>
<event>
 5    1  0.3222854E+002  0.1598998E+01  0.7818608E-02  0.3354452E+00
         11   -1    0    0    0    0  0.00000000000E+00  0.00000000000E+00  0.39999999674E+01  0.40000000000E+01  0.51100000000E-03 0. -1.
    9000002   -1    0    0    0    0 -0.00000000000E+00 -0.00000000000E+00  0.00000000000E+00  0.93800000000E+00  0.93800000000E+00 0.  1.
         11    1    1    2    0    0  0.66916548565E-01  0.18803680971E+00  0.12526685121E+01  0.12684692857E+01  0.51100000000E-03 0. -1.
    9000002    1    1    2    0    0 -0.25681120995E+00 -0.49720441685E+00  0.21735002564E+00  0.11136647895E+01  0.93800000000E+00 0.  1.
         22    1    1    2    0    0  0.18989466139E+00  0.30916760715E+00  0.25299814296E+01  0.25558659249E+01  0.00000000000E+00 0. -1.
</event>
<event>
 5    1  0.3222854E+002  0.1599676E+01  0.7818608E-02  0.3353715E+00
         11   -1    0    0    0    0  0.00000000000E+00  0.00000000000E+00  0.39999999674E+01  0.40000000000E+01  0.51100000000E-03 0. -1.
    9000002   -1    0    0    0    0 -0.00000000000E+00 -0.00000000000E+00  0.00000000000E+00  0.93800000000E+00  0.93800000000E+00 0. -1.
         11    1    1    2    0    0  0.14390091282E+00  0.59631088524E-01  0.11452522926E+01  0.11557968742E+01  0.51100000000E-03 0. -1.
    9000002    1    1    2    0    0 -0.47712418110E+00 -0.20060303853E+00  0.18393990778E+00  0.10869990584E+01  0.93800000000E+00 0. -1.
         22    1    1    2    0    0  0.33322326828E+00  0.14097195000E+00  0.26708077669E+01  0.26952040674E+01  0.00000000000E+00 0. -1.
</event>
<event>
 5    1  0.3222854E+002  0.1599062E+01  0.7818608E-02  0.3354382E+00
         11   -1    0    0    0    0  0.00000000000E+00  0.00000000000E+00  0.39999999674E+01  0.40000000000E+01  0.51100000000E-03 0.  1.
    9000002   -1    0    0    0    0 -0.00000000000E+00 -0.00000000000E+00  0.00000000000E+00  0.93800000000E+00  0.93800000000E+00 0.  1.
         11    1    1    2    0    0 -0.86306001491E-01 -0.78854384961E-01  0.13614412967E+01  0.13664513916E+01  0.51100000000E-03 0.  1.
    9000002    1    1    2    0    0  0.17445104916E+00  0.26131571139E+00  0.66431319581E-01  0.99145155696E+00  0.93800000000E+00 0.  1.
         22    1    1    2    0    0 -0.88145047668E-01 -0.18246132643E+00  0.25721273510E+01  0.25800970515E+01  0.00000000000E+00 0.  1.
</event>
<event>
 5    1  0.3222854E+002  0.1572713E+01  0.7818608E-02  0.3383522E+00
         11   -1    0    0    0    0  0.00000000000E+00  0.00000000000E+00  0.39999999674E+01  0.40000000000E+01  0.51100000000E-03 0. -1.
    9000002   -1    0    0    0    0 -0.00000000000E+00 -0.00000000000E+00  0.00000000000E+00  0.93800000000E+00  0.93800000000E+00 0.  1.
         11    1    1    2    0    0 -0.50501507309E-01  0.83371235535E-01  0.39586312247E+00  0.40768742684E+00  0.51100000000E-03 0. -1.
    9000002    1    1    2    0    0 -0.15367531319E+00  0.15727502624E+00  0.52687628870E-01  0.96486865531E+00  0.93800000000E+00 0.  1.
         22    1    1    2    0    0  0.20417682050E+00 -0.24064626177E+00  0.35514492160E+01  0.35654439178E+01  0.00000000000E+00 0. -1.
</event>
<event>
 5    1  0.3222854E+002  0.1599630E+01  0.7818608E-02  0.3353765E+00
         11   -1    0    0    0    0  0.00000000000E+00  0.00000000000E+00  0.39999999674E+01  0.40000000000E+01  0.51100000000E-03 0. -1.
    9000002   -1    0    0    0    0 -0.00000000000E+00 -0.00000000000E+00  0.00000000000E+00  0.93800000000E+00  0.93800000000E+00 0. -1.
         11    1    1    2    0    0  0.52131465426E-01  0.69517596057E-01  0.42819337986E+00  0.43692129443E+00  0.51100000000E-03 0. -1.
    9000002    1    1    2    0    0 -0.45532955690E+00 -0.54683375965E+00  0.36307528776E+00  0.12320794742E+01  0.93800000000E+00 0. -1.
         22    1    1    2    0    0  0.40319809147E+00  0.47731616359E+00  0.32087312997E+01  0.32689992314E+01  0.00000000000E+00 0. -1.
</event>
<event>
 5    1  0.3222854E+002  0.1599657E+01  0.7818608E-02  0.3353735E+00
         11   -1    0    0    0    0  0.00000000000E+00  0.00000000000E+00  0.39999999674E+01  0.40000000000E+01  0.51100000000E-03 0. -1.
    9000002   -1    0    0    0    0 -0.00000000000E+00 -0.00000000000E+00  0.00000000000E+00  0.93800000000E+00  0.93800000000E+00 0.  1.
         11    1    1    2    0    0  0.14990394843E-01 -0.26608424897E-02  0.16390220397E+00  0.16460858303E+00  0.51100000000E-03 0. -1.
    9000002    1    1    2    0    0 -0.31743495775E+00  0.36972689735E-01  0.68277679309E-01  0.99329641783E+00  0.93800000000E+00 0.  1.
         22    1    1    2    0    0  0.30244456291E+00 -0.34311847245E-01  0.37678200841E+01  0.37800949991E+01  0.00000000000E+00 0. -1.
</event>
<event>
 5    1  0.3222854E+002  0.1599676E+01  0.7818608E-02  0.3353715E+00
         11   -1    0    0    0    0  0.00000000000E+00  0.00000000000E+00  0.39999999674E+01  0.40000000000E+01  0.51100000000E-03 0. -1.
    9000002   -1    0    0    0    0 -0.00000000000E+00 -0.00000000000E+00  0.00000000000E+00  0.93800000000E+00  0.93800000000E+00 0.  1.
         11    1    1    2    0    0  0.25223011957E+00  0.30102344315E+00  0.20447110678E+01  0.20820851948E+01  0.51100000000E-03 0. -1.
    9000002    1    1    2    0    0 -0.45114023741E+00 -0.53572471528E+00  0.35060467534E+00  0.12220049602E+01  0.93800000000E+00 0.  1.
         22    1    1    2    0    0  0.19891011783E+00  0.23470127213E+00  0.16046842242E+01  0.16339098450E+01  0.00000000000E+00 0.  1.
</event>
<event>
 5    1  0.3222854E+002  0.1599677E+01  0.7818608E-02  0.3353714E+00
         11   -1    0    0    0    0  0.00000000000E+00  0.00000000000E+00  0.39999999674E+01  0.40000000000E+01  0.51100000000E-03 0.  1.
    9000002   -1    0    0    0    0 -0.00000000000E+00 -0.00000000000E+00  0.00000000000E+00  0.93800000000E+00  0.93800000000E+00 0.  1.
         11    1    1    2    0    0 -0.71162768098E+00 -0.15438650860E-01  0.22738767698E+01  0.23826808711E+01  0.51100000000E-03 0.  1.
    9000002    1    1    2    0    0  0.10002077596E+01  0.22131237757E-01  0.80541580408E+00  0.15904225764E+01  0.93800000000E+00 0.  1.
         22    1    1    2    0    0 -0.28858007866E+00 -0.66925868971E-02  0.92070739346E+00  0.96489655243E+00  0.00000000000E+00 0. -1.
</event>
<event>
 5    1  0.3222854E+002  0.1599590E+01  0.7818608E-02  0.3353809E+00
         11   -1    0    0    0    0  0.00000000000E+00  0.00000000000E+00  0.39999999674E+01  0.40000000000E+01  0.51100000000E-03 0.  1.
    9000002   -1    0    0    0    0 -0.00000000000E+00 -0.00000000000E+00  0.00000000000E+00  0.93800000000E+00  0.93800000000E+00 0. -1.
         11    1    1    2    0    0  0.79497063036E-02 -0.21164969388E-01  0.33603478908E+00  0.33679488469E+00  0.51100000000E-03 0.  1.
    9000002    1    1    2    0    0 -0.13339023300E+00  0.18751721563E+00  0.35192796384E-01  0.96645651394E+00  0.93800000000E+00 0. -1.
         22    1    1    2    0    0  0.12544052669E+00 -0.16635224624E+00  0.36287723819E+01  0.36347486014E+01  0.00000000000E+00 0.  1.
</event>
<event>
 5    1  0.3222854E+002  0.1599661E+01  0.7818608E-02  0.3353732E+00
         11   -1    0    0    0    0  0.00000000000E+00  0.00000000000E+00  0.39999999674E+01  0.40000000000E+01  0.51100000000E-03 0. -1.
    9000002   -1    0    0    0    0 -0.00000000000E+00 -0.00000000000E+00  0.00000000000E+00  0.93800000000E+00  0.93800000000E+00 0. -1.
         11    1    1    2    0    0 -0.12757281472E+00  0.19668102967E+00  0.21071952058E+01  0.21201957803E+01  0.51100000000E-03 0. -1.
    9000002    1    1    2    0    0  0.24185062270E+00 -0.36585036147E+00  0.13043012007E+00  0.10436446842E+01  0.93800000000E+00 0. -1.
         22    1    1    2    0    0 -0.11427780798E+00  0.16916933181E+00  0.17623746415E+01  0.17741595354E+01  0.00000000000E+00 0. -1.
</event>
<event>
 5    1  0.3222854E+002  0.1599674E+01  0.7818608E-02  0.3353717E+00
         11   -1    0    0    0    0  0.00000000000E+00  0.00000000000E+00  0.39999999674E+01  0.40000000000E+01  0.51100000000E-03 0.  1.
    9000002   -1    0    0    0    0 -0.00000000000E+00 -0.00000000000E+00  0.00000000000E+00  0.93800000000E+00  0.93800000000E+00 0.  1.
         11    1    1    2    0    0 -0.29530108879E-01  0.43409359853E-01  0.79733995130E+00  0.79906674246E+00  0.51100000000E-03 0.  1.
    9000002    1    1    2    0    0  0.15400390053E+00 -0.21825731242E+00  0.47466182326E-01  0.97644789634E+00  0.93800000000E+00 0.  1.
         22    1    1    2    0    0 -0.12447379166E+00  0.17484795257E+00  0.31551938337E+01  0.31624853612E+01  0.00000000000E+00 0.  1.
</event>
<event>
 5    1  0.3222854E+002  0.1599221E+01  0.7818608E-02  0.3354210E+00
         11   -1    0    0    0    0  0.00000000000E+00  0.00000000000E+00  0.39999999674E+01  0.40000000000E+01  0.51100000000E-03 0.  1.
    9000002   -1    0    0    0    0 -0.00000000000E+00 -0.00000000000E+00  0.00000000000E+00  0.93800000000E+00  0.93800000000E+00 0.  1.
         11    1    1    2    0    0 -0.57807454550E-02  0.30411324311E+00  0.21082420275E+01  0.21300711230E+01  0.51100000000E-03 0.  1.
    9000002    1    1    2    0    0 -0.57985380889E-02 -0.50767779405E+00  0.17710294124E+00  0.10811937002E+01  0.93800000000E+00 0.  1.
         22    1    1    2    0    0  0.11579283544E-01  0.20356455094E+00  0.17146549987E+01  0.17267351768E+01  0.00000000000E+00 0.  1.
</event>
<event>
 5    1  0.3222854E+002  0.1599633E+01  0.7818608E-02  0.3353762E+00
         11   -1    0    0    0    0  0.00000000000E+00  0.00000000000E+00  0.39999999674E+01  0.40000000000E+01  0.51100000000E-03 0. -1.
    9000002   -1    0    0    0    0 -0.00000000000E+00 -0.00000000000E+00  0.00000000000E+00  0.93800000000E+00  0.93800000000E+00 0. -1.
         11    1    1    2    0    0  0.25571273638E+00 -0.48708285239E+00  0.22603334304E+01  0.23263160117E+01  0.51100000000E-03 0. -1.
    9000002    1    1    2    0    0 -0.40171737677E+00  0.75015610266E+00  0.54334348405E+00  0.13781063714E+01  0.93800000000E+00 0. -1.
         22    1    1    2    0    0  0.14600464039E+00 -0.26307325028E+00  0.11963230529E+01  0.12335776169E+01  0.00000000000E+00 0. -1.
</event>
<event>
 5    1  0.3222854E+002  0.1599670E+01  0.7818608E-02  0.3353722E+00
         11   -1    0    0    0    0  0.00000000000E+00  0.00000000000E+00  0.39999999674E+01  0.40000000000E+01  0.51100000000E-03 0. -1.
    9000002   -1    0    0    0    0 -0.00000000000E+00 -0.00000000000E+00  0.00000000000E+00  0.93800000000E+00  0.93800000000E+00 0. -1.
         11    1    1    2    0    0 -0.20439768502E+00  0.24731910805E+00  0.15949471117E+01  0.16268994146E+01  0.51100000000E-03 0. -1.
    9000002    1    1    2    0    0  0.46001906033E+00 -0.56710420430E+00  0.38431190955E+00  0.12493055504E+01  0.93800000000E+00 0. -1.
         22    1    1    2    0    0 -0.25562137530E+00  0.31978509625E+00  0.20207409461E+01  0.20617950350E+01  0.00000000000E+00 0. -1.
</event>
<event>
 5    1  0.3222854E+002  0.1593355E+01  0.7818608E-02  0.3360607E+00
         11   -1    0    0    0    0  0.00000000000E+00  0.00000000000E+00  0.39999999674E+01  0.40000000000E+01  0.51100000000E-03 0.  1.
    9000002   -1    0    0    0    0 -0.00000000000E+00 -0.00000000000E+00  0.00000000000E+00  0.93800000000E+00  0.93800000000E+00 0. -1.
         11    1    1    2    0    0  0.11083483133E-01  0.44200731011E-01  0.17782264530E+01  0.17788103124E+01  0.51100000000E-03 0.  1.
    9000002    1    1    2    0    0 -0.20326193509E+00  0.16605844365E-01  0.32300162760E-01  0.96045742687E+00  0.93800000000E+00 0. -1.
         22    1    1    2    0    0  0.19217845196E+00 -0.60806575377E-01  0.21894733516E+01  0.21987322607E+01  0.00000000000E+00 0.  1.
</event>
<event>
 5    1  0.3222854E+002  0.1584022E+01  0.7818608E-02  0.3370890E+00
         11   -1    0    0    0    0  0.00000000000E+00  0.00000000000E+00  0.39999999674E+01  0.40000000000E+01  0.51100000000E-03 0.  1.
    9000002   -1    0    0    0    0 -0.00000000000E+00 -0.00000000000E+00  0.00000000000E+00  0.93800000000E+00  0.93800000000E+00 0.  1.
         11    1    1    2    0    0  0.29478264965E-01  0.11677339540E+00  0.40283317862E+00  0.42045192936E+00  0.51100000000E-03 0.  1.
    9000002    1    1    2    0    0 -0.36809637618E+00 -0.23085929467E+00  0.14141928900E+00  0.10433764284E+01  0.93800000000E+00 0.  1.
         22    1    1    2    0    0  0.33861811122E+00  0.11408589927E+00  0.34557474997E+01  0.34741716422E+01  0.00000000000E+00 0.  1.
</event>
<event>
 5    1  0.3222854E+002  0.1596906E+01  0.7818608E-02  0.3356729E+00
         11   -1    0    0    0    0  0.00000000000E+00  0.00000000000E+00  0.39999999674E+01  0.40000000000E+01  0.51100000000E-03 0.  1.
    9000002   -1    0    0    0    0 -0.00000000000E+00 -0.00000000000E+00  0.00000000000E+00  0.93800000000E+00  0.93800000000E+00 0.  1.
         11    1    1    2    0    0  0.71736743424E-01  0.50776119430E+00  0.27483989676E+01  0.27958298834E+01  0.51100000000E-03 0.  1.
    9000002    1    1    2    0    0 -0.16529558473E+00 -0.68920875366E+00  0.36300650142E+00  0.12304263718E+01  0.93800000000E+00 0.  1.
         22    1    1    2    0    0  0.93558841302E-01  0.18144755936E+00  0.88859449831E+00  0.91174374471E+00  0.00000000000E+00 0.  1.
</event>
<event>
 5    1  0.3222854E+002  0.1575545E+01  0.7818608E-02  0.3380341E+00
         11   -1    0    0    0    0  0.00000000000E+00  0.00000000000E+00  0.39999999674E+01  0.40000000000E+01  0.51100000000E-03 0.  1.
    9000002   -1    0    0    0    0 -0.00000000000E+00 -0.00000000000E+00  0.00000000000E+00  0.93800000000E+00  0.93800000000E+00 0.  1.
         11    1    1    2    0    0 -0.16495668794E+00 -0.37303507534E-01  0.86394832090E+00  0.88034608131E+00  0.51100000000E-03 0.  1.
    9000002    1    1    2    0    0  0.19036750491E+00 -0.26148646748E+00  0.89331576462E-01  0.99621237201E+00  0.93800000000E+00 0.  1.
         22    1    1    2    0    0 -0.25410816968E-01  0.29878997501E+00  0.30467200700E+01  0.30614415467E+01  0.00000000000E+00 0.  1.
</event>
<event>
 5    1  0.3222854E+002  0.1599676E+01  0.7818608E-02  0.3353715E+00
         11   -1    0    0    0    0  0.00000000000E+00  0.00000000000E+00  0.39999999674E+01  0.40000000000E+01  0.51100000000E-03 0. -1.
    9000002   -1    0    0    0    0 -0.00000000000E+00 -0.00000000000E+00  0.00000000000E+00  0.93800000000E+00  0.93800000000E+00 0.  1.
         11    1    1    2    0    0  0.12557393946E-01  0.49506024963E-01  0.50882697680E+00  0.51138409058E+00  0.51100000000E-03 0. -1.
    9000002    1    1    2    0    0 -0.10256485825E+00 -0.37998217418E+00  0.10440303119E+00  0.10225702889E+01  0.93800000000E+00 0.  1.
         22    1    1    2    0    0  0.90007464308E-01  0.33047614922E+00  0.33867699594E+01  0.34040456205E+01  0.00000000000E+00 0. -1.
</event>
<event>
 5    1  0.3222854E+002  0.1599677E+01  0.7818608E-02  0.3353714E+00
         11   -1    0    0    0    0  0.00000000000E+00  0.00000000000E+00  0.39999999674E+01  0.40000000000E+01  0.51100000000E-03 0.  1.
    9000002   -1    0    0    0    0 -0.00000000000E+00 -0.00000000000E+00  0.00000000000E+00  0.93800000000E+00  0.93800000000E+00 0. -1.
         11    1    1    2    0    0 -0.20782842793E+00  0.14900234461E+00  0.20885024845E+01  0.21041001029E+01  0.51100000000E-03 0. -1.
    9000002    1    1    2    0    0  0.38284714040E+00 -0.27475648561E+00  0.15130836935E+00  0.10605664910E+01  0.93800000000E+00 0. -1.
         22    1    1    2    0    0 -0.17501871248E+00  0.12575414101E+00  0.17601891135E+01  0.17733334061E+01  0.00000000000E+00 0.  1.
</event>
<event>
 5    1  0.3222854E+002  0.1599092E+01  0.7818608E-02  0.3354350E+00
         11   -1    0    0    0    0  0.00000000000E+00  0.00000000000E+00  0.39999999674E+01  0.40000000000E+01  0.51100000000E-03 0. -1.
    9000002   -1    0    0    0    0 -0.00000000000E+00 -0.00000000000E+00  0.00000000000E+00  0.93800000000E+00  0.93800000000E+00 0. -1.
         11    1    1    2    0    0  0.30033337125E-01  0.18681209265E-01  0.60431983851E+00  0.60535420809E+00  0.51100000000E-03 0. -1.
    9000002    1    1    2    0    0 -0.12827559523E+00 -0.24101010835E+00  0.50060236351E-01  0.97820781428E+00  0.93800000000E+00 0. -1.
         22    1    1    2    0    0  0.98242258108E-01  0.22232889909E+00  0.33456198925E+01  0.33544379776E+01  0.00000000000E+00 0. -1.
</event>
<event>
 5    1  0.3222854E+002  0.1599677E+01  0.7818608E-02  0.3353714E+00
         11   -1    0    0    0    0  0.00000000000E+00  0.00000000000E+00  0.39999999674E+01  0.40000000000E+01  0.51100000000E-03 0.  1.
    9000002   -1    0    0    0    0 -0.00000000000E+00 -0.00000000000E+00  0.00000000000E+00  0.93800000000E+00  0.93800000000E+00 0. -1.
         11    1    1    2    0    0  0.12774917613E+00 -0.10406820842E+00  0.17463734836E+01  0.17541295988E+01  0.51100000000E-03 0.  1.
    9000002    1    1    2    0    0 -0.28668592001E+00  0.23381562584E+00  0.91973791850E-01  0.10125027121E+01  0.93800000000E+00 0. -1.
         22    1    1    2    0    0  0.15893674389E+00 -0.12974741742E+00  0.21616526919E+01  0.21713676891E+01  0.00000000000E+00 0.  1.
</event>
<event>
 5    1  0.3222854E+002  0.1518658E+01  0.7818608E-02  0.3446674E+00
         11   -1    0    0    0    0  0.00000000000E+00  0.00000000000E+00  0.39999999674E+01  0.40000000000E+01  0.51100000000E-03 0.  1.
    9000002   -1    0    0    0    0 -0.00000000000E+00 -0.00000000000E+00  0.00000000000E+00  0.93800000000E+00  0.93800000000E+00 0.  1.
         11    1    1    2    0    0  0.21127331310E+00 -0.23663687295E+00  0.90558326856E+00  0.95953881625E+00  0.51100000000E-03 0.  1.
    9000002    1    1    2    0    0 -0.14395684364E+00  0.26253392294E-01  0.76446885025E-01  0.95241846878E+00  0.93800000000E+00 0.  1.
         22    1    1    2    0    0 -0.67316469463E-01  0.21038348066E+00  0.30179698138E+01  0.30260427150E+01  0.00000000000E+00 0.  1.
</event>
<event>
 5    1  0.3222854E+002  0.1586217E+01  0.7818608E-02  0.3368461E+00
         11   -1    0    0    0    0  0.00000000000E+00  0.00000000000E+00  0.39999999674E+01  0.40000000000E+01  0.51100000000E-03 0.  1.
    9000002   -1    0    0    0    0 -0.00000000000E+00 -0.00000000000E+00  0.00000000000E+00  0.93800000000E+00  0.93800000000E+00 0. -1.
         11    1    1    2    0    0  0.46686225939E-01 -0.42204244289E-01  0.15680270657E+01  0.15692896297E+01  0.51100000000E-03 0.  1.
    9000002    1    1    2    0    0 -0.54562561727E-01 -0.23232920921E+00  0.48109626554E-01  0.96907815514E+00  0.93800000000E+00 0. -1.
         22    1    1    2    0    0  0.78763357880E-02  0.27453345350E+00  0.23838632751E+01  0.23996322152E+01  0.00000000000E+00 0.  1.
</event>
<event>
 5    1  0.3222854E+002  0.1599052E+01  0.7818608E-02  0.3354392E+00
         11   -1    0    0    0    0  0.00000000000E+00  0.00000000000E+00  0.39999999674E+01  0.40000000000E+01  0.51100000000E-03 0. -1.
    9000002   -1    0    0    0    0 -0.00000000000E+00 -0.00000000000E+00  0.00000000000E+00  0.93800000000E+00  0.93800000000E+00 0. -1.
         11    1    1    2    0    0 -0.40652528679E-01 -0.48277192683E-01  0.67381411776E+00  0.67676365286E+00  0.51100000000E-03 0. -1.
    9000002    1    1    2    0    0  0.21230143545E+00  0.15298639620E+00  0.46010025581E-01  0.97490392315E+00  0.93800000000E+00 0. -1.
         22    1    1    2    0    0 -0.17164890677E+00 -0.10470920351E+00  0.32801758240E+01  0.32863324240E+01  0.00000000000E+00 0. -1.
</event>
<event>
 5    1  0.3222854E+002  0.1599656E+01  0.7818608E-02  0.3353736E+00
         11   -1    0    0    0    0  0.00000000000E+00  0.00000000000E+00  0.39999999674E+01  0.40000000000E+01  0.51100000000E-03 0. -1.
    9000002   -1    0    0    0    0 -0.00000000000E+00 -0.00000000000E+00  0.00000000000E+00  0.93800000000E+00  0.93800000000E+00 0.  1.
         11    1    1    2    0    0 -0.24837758561E-01  0.77458358348E-03  0.23373678701E+00  0.23505459143E+00  0.51100000000E-03 0. -1.
    9000002    1    1    2    0    0  0.37237745172E+00 -0.96049406194E-02  0.93294568625E-01  0.10135606040E+01  0.93800000000E+00 0.  1.
         22    1    1    2    0    0 -0.34753969315E+00  0.88303570359E-02  0.36729686117E+01  0.36893848046E+01  0.00000000000E+00 0. -1.
</event>
<event>
 5    1  0.3222854E+002  0.1599675E+01  0.7818608E-02  0.3353716E+00
         11   -1    0    0    0    0  0.00000000000E+00  0.00000000000E+00  0.39999999674E+01  0.40000000000E+01  0.51100000000E-03 0. -1.
    9000002   -1    0    0    0    0 -0.00000000000E+00 -0.00000000000E+00  0.00000000000E+00  0.93800000000E+00  0.93800000000E+00 0. -1.
         11    1    1    2    0    0 -0.47559854867E-02 -0.22732573349E-01  0.16722390814E+00  0.16882975409E+00  0.51100000000E-03 0. -1.
    9000002    1    1    2    0    0  0.11717173102E+00  0.52122894325E+00  0.19655568242E+00  0.10972178280E+01  0.93800000000E+00 0. -1.
         22    1    1    2    0    0 -0.11241574553E+00 -0.49849636990E+00  0.36362203768E+01  0.36719524179E+01  0.00000000000E+00 0. -1.
</event>
<event>
 5    1  0.3222854E+002  0.1456031E+01  0.7818608E-02  0.3526157E+00
         11   -1    0    0    0    0  0.00000000000E+00  0.00000000000E+00  0.39999999674E+01  0.40000000000E+01  0.51100000000E-03 0. -1.
    9000002   -1    0    0    0    0 -0.00000000000E+00 -0.00000000000E+00  0.00000000000E+00  0.93800000000E+00  0.93800000000E+00 0. -1.
         11    1    1    2    0    0 -0.46661379242E-01 -0.61133901635E-01 -0.29653799563E-01  0.82427223606E-01  0.51100000000E-03 0. -1.
    9000002    1    1    2    0    0  0.19949185373E+00  0.21073534740E+00  0.17785216389E+00  0.99783855335E+00  0.93800000000E+00 0. -1.
         22    1    1    2    0    0 -0.15283047449E+00 -0.14960144577E+00  0.38518016030E+01  0.38577342230E+01  0.00000000000E+00 0. -1.
</event>
<event>
 5    1  0.3222854E+002  0.1599601E+01  0.7818608E-02  0.3353796E+00
         11   -1    0    0    0    0  0.00000000000E+00  0.00000000000E+00  0.39999999674E+01  0.40000000000E+01  0.51100000000E-03 0.  1.
    9000002   -1    0    0    0    0 -0.00000000000E+00 -0.00000000000E+00  0.00000000000E+00  0.93800000000E+00  0.93800000000E+00 0. -1.
         11    1    1    2    0    0  0.22616412424E-01 -0.72848294390E-01  0.62141448210E+00  0.62607874567E+00  0.51100000000E-03 0.  1.
    9000002    1    1    2    0    0 -0.95872714456E-01  0.43596777966E+00  0.13532740445E+00  0.10475767221E+01  0.93800000000E+00 0. -1.
         22    1    1    2    0    0  0.73256302032E-01 -0.36311948527E+00  0.32432580808E+01  0.32643445322E+01  0.00000000000E+00 0.  1.
</event>
<event>
 5    1  0.3222854E+002  0.1599667E+01  0.7818608E-02  0.3353725E+00
         11   -1    0    0    0    0  0.00000000000E+00  0.00000000000E+00  0.39999999674E+01  0.40000000000E+01  0.51100000000E-03 0.  1.
    9000002   -1    0    0    0    0 -0.00000000000E+00 -0.00000000000E+00  0.00000000000E+00  0.93800000000E+00  0.93800000000E+00 0.  1.
         11    1    1    2    0    0 -0.69498709905E-02  0.16085594720E+00  0.16478104231E+01  0.16556576904E+01  0.51100000000E-03 0.  1.
    9000002    1    1    2    0    0  0.76945442215E-02 -0.38042633524E+00  0.97430020611E-01  0.10169169147E+01  0.93800000000E+00 0.  1.
         22    1    1    2    0    0 -0.74467323097E-03  0.21957038804E+00  0.22547595237E+01  0.22654253948E+01  0.00000000000E+00 0. -1.
</event>
<event>
 5    1  0.3222854E+002  0.1576444E+01  0.7818608E-02  0.3379334E+00
         11   -1    0    0    0    0  0.00000000000E+00  0.00000000000E+00  0.39999999674E+01  0.40000000000E+01  0.51100000000E-03 0. -1.
    9000002   -1    0    0    0    0 -0.00000000000E+00 -0.00000000000E+00  0.00000000000E+00  0.93800000000E+00  0.93800000000E+00 0. -1.
         11    1    1    2    0    0  0.93819838927E-02 -0.99082000100E-01  0.10732802974E+01  0.10778850227E+01  0.51100000000E-03 0. -1.
    9000002    1    1    2    0    0 -0.23421684321E+00 -0.20112052397E+00  0.82131386195E-01  0.99090693781E+00  0.93800000000E+00 0. -1.
         22    1    1    2    0    0  0.22483485932E+00  0.30020252407E+00  0.28445882838E+01  0.28692080395E+01  0.00000000000E+00 0. -1.
</event>
<event>
 5    1  0.3222854E+002  0.1573844E+01  0.7818608E-02  0.3382251E+00
         11   -1    0    0    0    0  0.00000000000E+00  0.00000000000E+00  0.39999999674E+01  0.40000000000E+01  0.51100000000E-03 0.  1.
    9000002   -1    0    0    0    0 -0.00000000000E+00 -0.00000000000E+00  0.00000000000E+00  0.93800000000E+00  0.93800000000E+00 0.  1.
         11    1    1    2    0    0  0.27892260793E-01  0.20710961118E-01  0.18974552761E-01  0.39588090331E-01  0.51100000000E-03 0.  1.
    9000002    1    1    2    0    0 -0.12217509366E+00 -0.19863547993E+00  0.55947081381E-01  0.96817192859E+00  0.93800000000E+00 0.  1.
         22    1    1    2    0    0  0.94282832867E-01  0.17792451881E+00  0.39250783332E+01  0.39302399811E+01  0.00000000000E+00 0.  1.
</event>
<event>
 5    1  0.3222854E+002  0.1591780E+01  0.7818608E-02  0.3362334E+00
         11   -1    0    0    0    0  0.00000000000E+00  0.00000000000E+00  0.39999999674E+01  0.40000000000E+01  0.51100000000E-03 0.  1.
    9000002   -1    0    0    0    0 -0.00000000000E+00 -0.00000000000E+00  0.00000000000E+00  0.93800000000E+00  0.93800000000E+00 0. -1.
         11    1    1    2    0    0  0.11084455631E-01  0.58603215441E-02  0.10141288400E-01  0.16134291948E-01  0.51100000000E-03 0.  1.
    9000002    1    1    2    0    0  0.13402645802E-01 -0.20927265513E+00  0.35091702494E-01  0.96179524987E+00  0.93800000000E+00 0. -1.
         22    1    1    2    0    0 -0.24487101433E-01  0.20341233358E+00  0.39547669765E+01  0.39600704582E+01  0.00000000000E+00 0.  1.
</event>
<event>
 5    1  0.3222854E+002  0.1599630E+01  0.7818608E-02  0.3353765E+00
         11   -1    0    0    0    0  0.00000000000E+00  0.00000000000E+00  0.39999999674E+01  0.40000000000E+01  0.51100000000E-03 0. -1.
    9000002   -1    0    0    0    0 -0.00000000000E+00 -0.00000000000E+00  0.00000000000E+00  0.93800000000E+00  0.93800000000E+00 0. -1.
         11    1    1    2    0    0  0.78159417655E-01  0.42413917814E-01  0.69862536003E+00  0.70426237284E+00  0.51100000000E-03 0. -1.
    9000002    1    1    2    0    0 -0.39697633275E+00 -0.22783630346E+00  0.14249301040E+00  0.10533982381E+01  0.93800000000E+00 0. -1.
         22    1    1    2    0    0  0.31881691509E+00  0.18542238565E+00  0.31588815969E+01  0.31803393891E+01  0.00000000000E+00 0. -1.
</event>
<event>
 5    1  0.3222854E+002  0.1599020E+01  0.7818608E-02  0.3354428E+00
         11   -1    0    0    0    0  0.00000000000E+00  0.00000000000E+00  0.39999999674E+01  0.40000000000E+01  0.51100000000E-03 0. -1.
    9000002   -1    0    0    0    0 -0.00000000000E+00 -0.00000000000E+00  0.00000000000E+00  0.93800000000E+00  0.93800000000E+00 0.  1.
         11    1    1    2    0    0  0.41120219898E-01 -0.16725413137E+00  0.19780844036E+01  0.19855686807E+01  0.51100000000E-03 0. -1.
    9000002    1    1    2    0    0 -0.13849517734E+00  0.35088206747E+00  0.96251276628E-01  0.10155823195E+01  0.93800000000E+00 0.  1.
         22    1    1    2    0    0  0.97374957438E-01 -0.18362793610E+00  0.19256642871E+01  0.19368489998E+01  0.00000000000E+00 0. -1.
</event>
<event>
 5    1  0.3222854E+002  0.1592484E+01  0.7818608E-02  0.3361561E+00
         11   -1    0    0    0    0  0.00000000000E+00  0.00000000000E+00  0.39999999674E+01  0.40000000000E+01  0.51100000000E-03 0.  1.
    9000002   -1    0    0    0    0 -0.00000000000E+00 -0.00000000000E+00  0.00000000000E+00  0.93800000000E+00  0.93800000000E+00 0. -1.
         11    1    1    2    0    0 -0.30266005634E-01  0.73301204360E-01  0.40821019518E+00  0.41584242476E+00  0.51100000000E-03 0.  1.
    9000002    1    1    2    0    0 -0.88040482700E-01 -0.24044209717E+00  0.49105335685E-01  0.97355989168E+00  0.93800000000E+00 0. -1.
         22    1    1    2    0    0  0.11830648833E+00  0.16714089281E+00  0.35426844365E+01  0.35485976836E+01  0.00000000000E+00 0.  1.
</event>
<event>
 5    1  0.3222854E+002  0.1595362E+01  0.7818608E-02  0.3358412E+00
         11   -1    0    0    0    0  0.00000000000E+00  0.00000000000E+00  0.39999999674E+01  0.40000000000E+01  0.51100000000E-03 0.  1.
    9000002   -1    0    0    0    0 -0.00000000000E+00 -0.00000000000E+00  0.00000000000E+00  0.93800000000E+00  0.93800000000E+00 0.  1.
         11    1    1    2    0    0 -0.45154386958E-01 -0.20761218140E-01  0.96842176687E+00  0.96969630633E+00  0.51100000000E-03 0.  1.
    9000002    1    1    2    0    0  0.19424302815E+00 -0.19250927709E+00  0.53116356918E-01  0.97849656265E+00  0.93800000000E+00 0.  1.
         22    1    1    2    0    0 -0.14908864119E+00  0.21327049523E+00  0.29784618436E+01  0.29898071310E+01  0.00000000000E+00 0.  1.
</event>
<event>
 5    1  0.3222854E+002  0.1599404E+01  0.7818608E-02  0.3354011E+00
         11   -1    0    0    0    0  0.00000000000E+00  0.00000000000E+00  0.39999999674E+01  0.40000000000E+01  0.51100000000E-03 0. -1.
    9000002   -1    0    0    0    0 -0.00000000000E+00 -0.00000000000E+00  0.00000000000E+00  0.93800000000E+00  0.93800000000E+00 0. -1.
         11    1    1    2    0    0  0.16377694956E+00 -0.60741464938E-01  0.11115189421E+01  0.11251608927E+01  0.51100000000E-03 0. -1.
    9000002    1    1    2    0    0 -0.50302488105E+00  0.23567033003E+00  0.21361584176E+00  0.11108781496E+01  0.93800000000E+00 0. -1.
         22    1    1    2    0    0  0.33924793149E+00 -0.17492886509E+00  0.26748651835E+01  0.27019609577E+01  0.00000000000E+00 0. -1.
</event>
<event>
 5    1  0.3222854E+002  0.1599664E+01  0.7818608E-02  0.3353728E+00
         11   -1    0    0    0    0  0.00000000000E+00  0.00000000000E+00  0.39999999674E+01  0.40000000000E+01  0.51100000000E-03 0.  1.
    9000002   -1    0    0    0    0 -0.00000000000E+00 -0.00000000000E+00  0.00000000000E+00  0.93800000000E+00  0.93800000000E+00 0.  1.
         11    1    1    2    0    0  0.73198261576E-01 -0.54677340254E-01  0.10158327674E+01  0.10199333652E+01  0.51100000000E-03 0.  1.
    9000002    1    1    2    0    0 -0.29616902123E+00  0.21172039827E+00  0.89021772120E-01  0.10101041986E+01  0.93800000000E+00 0.  1.
         22    1    1    2    0    0  0.22297075966E+00 -0.15704305802E+00  0.28951454279E+01  0.29079624362E+01  0.00000000000E+00 0.  1.
</event>
<event>
 5    1  0.3222854E+002  0.1598880E+01  0.7818608E-02  0.3354580E+00
         11   -1    0    0    0    0  0.00000000000E+00  0.00000000000E+00  0.39999999674E+01  0.40000000000E+01  0.51100000000E-03 0. -1.
    9000002   -1    0    0    0    0 -0.00000000000E+00 -0.00000000000E+00  0.00000000000E+00  0.93800000000E+00  0.93800000000E+00 0. -1.
         11    1    1    2    0    0 -0.27069578797E-01 -0.96090332917E-01  0.77828070043E+00  0.78465739273E+00  0.51100000000E-03 0. -1.
    9000002    1    1    2    0    0  0.25804503591E+00  0.50878945192E+00  0.22645731934E+00  0.11209731774E+01  0.93800000000E+00 0. -1.
         22    1    1    2    0    0 -0.23097545711E+00 -0.41269911900E+00  0.29952619476E+01  0.30323694299E+01  0.00000000000E+00 0. -1.
</event>
<event>
 5    1  0.3222854E+002  0.1599676E+01  0.7818608E-02  0.3353715E+00
         11   -1    0    0    0    0  0.00000000000E+00  0.00000000000E+00  0.39999999674E+01  0.40000000000E+01  0.51100000000E-03 0. -1.
    9000002   -1    0    0    0    0 -0.00000000000E+00 -0.00000000000E+00  0.00000000000E+00  0.93800000000E+00  0.93800000000E+00 0. -1.
         11    1    1    2    0    0 -0.62746882320E-01 -0.86516822878E-01  0.11527235548E+01  0.11576675632E+01  0.51100000000E-03 0. -1.
    9000002    1    1    2    0    0  0.21043717827E+00  0.29202089317E+00  0.86968742998E-01  0.10084481000E+01  0.93800000000E+00 0. -1.
         22    1    1    2    0    0 -0.14769029595E+00 -0.20550407029E+00  0.27603076695E+01  0.27718843368E+01  0.00000000000E+00 0. -1.
</event>
<event>
 5    1  0.3222854E+002  0.1599671E+01  0.7818608E-02  0.3353721E+00
         11   -1    0    0    0    0  0.00000000000E+00  0.00000000000E+00  0.39999999674E+01  0.40000000000E+01  0.51100000000E-03 0.  1.
    9000002   -1    0    0    0    0 -0.00000000000E+00 -0.00000000000E+00  0.00000000000E+00  0.93800000000E+00  0.93800000000E+00 0. -1.
         11    1    1    2    0    0  0.84497245942E-02  0.13484937326E+00  0.10030887312E+01  0.10121477239E+01  0.51100000000E-03 0.  1.
    9000002    1    1    2    0    0 -0.23491221075E-01 -0.50857371657E+00  0.17771699117E+00  0.10819548935E+01  0.93800000000E+00 0. -1.
         22    1    1    2    0    0  0.15041496481E-01  0.37372434331E+00  0.28191942450E+01  0.28438973826E+01  0.00000000000E+00 0.  1.
</event>
<event>
 5    1  0.3222854E+002  0.1599608E+01  0.7818608E-02  0.3353789E+00
         11   -1    0    0    0    0  0.00000000000E+00  0.00000000000E+00  0.39999999674E+01  0.40000000000E+01  0.51100000000E-03 0.  1.
    9000002   -1    0    0    0    0 -0.00000000000E+00 -0.00000000000E+00  0.00000000000E+00  0.93800000000E+00  0.93800000000E+00 0.  1.
         11    1    1    2    0    0 -0.39303816502E-01 -0.14921810634E-01  0.78533523187E+00  0.78645987689E+00  0.51100000000E-03 0.  1.
    9000002    1    1    2    0    0  0.23760696661E+00  0.67077783208E-01  0.40536079538E-01  0.97079538180E+00  0.93800000000E+00 0.  1.
         22    1    1    2    0    0 -0.19830315011E+00 -0.52155972573E-01  0.31741286560E+01  0.31807447413E+01  0.00000000000E+00 0.  1.
</event>
<event>
 5    1  0.3222854E+002  0.1594373E+01  0.7818608E-02  0.3359494E+00
         11   -1    0    0    0    0  0.00000000000E+00  0.00000000000E+00  0.39999999674E+01  0.40000000000E+01  0.51100000000E-03 0.  1.
    9000002   -1    0    0    0    0 -0.00000000000E+00 -0.00000000000E+00  0.00000000000E+00  0.93800000000E+00  0.93800000000E+00 0.  1.
         11    1    1    2    0    0  0.48000117711E-01 -0.20754046060E-01  0.11991720319E+01  0.12003118616E+01  0.51100000000E-03 0.  1.
    9000002    1    1    2    0    0 -0.61257490062E-01  0.31463363397E+00  0.72889347983E-01  0.99393342874E+00  0.93800000000E+00 0.  1.
         22    1    1    2    0    0  0.13257372351E-01 -0.29387958791E+00  0.27279385874E+01  0.27437547097E+01  0.00000000000E+00 0.  1.
</event>
<event>
 5    1  0.3222854E+002  0.1599047E+01  0.7818608E-02  0.3354398E+00
         11   -1    0    0    0    0  0.00000000000E+00  0.00000000000E+00  0.39999999674E+01  0.40000000000E+01  0.51100000000E-03 0.  1.
    9000002   -1    0    0    0    0 -0.00000000000E+00 -0.00000000000E+00  0.00000000000E+00  0.93800000000E+00  0.93800000000E+00 0.  1.
         11    1    1    2    0    0  0.25982188188E-02 -0.15560759375E+00  0.14088234530E+01  0.14173934728E+01  0.51100000000E-03 0.  1.
    9000002    1    1    2    0    0 -0.40229112351E-01  0.35838064677E+00  0.87817903699E-01  0.10087670958E+01  0.93800000000E+00 0.  1.
         22    1    1    2    0    0  0.37630893533E-01 -0.20277305301E+00  0.25033586107E+01  0.25118394314E+01  0.00000000000E+00 0.  1.
</event>
<event>
 5    1  0.3222854E+002  0.1599642E+01  0.7818608E-02  0.3353752E+00
         11   -1    0    0    0    0  0.00000000000E+00  0.00000000000E+00  0.39999999674E+01  0.40000000000E+01  0.51100000000E-03 0. -1.
    9000002   -1    0    0    0    0 -0.00000000000E+00 -0.00000000000E+00  0.00000000000E+00  0.93800000000E+00  0.93800000000E+00 0.  1.
         11    1    1    2    0    0 -0.15150150414E-02  0.13125778603E-02  0.15922115481E-01  0.16055933906E-01  0.51100000000E-03 0. -1.
    9000002    1    1    2    0    0  0.30081396430E+00 -0.15237307507E+00  0.76164117602E-01  0.99967573139E+00  0.93800000000E+00 0.  1.
         22    1    1    2    0    0 -0.29929894926E+00  0.15106049721E+00  0.39079137343E+01  0.39222683347E+01  0.00000000000E+00 0. -1.
</event>
<event>
 5    1  0.3222854E+002  0.1596691E+01  0.7818608E-02  0.3356963E+00
         11   -1    0    0    0    0  0.00000000000E+00  0.00000000000E+00  0.39999999674E+01  0.40000000000E+01  0.51100000000E-03 0.  1.
    9000002   -1    0    0    0    0 -0.00000000000E+00 -0.00000000000E+00  0.00000000000E+00  0.93800000000E+00  0.93800000000E+00 0.  1.
         11    1    1    2    0    0  0.10910652055E+00 -0.41847616669E-02  0.15293935271E+01  0.15332861987E+01  0.51100000000E-03 0.  1.
    9000002    1    1    2    0    0 -0.23518608606E+00  0.16942588273E+00  0.58325980222E-01  0.98349557436E+00  0.93800000000E+00 0.  1.
         22    1    1    2    0    0  0.12607956551E+00 -0.16524112106E+00  0.24122804600E+01  0.24212182270E+01  0.00000000000E+00 0.  1.
</event>
<event>
 5    1  0.3222854E+002  0.1599672E+01  0.7818608E-02  0.3353719E+00
         11   -1    0    0    0    0  0.00000000000E+00  0.00000000000E+00  0.39999999674E+01  0.40000000000E+01  0.51100000000E-03 0.  1.
    9000002   -1    0    0    0    0 -0.00000000000E+00 -0.00000000000E+00  0.00000000000E+00  0.93800000000E+00  0.93800000000E+00 0.  1.
         11    1    1    2    0    0 -0.46877711788E-01  0.13168852420E+00  0.16083137559E+01  0.16143769032E+01  0.51100000000E-03 0.  1.
    9000002    1    1    2    0    0  0.12048046601E+00 -0.32154371982E+00  0.79003693675E-01  0.10019937575E+01  0.93800000000E+00 0.  1.
         22    1    1    2    0    0 -0.73602754219E-01  0.18985519563E+00  0.23126825178E+01  0.23216293393E+01  0.00000000000E+00 0.  1.
</event>
<event>
 5    1  0.3222854E+002  0.1598304E+01  0.7818608E-02  0.3355206E+00
         11   -1    0    0    0    0  0.00000000000E+00  0.00000000000E+00  0.39999999674E+01  0.40000000000E+01  0.51100000000E-03 0. -1.
    9000002   -1    0    0    0    0 -0.00000000000E+00 -0.00000000000E+00  0.00000000000E+00  0.93800000000E+00  0.93800000000E+00 0. -1.
         11    1    1    2    0    0  0.15342123793E+00 -0.52721082382E-01  0.13718771865E+01  0.13814357983E+01  0.51100000000E-03 0. -1.
    9000002    1    1    2    0    0 -0.45230013751E+00  0.30035990747E-01  0.14081519976E+00  0.10512613831E+01  0.93800000000E+00 0. -1.
         22    1    1    2    0    0  0.29887889958E+00  0.22685091635E-01  0.24873075811E+01  0.25053028186E+01  0.00000000000E+00 0. -1.
</event>
<event>
 5    1  0.3222854E+002  0.1537491E+01  0.7818608E-02  0.3424135E+00
         11   -1    0    0    0    0  0.00000000000E+00  0.00000000000E+00  0.39999999674E+01  0.40000000000E+01  0.51100000000E-03 0.  1.
    9000002   -1    0    0    0    0 -0.00000000000E+00 -0.00000000000E+00  0.00000000000E+00  0.93800000000E+00  0.93800000000E+00 0.  1.
         11    1    1    2    0    0  0.15598592696E+00  0.37563915252E-01  0.29899549087E+00  0.33932465548E+00  0.51100000000E-03 0.  1.
    9000002    1    1    2    0    0 -0.28181979847E-01  0.23200892264E+00  0.85025258120E-01  0.97041004668E+00  0.93800000000E+00 0.  1.
         22    1    1    2    0    0 -0.12780394711E+00 -0.26957283789E+00  0.36159792184E+01  0.36282652978E+01  0.00000000000E+00 0.  1.
</event>
<event>
 5    1  0.3222854E+002  0.1598648E+01  0.7818608E-02  0.3354832E+00
         11   -1    0    0    0    0  0.00000000000E+00  0.00000000000E+00  0.39999999674E+01  0.40000000000E+01  0.51100000000E-03 0.  1.
    9000002   -1    0    0    0    0 -0.00000000000E+00 -0.00000000000E+00  0.00000000000E+00  0.93800000000E+00  0.93800000000E+00 0. -1.
         11    1    1    2    0    0  0.33986357179E-01 -0.14312698807E+00  0.13291699809E+01  0.13372858732E+01  0.51100000000E-03 0.  1.
    9000002    1    1    2    0    0 -0.20364954315E+00  0.42906848428E+00  0.15469646199E+00  0.10627078131E+01  0.93800000000E+00 0. -1.
         22    1    1    2    0    0  0.16966318598E+00 -0.28594149621E+00  0.25161335244E+01  0.25380063138E+01  0.00000000000E+00 0.  1.
</event>
<event>
 5    1  0.3222854E+002  0.1599540E+01  0.7818608E-02  0.3353863E+00
         11   -1    0    0    0    0  0.00000000000E+00  0.00000000000E+00  0.39999999674E+01  0.40000000000E+01  0.51100000000E-03 0.  1.
    9000002   -1    0    0    0    0 -0.00000000000E+00 -0.00000000000E+00  0.00000000000E+00  0.93800000000E+00  0.93800000000E+00 0.  1.
         11    1    1    2    0    0 -0.43102349501E-01 -0.58753832134E-02  0.49248676611E+00  0.49440449895E+00  0.51100000000E-03 0.  1.
    9000002    1    1    2    0    0  0.32414380159E+00 -0.24917536552E-01  0.70788588488E-01  0.99526132849E+00  0.93800000000E+00 0.  1.
         22    1    1    2    0    0 -0.28104145209E+00  0.30792919766E-01  0.34367246128E+01  0.34483341726E+01  0.00000000000E+00 0.  1.
</event>
<event>
 5    1  0.3222854E+002  0.1599677E+01  0.7818608E-02  0.3353714E+00
         11   -1    0    0    0    0  0.00000000000E+00  0.00000000000E+00  0.39999999674E+01  0.40000000000E+01  0.51100000000E-03 0.  1.
    9000002   -1    0    0    0    0 -0.00000000000E+00 -0.00000000000E+00  0.00000000000E+00  0.93800000000E+00  0.93800000000E+00 0. -1.
         11    1    1    2    0    0 -0.53422020529E-02  0.70122555301E-01  0.92632918326E+00  0.92899501009E+00  0.51100000000E-03 0. -1.
    9000002    1    1    2    0    0  0.23465631964E-01 -0.29819614927E+00  0.59682750907E-01  0.98634558350E+00  0.93800000000E+00 0. -1.
         22    1    1    2    0    0 -0.18123429911E-01  0.22807359397E+00  0.30139880332E+01  0.30226594064E+01  0.00000000000E+00 0.  1.
</event>
<event>
 5    1  0.3222854E+002  0.1599532E+01  0.7818608E-02  0.3353871E+00
         11   -1    0    0    0    0  0.00000000000E+00  0.00000000000E+00  0.39999999674E+01  0.40000000000E+01  0.51100000000E-03 0. -1.
    9000002   -1    0    0    0    0 -0.00000000000E+00 -0.00000000000E+00  0.00000000000E+00  0.93800000000E+00  0.93800000000E+00 0. -1.
         11    1    1    2    0    0 -0.20303373396E-02 -0.11199828827E-02  0.99876742819E-02  0.10266030875E-01  0.51100000000E-03 0. -1.
    9000002    1    1    2    0    0  0.24103763707E+00  0.46036276377E+00  0.18561147577E+00  0.10882686418E+01  0.93800000000E+00 0. -1.
         22    1    1    2    0    0 -0.23900729973E+00 -0.45924278089E+00  0.38044008173E+01  0.38394653273E+01  0.00000000000E+00 0. -1.
</event>
<event>
 5    1  0.3222854E+002  0.1599403E+01  0.7818608E-02  0.3354012E+00
         11   -1    0    0    0    0  0.00000000000E+00  0.00000000000E+00  0.39999999674E+01  0.40000000000E+01  0.51100000000E-03 0.  1.
    9000002   -1    0    0    0    0 -0.00000000000E+00 -0.00000000000E+00  0.00000000000E+00  0.93800000000E+00  0.93800000000E+00 0.  1.
         11    1    1    2    0    0 -0.98662180916E-01  0.48590272652E-01  0.80427896472E+00  0.81176360768E+00  0.51100000000E-03 0.  1.
    9000002    1    1    2    0    0  0.39807501713E+00 -0.25677523495E+00  0.15319923648E+00  0.10619374966E+01  0.93800000000E+00 0.  1.
         22    1    1    2    0    0 -0.29941283621E+00  0.20818496229E+00  0.30425217662E+01  0.30642988958E+01  0.00000000000E+00 0.  1.
</event>
<event>
 5    1  0.3222854E+002  0.1597610E+01  0.7818608E-02  0.3355962E+00
         11   -1    0    0    0    0  0.00000000000E+00  0.00000000000E+00  0.39999999674E+01  0.40000000000E+01  0.51100000000E-03 0. -1.
    9000002   -1    0    0    0    0 -0.00000000000E+00 -0.00000000000E+00  0.00000000000E+00  0.93800000000E+00  0.93800000000E+00 0.  1.
         11    1    1    2    0    0 -0.11805957774E-01 -0.59948848455E-02  0.51702416329E+00  0.51719393444E+00  0.51100000000E-03 0. -1.
    9000002    1    1    2    0    0 -0.19210196694E+00  0.39482740491E-01  0.27005230298E-01  0.95866330636E+00  0.93800000000E+00 0.  1.
         22    1    1    2    0    0  0.20390792472E+00 -0.33487855645E-01  0.34559705738E+01  0.34621427592E+01  0.00000000000E+00 0. -1.
</event>
<event>
 5    1  0.3222854E+002  0.1599540E+01  0.7818608E-02  0.3353862E+00
         11   -1    0    0    0    0  0.00000000000E+00  0.00000000000E+00  0.39999999674E+01  0.40000000000E+01  0.51100000000E-03 0. -1.
    9000002   -1    0    0    0    0 -0.00000000000E+00 -0.00000000000E+00  0.00000000000E+00  0.93800000000E+00  0.93800000000E+00 0.  1.
         11    1    1    2    0    0 -0.16315716748E+00  0.10186687662E-01  0.16390681709E+01  0.16472002792E+01  0.51100000000E-03 0. -1.
    9000002    1    1    2    0    0  0.39504255605E+00 -0.56315232718E-01  0.10750417371E+00  0.10250030116E+01  0.93800000000E+00 0.  1.
         22    1    1    2    0    0 -0.23188538856E+00  0.46128545056E-01  0.22534276228E+01  0.22657967092E+01  0.00000000000E+00 0. -1.
</event>
<event>
 5    1  0.3222854E+002  0.1579676E+01  0.7818608E-02  0.3375722E+00
         11   -1    0    0    0    0  0.00000000000E+00  0.00000000000E+00  0.39999999674E+01  0.40000000000E+01  0.51100000000E-03 0.  1.
    9000002   -1    0    0    0    0 -0.00000000000E+00 -0.00000000000E+00  0.00000000000E+00  0.93800000000E+00  0.93800000000E+00 0.  1.
         11    1    1    2    0    0  0.56670552702E-01  0.14637004133E+00  0.37140075809E+00  0.40320531342E+00  0.51100000000E-03 0.  1.
    9000002    1    1    2    0    0 -0.13522123725E+00 -0.52012737623E+00  0.21791187757E+00  0.11027904864E+01  0.93800000000E+00 0.  1.
         22    1    1    2    0    0  0.78550684548E-01  0.37375733490E+00  0.34106873317E+01  0.34320042002E+01  0.00000000000E+00 0.  1.
</event>
<event>
 5    1  0.3222854E+002  0.1599657E+01  0.7818608E-02  0.3353736E+00
         11   -1    0    0    0    0  0.00000000000E+00  0.00000000000E+00  0.39999999674E+01  0.40000000000E+01  0.51100000000E-03 0. -1.
    9000002   -1    0    0    0    0 -0.00000000000E+00 -0.00000000000E+00  0.00000000000E+00  0.93800000000E+00  0.93800000000E+00 0.  1.
         11    1    1    2    0    0 -0.28936244484E-01 -0.79043073819E-01  0.11676582542E+01  0.11706883332E+01  0.51100000000E-03 0. -1.
    9000002    1    1    2    0    0  0.87436249296E-01  0.28007427969E+00  0.57410473644E-01  0.98449309917E+00  0.93800000000E+00 0.  1.
         22    1    1    2    0    0 -0.58500004813E-01 -0.20103120587E+00  0.27749312395E+01  0.27828185676E+01  0.00000000000E+00 0. -1.
</event>
<event>
 5    1  0.3222854E+002  0.1561306E+01  0.7818608E-02  0.3396462E+00
         11   -1    0    0    0    0  0.00000000000E+00  0.00000000000E+00  0.39999999674E+01  0.40000000000E+01  0.51100000000E-03 0. -1.
    9000002   -1    0    0    0    0 -0.00000000000E+00 -0.00000000000E+00  0.00000000000E+00  0.93800000000E+00  0.93800000000E+00 0. -1.
         11    1    1    2    0    0  0.23455288394E+00  0.21933653101E+00  0.22973435673E+01  0.23196791365E+01  0.51100000000E-03 0. -1.
    9000002    1    1    2    0    0 -0.25287789186E+00 -0.65449478002E-02  0.72478174194E-01  0.97421103990E+00  0.93800000000E+00 0. -1.
         22    1    1    2    0    0  0.18325007919E-01 -0.21279158321E+00  0.16301782259E+01  0.16441098235E+01  0.00000000000E+00 0. -1.
</event>
<event>
 5    1  0.3222854E+002  0.1599673E+01  0.7818608E-02  0.3353718E+00
         11   -1    0    0    0    0  0.00000000000E+00  0.00000000000E+00  0.39999999674E+01  0.40000000000E+01  0.51100000000E-03 0. -1.
    9000002   -1    0    0    0    0 -0.00000000000E+00 -0.00000000000E+00  0.00000000000E+00  0.93800000000E+00  0.93800000000E+00 0.  1.
         11    1    1    2    0    0 -0.35780623895E-02  0.65048194981E-01  0.52102261839E+00  0.52507989887E+00  0.51100000000E-03 0. -1.
    9000002    1    1    2    0    0  0.18181073795E-01 -0.48768759344E+00  0.16272160909E+00  0.10698093579E+01  0.93800000000E+00 0.  1.
         22    1    1    2    0    0 -0.14603011405E-01  0.42263939846E+00  0.33162557399E+01  0.33431107432E+01  0.00000000000E+00 0. -1.
</event>
<event>
 5    1  0.3222854E+002  0.1599677E+01  0.7818608E-02  0.3353714E+00
         11   -1    0    0    0    0  0.00000000000E+00  0.00000000000E+00  0.39999999674E+01  0.40000000000E+01  0.51100000000E-03 0.  1.
    9000002   -1    0    0    0    0 -0.00000000000E+00 -0.00000000000E+00  0.00000000000E+00  0.93800000000E+00  0.93800000000E+00 0. -1.
         11    1    1    2    0    0  0.71240514036E-02 -0.11286435360E+00  0.13622768637E+01  0.13669629216E+01  0.51100000000E-03 0. -1.
    9000002    1    1    2    0    0 -0.19972649670E-01  0.32607410699E+00  0.71382095776E-01  0.99582259142E+00  0.93800000000E+00 0. -1.
         22    1    1    2    0    0  0.12848598266E-01 -0.21320975340E+00  0.25663410079E+01  0.25752144870E+01  0.00000000000E+00 0.  1.
</event>
<event>
 5    1  0.3222854E+002  0.1599676E+01  0.7818608E-02  0.3353715E+00
         11   -1    0    0    0    0  0.00000000000E+00  0.00000000000E+00  0.39999999674E+01  0.40000000000E+01  0.51100000000E-03 0. -1.
    9000002   -1    0    0    0    0 -0.00000000000E+00 -0.00000000000E+00  0.00000000000E+00  0.93800000000E+00  0.93800000000E+00 0.  1.
         11    1    1    2    0    0 -0.57041740562E-01 -0.21245591241E-01  0.50635008302E+00  0.50999588529E+00  0.51100000000E-03 0.  1.
    9000002    1    1    2    0    0  0.43447350382E+00  0.16507042276E+00  0.14704116283E+00  0.10571095372E+01  0.93800000000E+00 0.  1.
         22    1    1    2    0    0 -0.37743176325E+00 -0.14382483152E+00  0.33466087215E+01  0.33708945775E+01  0.00000000000E+00 0. -1.
</event>
<event>
 5    1  0.3222854E+002  0.1599623E+01  0.7818608E-02  0.3353772E+00
         11   -1    0    0    0    0  0.00000000000E+00  0.00000000000E+00  0.39999999674E+01  0.40000000000E+01  0.51100000000E-03 0. -1.
    9000002   -1    0    0    0    0 -0.00000000000E+00 -0.00000000000E+00  0.00000000000E+00  0.93800000000E+00  0.93800000000E+00 0.  1.
         11    1    1    2    0    0 -0.10300368156E+00  0.44381334997E-01  0.10601539609E+01  0.10660704213E+01  0.51100000000E-03 0. -1.
    9000002    1    1    2    0    0  0.40349122650E+00 -0.15235523657E+00  0.12604637524E+00  0.10400716209E+01  0.93800000000E+00 0.  1.
         22    1    1    2    0    0 -0.30048754495E+00  0.10797390157E+00  0.28137996312E+01  0.28318579577E+01  0.00000000000E+00 0. -1.
</event>
<event>
 5    1  0.3222854E+002  0.1596082E+01  0.7818608E-02  0.3357627E+00
         11   -1    0    0    0    0  0.00000000000E+00  0.00000000000E+00  0.39999999674E+01  0.40000000000E+01  0.51100000000E-03 0.  1.
    9000002   -1    0    0    0    0 -0.00000000000E+00 -0.00000000000E+00  0.00000000000E+00  0.93800000000E+00  0.93800000000E+00 0. -1.
         11    1    1    2    0    0 -0.34552768567E-02 -0.25476089842E+00  0.25627636768E+01  0.25753976350E+01  0.51100000000E-03 0.  1.
    9000002    1    1    2    0    0  0.80555257969E-01  0.45316292528E+00  0.14724047962E+00  0.10551632790E+01  0.93800000000E+00 0. -1.
         22    1    1    2    0    0 -0.77099981113E-01 -0.19840202686E+00  0.12899958110E+01  0.13074390860E+01  0.00000000000E+00 0.  1.
</event>
<event>
 5    1  0.3222854E+002  0.1569924E+01  0.7818608E-02  0.3386668E+00
         11   -1    0    0    0    0  0.00000000000E+00  0.00000000000E+00  0.39999999674E+01  0.40000000000E+01  0.51100000000E-03 0.  1.
    9000002   -1    0    0    0    0 -0.00000000000E+00 -0.00000000000E+00  0.00000000000E+00  0.93800000000E+00  0.93800000000E+00 0. -1.
         11    1    1    2    0    0 -0.17475546758E+00 -0.11057322203E+00  0.84815393958E+00  0.87300130425E+00  0.51100000000E-03 0.  1.
    9000002    1    1    2    0    0  0.33074333351E+00 -0.12679522184E+00  0.10858909679E+00  0.10085156285E+01  0.93800000000E+00 0. -1.
         22    1    1    2    0    0 -0.15598786593E+00  0.23736844387E+00  0.30432569310E+01  0.30564830673E+01  0.00000000000E+00 0. -1.
</event>
<event>
 5    1  0.3222854E+002  0.1599663E+01  0.7818608E-02  0.3353730E+00
         11   -1    0    0    0    0  0.00000000000E+00  0.00000000000E+00  0.39999999674E+01  0.40000000000E+01  0.51100000000E-03 0. -1.
    9000002   -1    0    0    0    0 -0.00000000000E+00 -0.00000000000E+00  0.00000000000E+00  0.93800000000E+00  0.93800000000E+00 0. -1.
         11    1    1    2    0    0  0.12000972054E+00 -0.18946613302E+00  0.16916966350E+01  0.17064986125E+01  0.51100000000E-03 0. -1.
    9000002    1    1    2    0    0 -0.27547498415E+00  0.41916502760E+00  0.17228348773E+00  0.10775487865E+01  0.93800000000E+00 0. -1.
         22    1    1    2    0    0  0.15546526360E+00 -0.22969889458E+00  0.21360198446E+01  0.21539526009E+01  0.00000000000E+00 0. -1.
</event>
<event>
 5    1  0.3222854E+002  0.1599656E+01  0.7818608E-02  0.3353737E+00
         11   -1    0    0    0    0  0.00000000000E+00  0.00000000000E+00  0.39999999674E+01  0.40000000000E+01  0.51100000000E-03 0. -1.
    9000002   -1    0    0    0    0 -0.00000000000E+00 -0.00000000000E+00  0.00000000000E+00  0.93800000000E+00  0.93800000000E+00 0.  1.
         11    1    1    2    0    0  0.12971760364E-01  0.18343469769E-02  0.23660889154E+00  0.23697185502E+00  0.51100000000E-03 0. -1.
    9000002    1    1    2    0    0 -0.24055926700E+00 -0.67194147729E-01  0.41456494940E-01  0.97156906877E+00  0.93800000000E+00 0.  1.
         22    1    1    2    0    0  0.22758750663E+00  0.65359800752E-01  0.37219345809E+01  0.37294590762E+01  0.00000000000E+00 0. -1.
</event>
<event>
 5    1  0.3222854E+002  0.1599607E+01  0.7818608E-02  0.3353790E+00
         11   -1    0    0    0    0  0.00000000000E+00  0.00000000000E+00  0.39999999674E+01  0.40000000000E+01  0.51100000000E-03 0. -1.
    9000002   -1    0    0    0    0 -0.00000000000E+00 -0.00000000000E+00  0.00000000000E+00  0.93800000000E+00  0.93800000000E+00 0. -1.
         11    1    1    2    0    0 -0.18390260976E+00 -0.15572998998E-01  0.15234185971E+01  0.15345576468E+01  0.51100000000E-03 0. -1.
    9000002    1    1    2    0    0  0.47193527525E+00  0.62922565886E-01  0.15463552814E+00  0.10632207202E+01  0.93800000000E+00 0. -1.
         22    1    1    2    0    0 -0.28803266549E+00 -0.47349566888E-01  0.23219458421E+01  0.23402216330E+01  0.00000000000E+00 0. -1.
</event>
<event>
 5    1  0.3222854E+002  0.1599175E+01  0.7818608E-02  0.3354259E+00
         11   -1    0    0    0    0  0.00000000000E+00  0.00000000000E+00  0.39999999674E+01  0.40000000000E+01  0.51100000000E-03 0. -1.
    9000002   -1    0    0    0    0 -0.00000000000E+00 -0.00000000000E+00  0.00000000000E+00  0.93800000000E+00  0.93800000000E+00 0. -1.
         11    1    1    2    0    0 -0.30447910994E-02 -0.53434547623E-02  0.12200437307E+00  0.12216035131E+00  0.51100000000E-03 0. -1.
    9000002    1    1    2    0    0  0.30859342872E+00 -0.43070842893E-01  0.65233347866E-01  0.99054752104E+00  0.93800000000E+00 0. -1.
         22    1    1    2    0    0 -0.30554863762E+00  0.48414297655E-01  0.38127622464E+01  0.38252921277E+01  0.00000000000E+00 0. -1.
</event>
<event>
 5    1  0.3222854E+002  0.1599208E+01  0.7818608E-02  0.3354224E+00
         11   -1    0    0    0    0  0.00000000000E+00  0.00000000000E+00  0.39999999674E+01  0.40000000000E+01  0.51100000000E-03 0.  1.
    9000002   -1    0    0    0    0 -0.00000000000E+00 -0.00000000000E+00  0.00000000000E+00  0.93800000000E+00  0.93800000000E+00 0.  1.
         11    1    1    2    0    0 -0.69901289330E-01 -0.62391106373E-01  0.60446508177E+00  0.61168385348E+00  0.51100000000E-03 0.  1.
    9000002    1    1    2    0    0  0.39154783393E+00  0.28659474152E+00  0.16120175996E+00  0.10683053213E+01  0.93800000000E+00 0.  1.
         22    1    1    2    0    0 -0.32164654460E+00 -0.22420363515E+00  0.32343331256E+01  0.32580108252E+01  0.00000000000E+00 0.  1.
</event>
<event>
 5    1  0.3222854E+002  0.1595081E+01  0.7818608E-02  0.3358720E+00
         11   -1    0    0    0    0  0.00000000000E+00  0.00000000000E+00  0.39999999674E+01  0.40000000000E+01  0.51100000000E-03 0.  1.
    9000002   -1    0    0    0    0 -0.00000000000E+00 -0.00000000000E+00  0.00000000000E+00  0.93800000000E+00  0.93800000000E+00 0.  1.
         11    1    1    2    0    0  0.17392819955E+00 -0.10052570861E+00  0.13266838770E+01  0.13418072914E+01  0.51100000000E-03 0.  1.
    9000002    1    1    2    0    0 -0.37916991253E+00  0.10847087300E+00  0.10865596992E+00  0.10233210018E+01  0.93800000000E+00 0.  1.
         22    1    1    2    0    0  0.20524171297E+00 -0.79451643934E-02  0.25646601205E+01  0.25728717068E+01  0.00000000000E+00 0.  1.
</event>
<event>
 5    1  0.3222854E+002  0.1595356E+01  0.7818608E-02  0.3358419E+00
         11   -1    0    0    0    0  0.00000000000E+00  0.00000000000E+00  0.39999999674E+01  0.40000000000E+01  0.51100000000E-03 0. -1.
    9000002   -1    0    0    0    0 -0.00000000000E+00 -0.00000000000E+00  0.00000000000E+00  0.93800000000E+00  0.93800000000E+00 0. -1.
         11    1    1    2    0    0  0.10285167089E-01 -0.12122043884E-01  0.83642530747E+00  0.83657652651E+00  0.51100000000E-03 0. -1.
    9000002    1    1    2    0    0 -0.88092413957E-01 -0.24562296018E+00  0.48596208373E-01  0.97483152567E+00  0.93800000000E+00 0. -1.
         22    1    1    2    0    0  0.77807246867E-01  0.25774500406E+00  0.31149784515E+01  0.31265919478E+01  0.00000000000E+00 0. -1.
</event>
<event>
 5    1  0.3222854E+002  0.1598537E+01  0.7818608E-02  0.3354953E+00
         11   -1    0    0    0    0  0.00000000000E+00  0.00000000000E+00  0.39999999674E+01  0.40000000000E+01  0.51100000000E-03 0.  1.
    9000002   -1    0    0    0    0 -0.00000000000E+00 -0.00000000000E+00  0.00000000000E+00  0.93800000000E+00  0.93800000000E+00 0. -1.
         11    1    1    2    0    0  0.99071585529E-02 -0.71912386154E-01  0.91671335249E+00  0.91958315275E+00  0.51100000000E-03 0.  1.
    9000002    1    1    2    0    0 -0.17396489117E+00  0.24187737276E+00  0.60099282418E-01  0.98601438659E+00  0.93800000000E+00 0. -1.
         22    1    1    2    0    0  0.16405773262E+00 -0.16996498661E+00  0.30231873325E+01  0.30324024607E+01  0.00000000000E+00 0.  1.
</event>
<event>
 5    1  0.3222854E+002  0.1566360E+01  0.7818608E-02  0.3390704E+00
         11   -1    0    0    0    0  0.00000000000E+00  0.00000000000E+00  0.39999999674E+01  0.40000000000E+01  0.51100000000E-03 0. -1.
    9000002   -1    0    0    0    0 -0.00000000000E+00 -0.00000000000E+00  0.00000000000E+00  0.93800000000E+00  0.93800000000E+00 0.  1.
         11    1    1    2    0    0 -0.16119871896E+00  0.13148704586E+00  0.15911370498E+01  0.16046779248E+01  0.51100000000E-03 0. -1.
    9000002    1    1    2    0    0 -0.13247216954E+00 -0.28102403014E+00  0.91162231023E-01  0.99230939408E+00  0.93800000000E+00 0.  1.
         22    1    1    2    0    0  0.29367088850E+00  0.14953698428E+00  0.23177006866E+01  0.23410126811E+01  0.00000000000E+00 0. -1.
</event>
<event>
 5    1  0.3222854E+002  0.1587650E+01  0.7818608E-02  0.3366877E+00
         11   -1    0    0    0    0  0.00000000000E+00  0.00000000000E+00  0.39999999674E+01  0.40000000000E+01  0.51100000000E-03 0. -1.
    9000002   -1    0    0    0    0 -0.00000000000E+00 -0.00000000000E+00  0.00000000000E+00  0.93800000000E+00  0.93800000000E+00 0. -1.
         11    1    1    2    0    0  0.14860231128E-01  0.83027482186E-01  0.15539584190E+01  0.15562459377E+01  0.51100000000E-03 0. -1.
    9000002    1    1    2    0    0 -0.96158614797E-01  0.11192946046E+00  0.23300006196E-01  0.94982186414E+00  0.93800000000E+00 0. -1.
         22    1    1    2    0    0  0.81298383669E-01 -0.19495694264E+00  0.24227415421E+01  0.24319321982E+01  0.00000000000E+00 0.  1.
</event>
<event>
 5    1  0.3222854E+002  0.1599524E+01  0.7818608E-02  0.3353880E+00
         11   -1    0    0    0    0  0.00000000000E+00  0.00000000000E+00  0.39999999674E+01  0.40000000000E+01  0.51100000000E-03 0. -1.
    9000002   -1    0    0    0    0 -0.00000000000E+00 -0.00000000000E+00  0.00000000000E+00  0.93800000000E+00  0.93800000000E+00 0. -1.
         11    1    1    2    0    0 -0.10003112748E+00  0.24946730810E-01  0.11779221770E+01  0.11824252543E+01  0.51100000000E-03 0. -1.
    9000002    1    1    2    0    0  0.28971753759E+00 -0.92939214437E-01  0.61902136575E-01  0.98805355304E+00  0.93800000000E+00 0. -1.
         22    1    1    2    0    0 -0.18968641010E+00  0.67992483627E-01  0.27601756538E+01  0.27675211926E+01  0.00000000000E+00 0. -1.
</event>
<event>
 5    1  0.3222854E+002  0.1599673E+01  0.7818608E-02  0.3353718E+00
         11   -1    0    0    0    0  0.00000000000E+00  0.00000000000E+00  0.39999999674E+01  0.40000000000E+01  0.51100000000E-03 0. -1.
    9000002   -1    0    0    0    0 -0.00000000000E+00 -0.00000000000E+00  0.00000000000E+00  0.93800000000E+00  0.93800000000E+00 0. -1.
         11    1    1    2    0    0  0.11895677678E+00  0.14718306021E+00  0.12203393508E+01  0.12349258925E+01  0.51100000000E-03 0. -1.
    9000002    1    1    2    0    0 -0.37251620295E+00 -0.44975239086E+00  0.23715333666E+00  0.11301023138E+01  0.93800000000E+00 0. -1.
         22    1    1    2    0    0  0.25355942617E+00  0.30256933065E+00  0.25425072799E+01  0.25729717937E+01  0.00000000000E+00 0. -1.
</event>
<event>
 5    1  0.3222854E+002  0.1596225E+01  0.7818608E-02  0.3357471E+00
         11   -1    0    0    0    0  0.00000000000E+00  0.00000000000E+00  0.39999999674E+01  0.40000000000E+01  0.51100000000E-03 0. -1.
    9000002   -1    0    0    0    0 -0.00000000000E+00 -0.00000000000E+00  0.00000000000E+00  0.93800000000E+00  0.93800000000E+00 0. -1.
         11    1    1    2    0    0  0.51098054717E-01 -0.17242626235E+00  0.10892718855E+01  0.11040178119E+01  0.51100000000E-03 0. -1.
    9000002    1    1    2    0    0 -0.32724415767E+00  0.43477378732E+00  0.20755017944E+00  0.11041005669E+01  0.93800000000E+00 0. -1.
         22    1    1    2    0    0  0.27614610295E+00 -0.26234752497E+00  0.27031779024E+01  0.27298816212E+01  0.00000000000E+00 0. -1.
</event>
<event>
 5    1  0.3222854E+002  0.1599675E+01  0.7818608E-02  0.3353716E+00
         11   -1    0    0    0    0  0.00000000000E+00  0.00000000000E+00  0.39999999674E+01  0.40000000000E+01  0.51100000000E-03 0.  1.
    9000002   -1    0    0    0    0 -0.00000000000E+00 -0.00000000000E+00  0.00000000000E+00  0.93800000000E+00  0.93800000000E+00 0. -1.
         11    1    1    2    0    0  0.79924902168E-01 -0.25374937083E-01  0.11526621941E+01  0.11557085585E+01  0.51100000000E-03 0.  1.
    9000002    1    1    2    0    0 -0.27529719348E+00  0.91972872531E-01  0.56154170481E-01  0.98348606746E+00  0.93800000000E+00 0. -1.
         22    1    1    2    0    0  0.19537229131E+00 -0.66597935447E-01  0.27911836028E+01  0.27988053741E+01  0.00000000000E+00 0.  1.
</event>
<event>
 5    1  0.3222854E+002  0.1599420E+01  0.7818608E-02  0.3353993E+00
         11   -1    0    0    0    0  0.00000000000E+00  0.00000000000E+00  0.39999999674E+01  0.40000000000E+01  0.51100000000E-03 0.  1.
    9000002   -1    0    0    0    0 -0.00000000000E+00 -0.00000000000E+00  0.00000000000E+00  0.93800000000E+00  0.93800000000E+00 0. -1.
         11    1    1    2    0    0 -0.16911961778E-01 -0.19890994068E+00  0.15570975174E+01  0.15698420681E+01  0.51100000000E-03 0.  1.
    9000002    1    1    2    0    0  0.38415104571E-02  0.51519702358E+00  0.18241870499E+00  0.10856165595E+01  0.93800000000E+00 0. -1.
         22    1    1    2    0    0  0.13070451321E-01 -0.31628708290E+00  0.22604837450E+01  0.22825413724E+01  0.00000000000E+00 0.  1.
</event>
<event>
 5    1  0.3222854E+002  0.1589752E+01  0.7818608E-02  0.3364561E+00
         11   -1    0    0    0    0  0.00000000000E+00  0.00000000000E+00  0.39999999674E+01  0.40000000000E+01  0.51100000000E-03 0.  1.
    9000002   -1    0    0    0    0 -0.00000000000E+00 -0.00000000000E+00  0.00000000000E+00  0.93800000000E+00  0.93800000000E+00 0. -1.
         11    1    1    2    0    0 -0.27500053331E-01  0.26116578274E-01  0.14990895684E+00  0.15463274251E+00  0.51100000000E-03 0.  1.
    9000002    1    1    2    0    0 -0.25514344445E+00  0.25270572448E-01  0.51334609758E-01  0.97376384264E+00  0.93800000000E+00 0. -1.
         22    1    1    2    0    0  0.28264349778E+00 -0.51387150722E-01  0.37987564008E+01  0.38096034148E+01  0.00000000000E+00 0.  1.
</event>
<event>
 5    1  0.3222854E+002  0.1599650E+01  0.7818608E-02  0.3353743E+00
         11   -1    0    0    0    0  0.00000000000E+00  0.00000000000E+00  0.39999999674E+01  0.40000000000E+01  0.51100000000E-03 0.  1.
    9000002   -1    0    0    0    0 -0.00000000000E+00 -0.00000000000E+00  0.00000000000E+00  0.93800000000E+00  0.93800000000E+00 0.  1.
         11    1    1    2    0    0  0.29998041233E+00  0.27270413603E+00  0.21314441038E+01  0.21696566600E+01  0.51100000000E-03 0.  1.
    9000002    1    1    2    0    0 -0.51044193711E+00 -0.47715937239E+00  0.34883876953E+00  0.12205591034E+01  0.93800000000E+00 0.  1.
         22    1    1    2    0    0  0.21046152477E+00  0.20445523636E+00  0.15197170941E+01  0.15477842366E+01  0.00000000000E+00 0.  1.
</event>
<event>
 5    1  0.3222854E+002  0.1599677E+01  0.7818608E-02  0.3353714E+00
         11   -1    0    0    0    0  0.00000000000E+00  0.00000000000E+00  0.39999999674E+01  0.40000000000E+01  0.51100000000E-03 0.  1.
    9000002   -1    0    0    0    0 -0.00000000000E+00 -0.00000000000E+00  0.00000000000E+00  0.93800000000E+00  0.93800000000E+00 0. -1.
         11    1    1    2    0    0  0.13061646722E+00 -0.12934253080E+00  0.16342978379E+01  0.16446032457E+01  0.51100000000E-03 0.  1.
    9000002    1    1    2    0    0 -0.30812779494E+00  0.30630827443E+00  0.12792089347E+00  0.10416214533E+01  0.93800000000E+00 0. -1.
         22    1    1    2    0    0  0.17751132772E+00 -0.17696574364E+00  0.22377812360E+01  0.22517753010E+01  0.00000000000E+00 0.  1.
</event>
<event>
 5    1  0.3222854E+002  0.1542741E+01  0.7818608E-02  0.3417956E+00
         11   -1    0    0    0    0  0.00000000000E+00  0.00000000000E+00  0.39999999674E+01  0.40000000000E+01  0.51100000000E-03 0.  1.
    9000002   -1    0    0    0    0 -0.00000000000E+00 -0.00000000000E+00  0.00000000000E+00  0.93800000000E+00  0.93800000000E+00 0.  1.
         11    1    1    2    0    0  0.26843755816E+00  0.10164743783E+00  0.22367806432E+01  0.22551227974E+01  0.51100000000E-03 0.  1.
    9000002    1    1    2    0    0 -0.36675461051E+00  0.30031290206E+00  0.20516903163E+00  0.10708104944E+01  0.93800000000E+00 0.  1.
         22    1    1    2    0    0  0.98317052348E-01 -0.40196033989E+00  0.15580502925E+01  0.16120667082E+01  0.00000000000E+00 0.  1.
</event>
<event>
 5    1  0.3222854E+002  0.1599677E+01  0.7818608E-02  0.3353714E+00
         11   -1    0    0    0    0  0.00000000000E+00  0.00000000000E+00  0.39999999674E+01  0.40000000000E+01  0.51100000000E-03 0. -1.
    9000002   -1    0    0    0    0 -0.00000000000E+00 -0.00000000000E+00  0.00000000000E+00  0.93800000000E+00  0.93800000000E+00 0. -1.
         11    1    1    2    0    0 -0.72071177753E-01  0.26747645792E-01  0.58679271400E+00  0.59180709825E+00  0.51100000000E-03 0.  1.
    9000002    1    1    2    0    0  0.47074227583E+00 -0.17401722492E+00  0.17248082488E+00  0.10777169943E+01  0.93800000000E+00 0. -1.
         22    1    1    2    0    0 -0.39867109808E+00  0.14726957913E+00  0.32407264285E+01  0.32684759075E+01  0.00000000000E+00 0. -1.
</event>
<event>
 5    1  0.3222854E+002  0.1599668E+01  0.7818608E-02  0.3353723E+00
         11   -1    0    0    0    0  0.00000000000E+00  0.00000000000E+00  0.39999999674E+01  0.40000000000E+01  0.51100000000E-03 0. -1.
    9000002   -1    0    0    0    0 -0.00000000000E+00 -0.00000000000E+00  0.00000000000E+00  0.93800000000E+00  0.93800000000E+00 0. -1.
         11    1    1    2    0    0 -0.65598139919E-01 -0.44054720242E-01  0.76804266862E+00  0.77209697336E+00  0.51100000000E-03 0. -1.
    9000002    1    1    2    0    0  0.31903517536E+00  0.22063220751E+00  0.10134194517E+00  0.10200863708E+01  0.93800000000E+00 0. -1.
         22    1    1    2    0    0 -0.25343703544E+00 -0.17657748727E+00  0.31306153536E+01  0.31458166558E+01  0.00000000000E+00 0. -1.
</event>
<event>
 5    1  0.3222854E+002  0.1583707E+01  0.7818608E-02  0.3371240E+00
         11   -1    0    0    0    0  0.00000000000E+00  0.00000000000E+00  0.39999999674E+01  0.40000000000E+01  0.51100000000E-03 0. -1.
    9000002   -1    0    0    0    0 -0.00000000000E+00 -0.00000000000E+00  0.00000000000E+00  0.93800000000E+00  0.93800000000E+00 0. -1.
         11    1    1    2    0    0 -0.16025975169E+00  0.21221859122E+00  0.16828670942E+01  0.17037493467E+01  0.51100000000E-03 0. -1.
    9000002    1    1    2    0    0  0.24475439281E-01 -0.44026116265E+00  0.14570470850E+00  0.10466626966E+01  0.93800000000E+00 0. -1.
         22    1    1    2    0    0  0.13578431241E+00  0.22804257143E+00  0.21714281647E+01  0.21875879567E+01  0.00000000000E+00 0. -1.
</event>
<event>
 5    1  0.3222854E+002  0.1599676E+01  0.7818608E-02  0.3353715E+00
         11   -1    0    0    0    0  0.00000000000E+00  0.00000000000E+00  0.39999999674E+01  0.40000000000E+01  0.51100000000E-03 0. -1.
    9000002   -1    0    0    0    0 -0.00000000000E+00 -0.00000000000E+00  0.00000000000E+00  0.93800000000E+00  0.93800000000E+00 0.  1.
         11    1    1    2    0    0 -0.18578264285E-01 -0.12338721685E-01  0.27264096463E+00  0.27355210229E+00  0.51100000000E-03 0.  1.
    9000002    1    1    2    0    0  0.26912119866E+00  0.17420015769E+00  0.68697349298E-01  0.99364744266E+00  0.93800000000E+00 0.  1.
         22    1    1    2    0    0 -0.25054293438E+00 -0.16186143600E+00  0.36586616534E+01  0.36708004550E+01  0.00000000000E+00 0. -1.
</event>
<event>
 5    1  0.3222854E+002  0.1599675E+01  0.7818608E-02  0.3353717E+00
         11   -1    0    0    0    0  0.00000000000E+00  0.00000000000E+00  0.39999999674E+01  0.40000000000E+01  0.51100000000E-03 0. -1.
    9000002   -1    0    0    0    0 -0.00000000000E+00 -0.00000000000E+00  0.00000000000E+00  0.93800000000E+00  0.93800000000E+00 0. -1.
         11    1    1    2    0    0  0.12176943850E-01  0.25989703609E-01  0.47990762852E+00  0.48076536449E+00  0.51100000000E-03 0. -1.
    9000002    1    1    2    0    0 -0.91641060107E-01 -0.21172332559E+00  0.35308455182E-01  0.96659998836E+00  0.93800000000E+00 0. -1.
         22    1    1    2    0    0  0.79464116256E-01  0.18573362198E+00  0.34847838837E+01  0.34906346472E+01  0.00000000000E+00 0. -1.
</event>
<event>
 5    1  0.3222854E+002  0.1599672E+01  0.7818608E-02  0.3353720E+00
         11   -1    0    0    0    0  0.00000000000E+00  0.00000000000E+00  0.39999999674E+01  0.40000000000E+01  0.51100000000E-03 0.  1.
    9000002   -1    0    0    0    0 -0.00000000000E+00 -0.00000000000E+00  0.00000000000E+00  0.93800000000E+00  0.93800000000E+00 0. -1.
         11    1    1    2    0    0  0.71448242305E-02  0.16183425809E-01  0.26619068481E+00  0.26677836041E+00  0.51100000000E-03 0.  1.
    9000002    1    1    2    0    0 -0.12250004578E+00 -0.22962033475E+00  0.45033746285E-01  0.97447616577E+00  0.93800000000E+00 0. -1.
         22    1    1    2    0    0  0.11535522155E+00  0.21343690895E+00  0.36887755363E+01  0.36967454738E+01  0.00000000000E+00 0.  1.
</event>
<event>
 5    1  0.3222854E+002  0.1599656E+01  0.7818608E-02  0.3353737E+00
         11   -1    0    0    0    0  0.00000000000E+00  0.00000000000E+00  0.39999999674E+01  0.40000000000E+01  0.51100000000E-03 0. -1.
    9000002   -1    0    0    0    0 -0.00000000000E+00 -0.00000000000E+00  0.00000000000E+00  0.93800000000E+00  0.93800000000E+00 0. -1.
         11    1    1    2    0    0  0.52328823729E-01  0.11810906838E+00  0.12858832367E+01  0.12923559948E+01  0.51100000000E-03 0. -1.
    9000002    1    1    2    0    0 -0.17366144412E+00 -0.35346742017E+00  0.10455169845E+00  0.10226791148E+01  0.93800000000E+00 0. -1.
         22    1    1    2    0    0  0.12133262039E+00  0.23535835179E+00  0.26095650322E+01  0.26229648903E+01  0.00000000000E+00 0. -1.
</event>
<event>
 5    1  0.3222854E+002  0.1599539E+01  0.7818608E-02  0.3353864E+00
         11   -1    0    0    0    0  0.00000000000E+00  0.00000000000E+00  0.39999999674E+01  0.40000000000E+01  0.51100000000E-03 0. -1.
    9000002   -1    0    0    0    0 -0.00000000000E+00 -0.00000000000E+00  0.00000000000E+00  0.93800000000E+00  0.93800000000E+00 0. -1.
         11    1    1    2    0    0 -0.25608378125E+00  0.23163797796E+00  0.21016250429E+01  0.21298035444E+01  0.51100000000E-03 0. -1.
    9000002    1    1    2    0    0  0.47081499776E+00 -0.42705160500E+00  0.28428858483E+00  0.11682053907E+01  0.93800000000E+00 0. -1.
         22    1    1    2    0    0 -0.21473121650E+00  0.19541362704E+00  0.16140863396E+01  0.16399910649E+01  0.00000000000E+00 0. -1.
</event>
<event>
 5    1  0.3222854E+002  0.1594236E+01  0.7818608E-02  0.3359643E+00
         11   -1    0    0    0    0  0.00000000000E+00  0.00000000000E+00  0.39999999674E+01  0.40000000000E+01  0.51100000000E-03 0.  1.
    9000002   -1    0    0    0    0 -0.00000000000E+00 -0.00000000000E+00  0.00000000000E+00  0.93800000000E+00  0.93800000000E+00 0. -1.
         11    1    1    2    0    0 -0.53412661860E-01  0.17137673769E-02  0.40589527902E+00  0.40939844662E+00  0.51100000000E-03 0.  1.
    9000002    1    1    2    0    0  0.11155170698E+00 -0.34795020103E+00  0.94113921267E-01  0.10110462679E+01  0.93800000000E+00 0. -1.
         22    1    1    2    0    0 -0.58139045121E-01  0.34623643365E+00  0.34999907671E+01  0.35175552854E+01  0.00000000000E+00 0.  1.
</event>
<event>
 5    1  0.3222854E+002  0.1599676E+01  0.7818608E-02  0.3353716E+00
         11   -1    0    0    0    0  0.00000000000E+00  0.00000000000E+00  0.39999999674E+01  0.40000000000E+01  0.51100000000E-03 0.  1.
    9000002   -1    0    0    0    0 -0.00000000000E+00 -0.00000000000E+00  0.00000000000E+00  0.93800000000E+00  0.93800000000E+00 0.  1.
         11    1    1    2    0    0 -0.34224198870E-01 -0.26178103246E+00  0.19659710128E+01  0.19836186350E+01  0.51100000000E-03 0.  1.
    9000002    1    1    2    0    0  0.69034545969E-01  0.50956286130E+00  0.18145202993E+00  0.10849833719E+01  0.93800000000E+00 0.  1.
         22    1    1    2    0    0 -0.34810347099E-01 -0.24778182884E+00  0.18525769246E+01  0.18693979931E+01  0.00000000000E+00 0.  1.
</event>
<event>
 5    1  0.3222854E+002  0.1599673E+01  0.7818608E-02  0.3353719E+00
         11   -1    0    0    0    0  0.00000000000E+00  0.00000000000E+00  0.39999999674E+01  0.40000000000E+01  0.51100000000E-03 0.  1.
    9000002   -1    0    0    0    0 -0.00000000000E+00 -0.00000000000E+00  0.00000000000E+00  0.93800000000E+00  0.93800000000E+00 0. -1.
         11    1    1    2    0    0 -0.42950780790E-01  0.29428183183E-01  0.74898487379E+00  0.75079250784E+00  0.51100000000E-03 0.  1.
    9000002    1    1    2    0    0  0.21788834311E+00 -0.16093323148E+00  0.48827084522E-01  0.97754944593E+00  0.93800000000E+00 0. -1.
         22    1    1    2    0    0 -0.17493756232E+00  0.13150504830E+00  0.32021880090E+01  0.32096580462E+01  0.00000000000E+00 0.  1.
</event>
<event>
 5    1  0.3222854E+002  0.1595166E+01  0.7818608E-02  0.3358627E+00
         11   -1    0    0    0    0  0.00000000000E+00  0.00000000000E+00  0.39999999674E+01  0.40000000000E+01  0.51100000000E-03 0.  1.
    9000002   -1    0    0    0    0 -0.00000000000E+00 -0.00000000000E+00  0.00000000000E+00  0.93800000000E+00  0.93800000000E+00 0.  1.
         11    1    1    2    0    0 -0.31838943908E+00 -0.12807005517E+00  0.15027615636E+01  0.15414494322E+01  0.51100000000E-03 0.  1.
    9000002    1    1    2    0    0  0.59108229210E+00  0.26672075395E+00  0.30138413726E+00  0.11794891415E+01  0.93800000000E+00 0.  1.
         22    1    1    2    0    0 -0.27269285302E+00 -0.13865069878E+00  0.21958542665E+01  0.22170614263E+01  0.00000000000E+00 0.  1.
</event>
<event>
 5    1  0.3222854E+002  0.1599608E+01  0.7818608E-02  0.3353789E+00
         11   -1    0    0    0    0  0.00000000000E+00  0.00000000000E+00  0.39999999674E+01  0.40000000000E+01  0.51100000000E-03 0. -1.
    9000002   -1    0    0    0    0 -0.00000000000E+00 -0.00000000000E+00  0.00000000000E+00  0.93800000000E+00  0.93800000000E+00 0. -1.
         11    1    1    2    0    0 -0.16399477552E+00  0.15912457519E+00  0.17185987132E+01  0.17337233674E+01  0.51100000000E-03 0. -1.
    9000002    1    1    2    0    0  0.34347445277E+00 -0.35454963814E+00  0.16669818061E+00  0.10729922782E+01  0.93800000000E+00 0. -1.
         22    1    1    2    0    0 -0.17947967725E+00  0.19542506295E+00  0.21147030736E+01  0.21312843544E+01  0.00000000000E+00 0. -1.
</event>
<event>
 5    1  0.3222854E+002  0.1598340E+01  0.7818608E-02  0.3355167E+00
         11   -1    0    0    0    0  0.00000000000E+00  0.00000000000E+00  0.39999999674E+01  0.40000000000E+01  0.51100000000E-03 0. -1.
    9000002   -1    0    0    0    0 -0.00000000000E+00 -0.00000000000E+00  0.00000000000E+00  0.93800000000E+00  0.93800000000E+00 0.  1.
         11    1    1    2    0    0 -0.74028232541E-02 -0.90309191156E-02  0.15966006038E+00  0.16008733646E+00  0.51100000000E-03 0. -1.
    9000002    1    1    2    0    0 -0.24371912189E+00  0.18591548833E+00  0.63773660978E-01  0.98887545172E+00  0.93800000000E+00 0.  1.
         22    1    1    2    0    0  0.25112194515E+00 -0.17688456921E+00  0.37765662460E+01  0.37890372118E+01  0.00000000000E+00 0. -1.
</event>
<event>
 5    1  0.3222854E+002  0.1599677E+01  0.7818608E-02  0.3353714E+00
         11   -1    0    0    0    0  0.00000000000E+00  0.00000000000E+00  0.39999999674E+01  0.40000000000E+01  0.51100000000E-03 0.  1.
    9000002   -1    0    0    0    0 -0.00000000000E+00 -0.00000000000E+00  0.00000000000E+00  0.93800000000E+00  0.93800000000E+00 0.  1.
         11    1    1    2    0    0 -0.43088345161E-01 -0.62037956827E-01  0.64922194707E+00  0.65360133970E+00  0.51100000000E-03 0.  1.
    9000002    1    1    2    0    0  0.25758139660E+00  0.36850064040E+00  0.13728301208E+00  0.10492051864E+01  0.93800000000E+00 0.  1.
         22    1    1    2    0    0 -0.21449305144E+00 -0.30646268357E+00  0.32134950082E+01  0.32351934739E+01  0.00000000000E+00 0.  1.
</event>
<event>
 5    1  0.3222854E+002  0.1599669E+01  0.7818608E-02  0.3353722E+00
         11   -1    0    0    0    0  0.00000000000E+00  0.00000000000E+00  0.39999999674E+01  0.40000000000E+01  0.51100000000E-03 0.  1.
    9000002   -1    0    0    0    0 -0.00000000000E+00 -0.00000000000E+00  0.00000000000E+00  0.93800000000E+00  0.93800000000E+00 0. -1.
         11    1    1    2    0    0  0.23476637672E-01 -0.61201286443E-01  0.29840952521E+00  0.30552455848E+00  0.51100000000E-03 0.  1.
    9000002    1    1    2    0    0 -0.29440984283E+00  0.71477294661E+00  0.43631546797E+00  0.12914304892E+01  0.93800000000E+00 0. -1.
         22    1    1    2    0    0  0.27093320516E+00 -0.65357166016E+00  0.32652749742E+01  0.33410449524E+01  0.00000000000E+00 0.  1.
</event>
<event>
 5    1  0.3222854E+002  0.1599677E+01  0.7818608E-02  0.3353714E+00
         11   -1    0    0    0    0  0.00000000000E+00  0.00000000000E+00  0.39999999674E+01  0.40000000000E+01  0.51100000000E-03 0. -1.
    9000002   -1    0    0    0    0 -0.00000000000E+00 -0.00000000000E+00  0.00000000000E+00  0.93800000000E+00  0.93800000000E+00 0.  1.
         11    1    1    2    0    0  0.39263223353E+00  0.97047171864E-02  0.23346170711E+01  0.23674229411E+01  0.51100000000E-03 0. -1.
    9000002    1    1    2    0    0 -0.62548415516E+00 -0.16104042756E-01  0.27469215205E+00  0.11605126225E+01  0.93800000000E+00 0.  1.
         22    1    1    2    0    0  0.23285192163E+00  0.63993255701E-02  0.13906907442E+01  0.14100644364E+01  0.00000000000E+00 0. -1.
</event>
<event>
 5    1  0.3222854E+002  0.1599670E+01  0.7818608E-02  0.3353721E+00
         11   -1    0    0    0    0  0.00000000000E+00  0.00000000000E+00  0.39999999674E+01  0.40000000000E+01  0.51100000000E-03 0. -1.
    9000002   -1    0    0    0    0 -0.00000000000E+00 -0.00000000000E+00  0.00000000000E+00  0.93800000000E+00  0.93800000000E+00 0.  1.
         11    1    1    2    0    0 -0.40619885354E-02  0.26247554263E-01  0.47187705673E+00  0.47262421822E+00  0.51100000000E-03 0. -1.
    9000002    1    1    2    0    0  0.27551584318E-01 -0.23555243177E+00  0.37331639792E-01  0.96823638087E+00  0.93800000000E+00 0.  1.
         22    1    1    2    0    0 -0.23489595782E-01  0.20930487751E+00  0.34907912708E+01  0.34971394009E+01  0.00000000000E+00 0. -1.
</event>
<event>
 5    1  0.3222854E+002  0.1599672E+01  0.7818608E-02  0.3353719E+00
         11   -1    0    0    0    0  0.00000000000E+00  0.00000000000E+00  0.39999999674E+01  0.40000000000E+01  0.51100000000E-03 0. -1.
    9000002   -1    0    0    0    0 -0.00000000000E+00 -0.00000000000E+00  0.00000000000E+00  0.93800000000E+00  0.93800000000E+00 0.  1.
         11    1    1    2    0    0  0.73782816306E-01 -0.85203269337E-01  0.10512482066E+01  0.10572731691E+01  0.51100000000E-03 0. -1.
    9000002    1    1    2    0    0 -0.26987254951E+00  0.30708922910E+00  0.11286911447E+00  0.10294262599E+01  0.93800000000E+00 0.  1.
         22    1    1    2    0    0  0.19608973320E+00 -0.22188595976E+00  0.28358826463E+01  0.28513005710E+01  0.00000000000E+00 0. -1.
</event>
<event>
 5    1  0.3222854E+002  0.1599635E+01  0.7818608E-02  0.3353759E+00
         11   -1    0    0    0    0  0.00000000000E+00  0.00000000000E+00  0.39999999674E+01  0.40000000000E+01  0.51100000000E-03 0. -1.
    9000002   -1    0    0    0    0 -0.00000000000E+00 -0.00000000000E+00  0.00000000000E+00  0.93800000000E+00  0.93800000000E+00 0.  1.
         11    1    1    2    0    0  0.25973897878E+00  0.20289375922E+00  0.22951645330E+01  0.23187088453E+01  0.51100000000E-03 0. -1.
    9000002    1    1    2    0    0 -0.42079263620E+00 -0.32799405937E+00  0.19604245163E+00  0.10967785503E+01  0.93800000000E+00 0.  1.
         22    1    1    2    0    0  0.16105365743E+00  0.12510030015E+00  0.15087929827E+01  0.15225126043E+01  0.00000000000E+00 0. -1.
</event>
<event>
 5    1  0.3222854E+002  0.1596265E+01  0.7818608E-02  0.3357427E+00
         11   -1    0    0    0    0  0.00000000000E+00  0.00000000000E+00  0.39999999674E+01  0.40000000000E+01  0.51100000000E-03 0. -1.
    9000002   -1    0    0    0    0 -0.00000000000E+00 -0.00000000000E+00  0.00000000000E+00  0.93800000000E+00  0.93800000000E+00 0.  1.
         11    1    1    2    0    0  0.41510309828E+00  0.10486732422E-01  0.21990947036E+01  0.22379540501E+01  0.51100000000E-03 0. -1.
    9000002    1    1    2    0    0 -0.65858852806E+00  0.91975957153E-01  0.31684513245E+00  0.11926580666E+01  0.93800000000E+00 0.  1.
         22    1    1    2    0    0  0.24348542978E+00 -0.10246268957E+00  0.14840601313E+01  0.15073878833E+01  0.00000000000E+00 0. -1.
</event>
<event>
 5    1  0.3222854E+002  0.1599291E+01  0.7818608E-02  0.3354133E+00
         11   -1    0    0    0    0  0.00000000000E+00  0.00000000000E+00  0.39999999674E+01  0.40000000000E+01  0.51100000000E-03 0. -1.
    9000002   -1    0    0    0    0 -0.00000000000E+00 -0.00000000000E+00  0.00000000000E+00  0.93800000000E+00  0.93800000000E+00 0.  1.
         11    1    1    2    0    0 -0.10990713695E+00  0.92163595058E-01  0.18974743890E+01  0.19028880747E+01  0.51100000000E-03 0. -1.
    9000002    1    1    2    0    0  0.26009446611E+00 -0.22655777535E+00  0.80041126751E-01  0.10026106616E+01  0.93800000000E+00 0.  1.
         22    1    1    2    0    0 -0.15018732916E+00  0.13439418030E+00  0.20224844516E+01  0.20325012636E+01  0.00000000000E+00 0. -1.
</event>
<event>
 5    1  0.3222854E+002  0.1599373E+01  0.7818608E-02  0.3354044E+00
         11   -1    0    0    0    0  0.00000000000E+00  0.00000000000E+00  0.39999999674E+01  0.40000000000E+01  0.51100000000E-03 0. -1.
    9000002   -1    0    0    0    0 -0.00000000000E+00 -0.00000000000E+00  0.00000000000E+00  0.93800000000E+00  0.93800000000E+00 0.  1.
         11    1    1    2    0    0  0.25350312227E+00  0.23487237527E+00  0.19948155192E+01  0.20245291014E+01  0.51100000000E-03 0. -1.
    9000002    1    1    2    0    0 -0.49276610720E+00 -0.46228941942E+00  0.32452971430E+00  0.12007054090E+01  0.93800000000E+00 0.  1.
         22    1    1    2    0    0  0.23926298493E+00  0.22741704415E+00  0.16806547339E+01  0.17127654896E+01  0.00000000000E+00 0. -1.
</event>
<event>
 5    1  0.3222854E+002  0.1599676E+01  0.7818608E-02  0.3353715E+00
         11   -1    0    0    0    0  0.00000000000E+00  0.00000000000E+00  0.39999999674E+01  0.40000000000E+01  0.51100000000E-03 0. -1.
    9000002   -1    0    0    0    0 -0.00000000000E+00 -0.00000000000E+00  0.00000000000E+00  0.93800000000E+00  0.93800000000E+00 0. -1.
         11    1    1    2    0    0 -0.19341493132E-01 -0.99135245887E-01  0.10255013875E+01  0.10304636079E+01  0.51100000000E-03 0. -1.
    9000002    1    1    2    0    0  0.70861351600E-01  0.37775232714E+00  0.99443718707E-01  0.10185534866E+01  0.93800000000E+00 0. -1.
         22    1    1    2    0    0 -0.51519858468E-01 -0.27861708125E+00  0.28750548612E+01  0.28889829056E+01  0.00000000000E+00 0. -1.
</event>
<event>
 5    1  0.3222854E+002  0.1599633E+01  0.7818608E-02  0.3353761E+00
         11   -1    0    0    0    0  0.00000000000E+00  0.00000000000E+00  0.39999999674E+01  0.40000000000E+01  0.51100000000E-03 0. -1.
    9000002   -1    0    0    0    0 -0.00000000000E+00 -0.00000000000E+00  0.00000000000E+00  0.93800000000E+00  0.93800000000E+00 0. -1.
         11    1    1    2    0    0  0.50265446407E-01 -0.51351309743E-02  0.72387122635E+00  0.72563268816E+00  0.51100000000E-03 0. -1.
    9000002    1    1    2    0    0 -0.26413054317E+00 -0.38622167737E-02  0.46439475953E-01  0.97559237670E+00  0.93800000000E+00 0. -1.
         22    1    1    2    0    0  0.21386509677E+00  0.89973477481E-02  0.32296892651E+01  0.32367749351E+01  0.00000000000E+00 0. -1.
</event>
<event>
 5    1  0.3222854E+002  0.1599500E+01  0.7818608E-02  0.3353906E+00
         11   -1    0    0    0    0  0.00000000000E+00  0.00000000000E+00  0.39999999674E+01  0.40000000000E+01  0.51100000000E-03 0.  1.
    9000002   -1    0    0    0    0 -0.00000000000E+00 -0.00000000000E+00  0.00000000000E+00  0.93800000000E+00  0.93800000000E+00 0. -1.
         11    1    1    2    0    0  0.22087462062E+00 -0.19843534473E+00  0.18941980375E+01  0.19173285192E+01  0.51100000000E-03 0.  1.
    9000002    1    1    2    0    0 -0.42453739822E+00  0.36830076317E+00  0.21885201309E+00  0.11151760660E+01  0.93800000000E+00 0. -1.
         22    1    1    2    0    0  0.20366277760E+00 -0.16986541844E+00  0.18869499168E+01  0.19054954148E+01  0.00000000000E+00 0.  1.
</event>
<event>
 5    1  0.3222854E+002  0.1573632E+01  0.7818608E-02  0.3382489E+00
         11   -1    0    0    0    0  0.00000000000E+00  0.00000000000E+00  0.39999999674E+01  0.40000000000E+01  0.51100000000E-03 0. -1.
    9000002   -1    0    0    0    0 -0.00000000000E+00 -0.00000000000E+00  0.00000000000E+00  0.93800000000E+00  0.93800000000E+00 0. -1.
         11    1    1    2    0    0  0.55933522408E-02 -0.23480118954E+00  0.22487275687E+01  0.22609597129E+01  0.51100000000E-03 0. -1.
    9000002    1    1    2    0    0  0.15753194621E+00  0.11896563867E+00  0.45554718879E-01  0.95962928763E+00  0.93800000000E+00 0. -1.
         22    1    1    2    0    0 -0.16312529845E+00  0.11583555087E+00  0.17057176798E+01  0.17174109995E+01  0.00000000000E+00 0. -1.
</event>
<event>
 5    1  0.3222854E+002  0.1599642E+01  0.7818608E-02  0.3353752E+00
         11   -1    0    0    0    0  0.00000000000E+00  0.00000000000E+00  0.39999999674E+01  0.40000000000E+01  0.51100000000E-03 0. -1.
    9000002   -1    0    0    0    0 -0.00000000000E+00 -0.00000000000E+00  0.00000000000E+00  0.93800000000E+00  0.93800000000E+00 0.  1.
         11    1    1    2    0    0  0.41072305154E-01 -0.92708623300E-01  0.10483309034E+01  0.10532235125E+01  0.51100000000E-03 0. -1.
    9000002    1    1    2    0    0 -0.13356069183E+00  0.33317458103E+00  0.86505980959E-01  0.10080530961E+01  0.93800000000E+00 0.  1.
         22    1    1    2    0    0  0.92488386674E-01 -0.24046595773E+00  0.28651630830E+01  0.28767233914E+01  0.00000000000E+00 0. -1.
</event>
<event>
 5    1  0.3222854E+002  0.1577871E+01  0.7818608E-02  0.3377738E+00
         11   -1    0    0    0    0  0.00000000000E+00  0.00000000000E+00  0.39999999674E+01  0.40000000000E+01  0.51100000000E-03 0. -1.
    9000002   -1    0    0    0    0 -0.00000000000E+00 -0.00000000000E+00  0.00000000000E+00  0.93800000000E+00  0.93800000000E+00 0. -1.
         11    1    1    2    0    0 -0.96275201638E-01  0.70265404290E-01  0.75259304574E+00  0.76197289657E+00  0.51100000000E-03 0. -1.
    9000002    1    1    2    0    0 -0.12899023814E+00 -0.31052196012E-02  0.27170195697E-01  0.94722243610E+00  0.93800000000E+00 0. -1.
         22    1    1    2    0    0  0.22526543978E+00 -0.67160184689E-01  0.32202367259E+01  0.32288046673E+01  0.00000000000E+00 0. -1.
</event>
<event>
 5    1  0.3222854E+002  0.1599673E+01  0.7818608E-02  0.3353719E+00
         11   -1    0    0    0    0  0.00000000000E+00  0.00000000000E+00  0.39999999674E+01  0.40000000000E+01  0.51100000000E-03 0. -1.
    9000002   -1    0    0    0    0 -0.00000000000E+00 -0.00000000000E+00  0.00000000000E+00  0.93800000000E+00  0.93800000000E+00 0.  1.
         11    1    1    2    0    0  0.93145304158E-02  0.88373841376E-02  0.17277179295E+00  0.17324899248E+00  0.51100000000E-03 0.  1.
    9000002    1    1    2    0    0 -0.22403122601E+00 -0.18464578664E+00  0.56180441405E-01  0.98350612543E+00  0.93800000000E+00 0.  1.
         22    1    1    2    0    0  0.21471669560E+00  0.17580840250E+00  0.37710477330E+01  0.37812448821E+01  0.00000000000E+00 0. -1.
</event>
<event>
 5    1  0.3222854E+002  0.1599656E+01  0.7818608E-02  0.3353737E+00
         11   -1    0    0    0    0  0.00000000000E+00  0.00000000000E+00  0.39999999674E+01  0.40000000000E+01  0.51100000000E-03 0.  1.
    9000002   -1    0    0    0    0 -0.00000000000E+00 -0.00000000000E+00  0.00000000000E+00  0.93800000000E+00  0.93800000000E+00 0. -1.
         11    1    1    2    0    0 -0.22784406527E-01 -0.11791852103E+00  0.10103722020E+01  0.10174852110E+01  0.51100000000E-03 0.  1.
    9000002    1    1    2    0    0  0.79997328517E-01  0.43403698248E+00  0.13214829770E+00  0.10450334192E+01  0.93800000000E+00 0. -1.
         22    1    1    2    0    0 -0.57212921990E-01 -0.31611846145E+00  0.28574794676E+01  0.28754813698E+01  0.00000000000E+00 0.  1.
</event>
<event>
 5    1  0.3222854E+002  0.1597377E+01  0.7818608E-02  0.3356216E+00
         11   -1    0    0    0    0  0.00000000000E+00  0.00000000000E+00  0.39999999674E+01  0.40000000000E+01  0.51100000000E-03 0. -1.
    9000002   -1    0    0    0    0 -0.00000000000E+00 -0.00000000000E+00  0.00000000000E+00  0.93800000000E+00  0.93800000000E+00 0.  1.
         11    1    1    2    0    0 -0.34703495677E-01 -0.78674511434E-01  0.91940231893E+00  0.92341480200E+00  0.51100000000E-03 0. -1.
    9000002    1    1    2    0    0  0.25304571234E+00  0.49692872185E+00  0.21729325799E+00  0.11126682556E+01  0.93800000000E+00 0.  1.
         22    1    1    2    0    0 -0.21834221667E+00 -0.41825421041E+00  0.28633043904E+01  0.29019169424E+01  0.00000000000E+00 0. -1.
</event>
<event>
 5    1  0.3222854E+002  0.1578653E+01  0.7818608E-02  0.3376864E+00
         11   -1    0    0    0    0  0.00000000000E+00  0.00000000000E+00  0.39999999674E+01  0.40000000000E+01  0.51100000000E-03 0.  1.
    9000002   -1    0    0    0    0 -0.00000000000E+00 -0.00000000000E+00  0.00000000000E+00  0.93800000000E+00  0.93800000000E+00 0.  1.
         11    1    1    2    0    0  0.68133173788E-01 -0.91171782314E-01  0.15219298859E+01  0.15261799572E+01  0.51100000000E-03 0.  1.
    9000002    1    1    2    0    0  0.38409470979E-01 -0.14838935318E+00  0.31210314475E-01  0.95095361155E+00  0.93800000000E+00 0.  1.
         22    1    1    2    0    0 -0.10654264477E+00  0.23956113549E+00  0.24468597670E+01  0.24608664312E+01  0.00000000000E+00 0.  1.
</event>
<event>
 5    1  0.3222854E+002  0.1599665E+01  0.7818608E-02  0.3353727E+00
         11   -1    0    0    0    0  0.00000000000E+00  0.00000000000E+00  0.39999999674E+01  0.40000000000E+01  0.51100000000E-03 0.  1.
    9000002   -1    0    0    0    0 -0.00000000000E+00 -0.00000000000E+00  0.00000000000E+00  0.93800000000E+00  0.93800000000E+00 0. -1.
         11    1    1    2    0    0 -0.38772298576E-01  0.52683768365E-01  0.87658276041E+00  0.87902017472E+00  0.51100000000E-03 0.  1.
    9000002    1    1    2    0    0  0.15912932354E+00 -0.23729837710E+00  0.54396745089E-01  0.98205685541E+00  0.93800000000E+00 0. -1.
         22    1    1    2    0    0 -0.12035702496E+00  0.18461460874E+00  0.30690204619E+01  0.30769229699E+01  0.00000000000E+00 0.  1.
</event>
<event>
 5    1  0.3222854E+002  0.1598795E+01  0.7818608E-02  0.3354672E+00
         11   -1    0    0    0    0  0.00000000000E+00  0.00000000000E+00  0.39999999674E+01  0.40000000000E+01  0.51100000000E-03 0.  1.
    9000002   -1    0    0    0    0 -0.00000000000E+00 -0.00000000000E+00  0.00000000000E+00  0.93800000000E+00  0.93800000000E+00 0. -1.
         11    1    1    2    0    0  0.27334429525E-01 -0.10941896940E+00  0.11701267936E+01  0.11755495124E+01  0.51100000000E-03 0.  1.
    9000002    1    1    2    0    0  0.40087964865E-02  0.31406240658E+00  0.66595751816E-01  0.99142839370E+00  0.93800000000E+00 0. -1.
         22    1    1    2    0    0 -0.31343226012E-01 -0.20464343719E+00  0.27632774220E+01  0.27710220939E+01  0.00000000000E+00 0.  1.
</event>
<event>
 5    1  0.3222854E+002  0.1599673E+01  0.7818608E-02  0.3353718E+00
         11   -1    0    0    0    0  0.00000000000E+00  0.00000000000E+00  0.39999999674E+01  0.40000000000E+01  0.51100000000E-03 0.  1.
    9000002   -1    0    0    0    0 -0.00000000000E+00 -0.00000000000E+00  0.00000000000E+00  0.93800000000E+00  0.93800000000E+00 0.  1.
         11    1    1    2    0    0  0.47256416790E-01 -0.97019858076E-01  0.11989333984E+01  0.12037805351E+01  0.51100000000E-03 0.  1.
    9000002    1    1    2    0    0 -0.14953910139E+00  0.32235449296E+00  0.84721979702E-01  0.10066261351E+01  0.93800000000E+00 0.  1.
         22    1    1    2    0    0  0.10228268460E+00 -0.22533463488E+00  0.27163445893E+01  0.27275933298E+01  0.00000000000E+00 0.  1.
</event>
<event>
 5    1  0.3222854E+002  0.1537879E+01  0.7818608E-02  0.3423676E+00
         11   -1    0    0    0    0  0.00000000000E+00  0.00000000000E+00  0.39999999674E+01  0.40000000000E+01  0.51100000000E-03 0.  1.
    9000002   -1    0    0    0    0 -0.00000000000E+00 -0.00000000000E+00  0.00000000000E+00  0.93800000000E+00  0.93800000000E+00 0.  1.
         11    1    1    2    0    0 -0.91391495125E-01  0.12270999505E+00  0.24530497857E+00  0.28911060496E+00  0.51100000000E-03 0.  1.
    9000002    1    1    2    0    0  0.22374736834E+00  0.10346207595E+00  0.89095702656E-01  0.97393497228E+00  0.93800000000E+00 0.  1.
         22    1    1    2    0    0 -0.13235587321E+00 -0.22617207101E+00  0.36655992861E+01  0.36749544228E+01  0.00000000000E+00 0.  1.
</event>
<event>
 5    1  0.3222854E+002  0.1599676E+01  0.7818608E-02  0.3353715E+00
         11   -1    0    0    0    0  0.00000000000E+00  0.00000000000E+00  0.39999999674E+01  0.40000000000E+01  0.51100000000E-03 0.  1.
    9000002   -1    0    0    0    0 -0.00000000000E+00 -0.00000000000E+00  0.00000000000E+00  0.93800000000E+00  0.93800000000E+00 0.  1.
         11    1    1    2    0    0  0.35981612558E+00 -0.34806982202E+00  0.23234064439E+01  0.23767284257E+01  0.51100000000E-03 0.  1.
    9000002    1    1    2    0    0 -0.55236104043E+00  0.53320569150E+00  0.42962384743E+00  0.12860138719E+01  0.93800000000E+00 0.  1.
         22    1    1    2    0    0  0.19254491486E+00 -0.18513586948E+00  0.12469696761E+01  0.12752577024E+01  0.00000000000E+00 0.  1.
</event>
<event>
 5    1  0.3222854E+002  0.1599676E+01  0.7818608E-02  0.3353715E+00
         11   -1    0    0    0    0  0.00000000000E+00  0.00000000000E+00  0.39999999674E+01  0.40000000000E+01  0.51100000000E-03 0.  1.
    9000002   -1    0    0    0    0 -0.00000000000E+00 -0.00000000000E+00  0.00000000000E+00  0.93800000000E+00  0.93800000000E+00 0.  1.
         11    1    1    2    0    0 -0.53958479267E-01 -0.13728411515E+00  0.80781542642E+00  0.82117261890E+00  0.51100000000E-03 0.  1.
    9000002    1    1    2    0    0  0.24501223547E+00  0.62866043623E+00  0.32321002399E+00  0.11998140103E+01  0.93800000000E+00 0.  1.
         22    1    1    2    0    0 -0.19105375621E+00 -0.49137632108E+00  0.28689745170E+01  0.29170133708E+01  0.00000000000E+00 0.  1.
</event>
<event>
 5    1  0.3222854E+002  0.1525994E+01  0.7818608E-02  0.3437824E+00
         11   -1    0    0    0    0  0.00000000000E+00  0.00000000000E+00  0.39999999674E+01  0.40000000000E+01  0.51100000000E-03 0. -1.
    9000002   -1    0    0    0    0 -0.00000000000E+00 -0.00000000000E+00  0.00000000000E+00  0.93800000000E+00  0.93800000000E+00 0. -1.
         11    1    1    2    0    0  0.10564191619E+00 -0.67634868710E-01  0.81066479981E-01  0.14935436123E+00  0.51100000000E-03 0. -1.
    9000002    1    1    2    0    0 -0.45236314341E+00  0.14236526437E+00  0.22139178979E+00  0.10741315593E+01  0.93800000000E+00 0. -1.
         22    1    1    2    0    0  0.34672122722E+00 -0.74730395657E-01  0.36975416976E+01  0.37145140795E+01  0.00000000000E+00 0. -1.
</event>
<event>
 5    1  0.3222854E+002  0.1595983E+01  0.7818608E-02  0.3357735E+00
         11   -1    0    0    0    0  0.00000000000E+00  0.00000000000E+00  0.39999999674E+01  0.40000000000E+01  0.51100000000E-03 0.  1.
    9000002   -1    0    0    0    0 -0.00000000000E+00 -0.00000000000E+00  0.00000000000E+00  0.93800000000E+00  0.93800000000E+00 0. -1.
         11    1    1    2    0    0  0.21597410079E-01  0.81246340970E-02  0.67463174178E+00  0.67502644833E+00  0.51100000000E-03 0.  1.
    9000002    1    1    2    0    0  0.19128320913E+00 -0.10365973521E+00  0.34162582670E-01  0.96350697395E+00  0.93800000000E+00 0. -1.
         22    1    1    2    0    0 -0.21288061921E+00  0.95535101110E-01  0.32912056429E+01  0.32994665777E+01  0.00000000000E+00 0.  1.
</event>
<event>
 5    1  0.3222854E+002  0.1589257E+01  0.7818608E-02  0.3365107E+00
         11   -1    0    0    0    0  0.00000000000E+00  0.00000000000E+00  0.39999999674E+01  0.40000000000E+01  0.51100000000E-03 0.  1.
    9000002   -1    0    0    0    0 -0.00000000000E+00 -0.00000000000E+00  0.00000000000E+00  0.93800000000E+00  0.93800000000E+00 0. -1.
         11    1    1    2    0    0 -0.10549808387E+00 -0.21564428370E-01  0.15447559139E+01  0.15485044284E+01  0.51100000000E-03 0.  1.
    9000002    1    1    2    0    0  0.76409183445E-02  0.21435982528E+00  0.38377345411E-01  0.96297733045E+00  0.93800000000E+00 0. -1.
         22    1    1    2    0    0  0.97857165525E-01 -0.19279539691E+00  0.24168667081E+01  0.24265182411E+01  0.00000000000E+00 0.  1.
</event>
<event>
 5    1  0.3222854E+002  0.1599591E+01  0.7818608E-02  0.3353808E+00
         11   -1    0    0    0    0  0.00000000000E+00  0.00000000000E+00  0.39999999674E+01  0.40000000000E+01  0.51100000000E-03 0.  1.
    9000002   -1    0    0    0    0 -0.00000000000E+00 -0.00000000000E+00  0.00000000000E+00  0.93800000000E+00  0.93800000000E+00 0.  1.
         11    1    1    2    0    0  0.41481460249E+00  0.12990131033E+00  0.24780150904E+01  0.25158506621E+01  0.51100000000E-03 0.  1.
    9000002    1    1    2    0    0 -0.61766807290E+00 -0.17891384444E+00  0.29141112001E+00  0.11740053036E+01  0.93800000000E+00 0.  1.
         22    1    1    2    0    0  0.20285347041E+00  0.49012534103E-01  0.12305737570E+01  0.12481440343E+01  0.00000000000E+00 0. -1.
</event>
<event>
 5    1  0.3222854E+002  0.1596644E+01  0.7818608E-02  0.3357014E+00
         11   -1    0    0    0    0  0.00000000000E+00  0.00000000000E+00  0.39999999674E+01  0.40000000000E+01  0.51100000000E-03 0.  1.
    9000002   -1    0    0    0    0 -0.00000000000E+00 -0.00000000000E+00  0.00000000000E+00  0.93800000000E+00  0.93800000000E+00 0. -1.
         11    1    1    2    0    0 -0.68184700549E-01  0.18073429099E-01  0.10443068763E+01  0.10466866366E+01  0.51100000000E-03 0.  1.
    9000002    1    1    2    0    0  0.95220707900E-01 -0.21806468114E+00  0.39887265799E-01  0.96853197280E+00  0.93800000000E+00 0. -1.
         22    1    1    2    0    0 -0.27036007351E-01  0.19999125204E+00  0.29158058253E+01  0.29227813906E+01  0.00000000000E+00 0.  1.
</event>
<event>
 5    1  0.3222854E+002  0.1462901E+01  0.7818608E-02  0.3517078E+00
         11   -1    0    0    0    0  0.00000000000E+00  0.00000000000E+00  0.39999999674E+01  0.40000000000E+01  0.51100000000E-03 0.  1.
    9000002   -1    0    0    0    0 -0.00000000000E+00 -0.00000000000E+00  0.00000000000E+00  0.93800000000E+00  0.93800000000E+00 0.  1.
         11    1    1    2    0    0 -0.26062130913E+00  0.84695965157E-01  0.42885772526E+00  0.50893622677E+00  0.51100000000E-03 0.  1.
    9000002    1    1    2    0    0 -0.74522200741E-01  0.15738780040E+00  0.12961429441E+00  0.96279195231E+00  0.93800000000E+00 0.  1.
         22    1    1    2    0    0  0.33514350987E+00 -0.24208376556E+00  0.34415279477E+01  0.34662718209E+01  0.00000000000E+00 0.  1.
</event>
<event>
 5    1  0.3222854E+002  0.1599676E+01  0.7818608E-02  0.3353715E+00
         11   -1    0    0    0    0  0.00000000000E+00  0.00000000000E+00  0.39999999674E+01  0.40000000000E+01  0.51100000000E-03 0.  1.
    9000002   -1    0    0    0    0 -0.00000000000E+00 -0.00000000000E+00  0.00000000000E+00  0.93800000000E+00  0.93800000000E+00 0.  1.
         11    1    1    2    0    0 -0.61478462340E-01 -0.20996933228E-01  0.79525467556E+00  0.79790396205E+00  0.51100000000E-03 0.  1.
    9000002    1    1    2    0    0  0.30151204213E+00  0.10151963487E+00  0.67640622600E-01  0.99279151973E+00  0.93800000000E+00 0.  1.
         22    1    1    2    0    0 -0.24003357979E+00 -0.80522701642E-01  0.31371046692E+01  0.31473045182E+01  0.00000000000E+00 0.  1.
</event>
<event>
 5    1  0.3222854E+002  0.1599675E+01  0.7818608E-02  0.3353717E+00
         11   -1    0    0    0    0  0.00000000000E+00  0.00000000000E+00  0.39999999674E+01  0.40000000000E+01  0.51100000000E-03 0.  1.
    9000002   -1    0    0    0    0 -0.00000000000E+00 -0.00000000000E+00  0.00000000000E+00  0.93800000000E+00  0.93800000000E+00 0. -1.
         11    1    1    2    0    0 -0.53153136420E-01 -0.13136147612E+00  0.14136878535E+01  0.14207725721E+01  0.51100000000E-03 0.  1.
    9000002    1    1    2    0    0  0.14690127604E+00  0.36684062734E+00  0.10526471141E+00  0.10232676533E+01  0.93800000000E+00 0. -1.
         22    1    1    2    0    0 -0.93748139617E-01 -0.23547915123E+00  0.24810474025E+01  0.24939597747E+01  0.00000000000E+00 0.  1.
</event>
<event>
 5    1  0.3222854E+002  0.1595165E+01  0.7818608E-02  0.3358628E+00
         11   -1    0    0    0    0  0.00000000000E+00  0.00000000000E+00  0.39999999674E+01  0.40000000000E+01  0.51100000000E-03 0.  1.
    9000002   -1    0    0    0    0 -0.00000000000E+00 -0.00000000000E+00  0.00000000000E+00  0.93800000000E+00  0.93800000000E+00 0.  1.
         11    1    1    2    0    0  0.83088356916E-02  0.48116819420E-01  0.43358044622E+00  0.43632158957E+00  0.51100000000E-03 0.  1.
    9000002    1    1    2    0    0  0.24057843346E+00 -0.10368242692E+00  0.49106132290E-01  0.97513252460E+00  0.93800000000E+00 0.  1.
         22    1    1    2    0    0 -0.24888726915E+00  0.55565607497E-01  0.35173133888E+01  0.35265458858E+01  0.00000000000E+00 0.  1.
</event>
<event>
 5    1  0.3222854E+002  0.1584546E+01  0.7818608E-02  0.3370309E+00
         11   -1    0    0    0    0  0.00000000000E+00  0.00000000000E+00  0.39999999674E+01  0.40000000000E+01  0.51100000000E-03 0. -1.
    9000002   -1    0    0    0    0 -0.00000000000E+00 -0.00000000000E+00  0.00000000000E+00  0.93800000000E+00  0.93800000000E+00 0.  1.
         11    1    1    2    0    0  0.69131342635E-01  0.39848857636E-02  0.21149886034E+00  0.22254673868E+00  0.51100000000E-03 0. -1.
    9000002    1    1    2    0    0 -0.69804716870E-01  0.22967094322E+00  0.49852800718E-01  0.96951056848E+00  0.93800000000E+00 0.  1.
         22    1    1    2    0    0  0.67337423510E-03 -0.23365582898E+00  0.37386483063E+01  0.37459426928E+01  0.00000000000E+00 0. -1.
</event>
<event>
 5    1  0.3222854E+002  0.1597904E+01  0.7818608E-02  0.3355641E+00
         11   -1    0    0    0    0  0.00000000000E+00  0.00000000000E+00  0.39999999674E+01  0.40000000000E+01  0.51100000000E-03 0.  1.
    9000002   -1    0    0    0    0 -0.00000000000E+00 -0.00000000000E+00  0.00000000000E+00  0.93800000000E+00  0.93800000000E+00 0.  1.
         11    1    1    2    0    0 -0.42204297914E-01 -0.18993429793E+00  0.14521269270E+01  0.14651037894E+01  0.51100000000E-03 0.  1.
    9000002    1    1    2    0    0  0.37599774857E-01  0.40053525631E+00  0.11067705724E+00  0.10266136789E+01  0.93800000000E+00 0.  1.
         22    1    1    2    0    0  0.46045230575E-02 -0.21060095838E+00  0.24371959831E+01  0.24462825318E+01  0.00000000000E+00 0.  1.
</event>
<event>
 5    1  0.3222854E+002  0.1599674E+01  0.7818608E-02  0.3353717E+00
         11   -1    0    0    0    0  0.00000000000E+00  0.00000000000E+00  0.39999999674E+01  0.40000000000E+01  0.51100000000E-03 0.  1.
    9000002   -1    0    0    0    0 -0.00000000000E+00 -0.00000000000E+00  0.00000000000E+00  0.93800000000E+00  0.93800000000E+00 0. -1.
         11    1    1    2    0    0  0.22339951200E+00 -0.19392021305E+00  0.22180486811E+01  0.22376891214E+01  0.51100000000E-03 0.  1.
    9000002    1    1    2    0    0 -0.38717157735E+00  0.33662174301E+00  0.18059059250E+00  0.10842845523E+01  0.93800000000E+00 0. -1.
         22    1    1    2    0    0  0.16377206535E+00 -0.14270152997E+00  0.16013606937E+01  0.16160263264E+01  0.00000000000E+00 0.  1.
</event>
<event>
 5    1  0.3222854E+002  0.1599624E+01  0.7818608E-02  0.3353771E+00
         11   -1    0    0    0    0  0.00000000000E+00  0.00000000000E+00  0.39999999674E+01  0.40000000000E+01  0.51100000000E-03 0. -1.
    9000002   -1    0    0    0    0 -0.00000000000E+00 -0.00000000000E+00  0.00000000000E+00  0.93800000000E+00  0.93800000000E+00 0. -1.
         11    1    1    2    0    0 -0.65973172998E-02 -0.26972549737E-01  0.26995354846E+00  0.27137837511E+00  0.51100000000E-03 0. -1.
    9000002    1    1    2    0    0  0.13321023732E+00  0.33898858713E+00  0.89134434307E-01  0.10101718551E+01  0.93800000000E+00 0. -1.
         22    1    1    2    0    0 -0.12661292002E+00 -0.31201603739E+00  0.36409119846E+01  0.36564497697E+01  0.00000000000E+00 0. -1.
</event>
<event>
 5    1  0.3222854E+002  0.1599666E+01  0.7818608E-02  0.3353726E+00
         11   -1    0    0    0    0  0.00000000000E+00  0.00000000000E+00  0.39999999674E+01  0.40000000000E+01  0.51100000000E-03 0.  1.
    9000002   -1    0    0    0    0 -0.00000000000E+00 -0.00000000000E+00  0.00000000000E+00  0.93800000000E+00  0.93800000000E+00 0.  1.
         11    1    1    2    0    0 -0.13960145977E-01 -0.33279103098E-01  0.47812060428E+00  0.47948092531E+00  0.51100000000E-03 0.  1.
    9000002    1    1    2    0    0  0.95401977799E-01  0.28156143791E+00  0.58951837266E-01  0.98574727989E+00  0.93800000000E+00 0.  1.
         22    1    1    2    0    0 -0.81441831822E-01 -0.24828233481E+00  0.34629275258E+01  0.34727717948E+01  0.00000000000E+00 0.  1.
</event>
<event>
 5    1  0.3222854E+002  0.1598223E+01  0.7818608E-02  0.3355295E+00
         11   -1    0    0    0    0  0.00000000000E+00  0.00000000000E+00  0.39999999674E+01  0.40000000000E+01  0.51100000000E-03 0. -1.
    9000002   -1    0    0    0    0 -0.00000000000E+00 -0.00000000000E+00  0.00000000000E+00  0.93800000000E+00  0.93800000000E+00 0. -1.
         11    1    1    2    0    0 -0.37053100664E-01  0.12131373974E+00  0.99623200282E+00  0.10042750720E+01  0.51100000000E-03 0. -1.
    9000002    1    1    2    0    0  0.14114309038E+00 -0.31920962656E+00  0.82841424340E-01  0.10042523882E+01  0.93800000000E+00 0. -1.
         22    1    1    2    0    0 -0.10408998972E+00  0.19789588683E+00  0.29209265402E+01  0.29294725398E+01  0.00000000000E+00 0. -1.
</event>
<event>
 5    1  0.3222854E+002  0.1599588E+01  0.7818608E-02  0.3353811E+00
         11   -1    0    0    0    0  0.00000000000E+00  0.00000000000E+00  0.39999999674E+01  0.40000000000E+01  0.51100000000E-03 0.  1.
    9000002   -1    0    0    0    0 -0.00000000000E+00 -0.00000000000E+00  0.00000000000E+00  0.93800000000E+00  0.93800000000E+00 0.  1.
         11    1    1    2    0    0  0.14142906176E+00 -0.10756101486E+00  0.18770877208E+01  0.18854787520E+01  0.51100000000E-03 0.  1.
    9000002    1    1    2    0    0 -0.29227464991E+00  0.24717130006E+00  0.98690104627E-01  0.10178908877E+01  0.93800000000E+00 0.  1.
         22    1    1    2    0    0  0.15084558816E+00 -0.13961028520E+00  0.20242221419E+01  0.20346303603E+01  0.00000000000E+00 0.  1.
</event>
<event>
 5    1  0.3222854E+002  0.1526512E+01  0.7818608E-02  0.3437203E+00
         11   -1    0    0    0    0  0.00000000000E+00  0.00000000000E+00  0.39999999674E+01  0.40000000000E+01  0.51100000000E-03 0. -1.
    9000002   -1    0    0    0    0 -0.00000000000E+00 -0.00000000000E+00  0.00000000000E+00  0.93800000000E+00  0.93800000000E+00 0. -1.
         11    1    1    2    0    0  0.35731292486E+00 -0.47384020253E-01  0.11871325441E+01  0.12406456827E+01  0.51100000000E-03 0. -1.
    9000002    1    1    2    0    0 -0.26304468202E+00 -0.24401459722E+00  0.14821482460E+00  0.10151587376E+01  0.93800000000E+00 0. -1.
         22    1    1    2    0    0 -0.94268242840E-01  0.29139861747E+00  0.26646525987E+01  0.26821955797E+01  0.00000000000E+00 0. -1.
</event>
<event>
 5    1  0.3222854E+002  0.1599421E+01  0.7818608E-02  0.3353993E+00
         11   -1    0    0    0    0  0.00000000000E+00  0.00000000000E+00  0.39999999674E+01  0.40000000000E+01  0.51100000000E-03 0. -1.
    9000002   -1    0    0    0    0 -0.00000000000E+00 -0.00000000000E+00  0.00000000000E+00  0.93800000000E+00  0.93800000000E+00 0. -1.
         11    1    1    2    0    0  0.32006696731E-01 -0.14359289277E-01  0.46960464828E+00  0.47091337274E+00  0.51100000000E-03 0. -1.
    9000002    1    1    2    0    0 -0.23246396842E+00  0.23034284252E-01  0.36401124906E-01  0.96733609297E+00  0.93800000000E+00 0. -1.
         22    1    1    2    0    0  0.20045727169E+00 -0.86749949754E-02  0.34939941942E+01  0.34997505343E+01  0.00000000000E+00 0. -1.
</event>
<event>
 5    1  0.3222854E+002  0.1525643E+01  0.7818608E-02  0.3438245E+00
         11   -1    0    0    0    0  0.00000000000E+00  0.00000000000E+00  0.39999999674E+01  0.40000000000E+01  0.51100000000E-03 0.  1.
    9000002   -1    0    0    0    0 -0.00000000000E+00 -0.00000000000E+00  0.00000000000E+00  0.93800000000E+00  0.93800000000E+00 0.  1.
         11    1    1    2    0    0 -0.27907836977E+00 -0.46425691915E+00  0.93412618178E+00  0.10798199887E+01  0.51100000000E-03 0.  1.
    9000002    1    1    2    0    0 -0.12719729903E+00  0.24454652913E+00  0.25603630799E+00  0.10106338352E+01  0.93800000000E+00 0.  1.
         22    1    1    2    0    0  0.40627566880E+00  0.21971039002E+00  0.28098374776E+01  0.28475461761E+01  0.00000000000E+00 0.  1.
</event>
<event>
 5    1  0.3222854E+002  0.1599177E+01  0.7818608E-02  0.3354257E+00
         11   -1    0    0    0    0  0.00000000000E+00  0.00000000000E+00  0.39999999674E+01  0.40000000000E+01  0.51100000000E-03 0. -1.
    9000002   -1    0    0    0    0 -0.00000000000E+00 -0.00000000000E+00  0.00000000000E+00  0.93800000000E+00  0.93800000000E+00 0.  1.
         11    1    1    2    0    0  0.12078576591E-01  0.57857850034E-02  0.11480608108E+00  0.11558574607E+00  0.51100000000E-03 0. -1.
    9000002    1    1    2    0    0 -0.27284709429E+00  0.77413508388E-01  0.53970113768E-01  0.98142506658E+00  0.93800000000E+00 0.  1.
         22    1    1    2    0    0  0.26076851769E+00 -0.83199293392E-01  0.38312237725E+01  0.38409891873E+01  0.00000000000E+00 0. -1.
</event>
<event>
 5    1  0.3222854E+002  0.1599674E+01  0.7818608E-02  0.3353717E+00
         11   -1    0    0    0    0  0.00000000000E+00  0.00000000000E+00  0.39999999674E+01  0.40000000000E+01  0.51100000000E-03 0. -1.
    9000002   -1    0    0    0    0 -0.00000000000E+00 -0.00000000000E+00  0.00000000000E+00  0.93800000000E+00  0.93800000000E+00 0.  1.
         11    1    1    2    0    0 -0.14102101769E+00 -0.24610220713E-01  0.16047058494E+01  0.16110784322E+01  0.51100000000E-03 0. -1.
    9000002    1    1    2    0    0  0.33988007457E+00  0.60363215892E-01  0.79859534313E-01  0.10026882507E+01  0.93800000000E+00 0.  1.
         22    1    1    2    0    0 -0.19885905688E+00 -0.35752995179E-01  0.23154345836E+01  0.23242333171E+01  0.00000000000E+00 0. -1.
</event>
<event>
 5    1  0.3222854E+002  0.1599676E+01  0.7818608E-02  0.3353715E+00
         11   -1    0    0    0    0  0.00000000000E+00  0.00000000000E+00  0.39999999674E+01  0.40000000000E+01  0.51100000000E-03 0. -1.
    9000002   -1    0    0    0    0 -0.00000000000E+00 -0.00000000000E+00  0.00000000000E+00  0.93800000000E+00  0.93800000000E+00 0.  1.
         11    1    1    2    0    0 -0.11186764949E-01  0.69950918777E-01  0.10433400456E+01  0.10457423137E+01  0.51100000000E-03 0. -1.
    9000002    1    1    2    0    0  0.42107337434E-01 -0.26843156301E+00  0.49129594679E-01  0.97779662965E+00  0.93800000000E+00 0.  1.
         22    1    1    2    0    0 -0.30920572485E-01  0.19848064423E+00  0.29075303271E+01  0.29144610566E+01  0.00000000000E+00 0. -1.
</event>
<event>
 5    1  0.3222854E+002  0.1598574E+01  0.7818608E-02  0.3354912E+00
         11   -1    0    0    0    0  0.00000000000E+00  0.00000000000E+00  0.39999999674E+01  0.40000000000E+01  0.51100000000E-03 0. -1.
    9000002   -1    0    0    0    0 -0.00000000000E+00 -0.00000000000E+00  0.00000000000E+00  0.93800000000E+00  0.93800000000E+00 0.  1.
         11    1    1    2    0    0 -0.38425934325E-01 -0.10619910694E+00  0.12099162619E+01  0.12151758822E+01  0.51100000000E-03 0. -1.
    9000002    1    1    2    0    0  0.23795531937E+00  0.30809265637E+00  0.10299226935E+00  0.10207816742E+01  0.93800000000E+00 0.  1.
         22    1    1    2    0    0 -0.19952938504E+00 -0.20189354943E+00  0.26870914361E+01  0.27020424435E+01  0.00000000000E+00 0. -1.
</event>
<event>
 5    1  0.3222854E+002  0.1599419E+01  0.7818608E-02  0.3353994E+00
         11   -1    0    0    0    0  0.00000000000E+00  0.00000000000E+00  0.39999999674E+01  0.40000000000E+01  0.51100000000E-03 0. -1.
    9000002   -1    0    0    0    0 -0.00000000000E+00 -0.00000000000E+00  0.00000000000E+00  0.93800000000E+00  0.93800000000E+00 0.  1.
         11    1    1    2    0    0  0.61561529745E-02  0.50461074792E-02  0.97633025528E-01  0.97958308555E-01  0.51100000000E-03 0.  1.
    9000002    1    1    2    0    0 -0.23008384082E+00  0.36632729515E-01  0.36208215063E-01  0.96717917963E+00  0.93800000000E+00 0.  1.
         22    1    1    2    0    0  0.22392768784E+00 -0.41678836994E-01  0.38661587268E+01  0.38728625118E+01  0.00000000000E+00 0. -1.
</event>
<event>
 5    1  0.3222854E+002  0.1599638E+01  0.7818608E-02  0.3353756E+00
         11   -1    0    0    0    0  0.00000000000E+00  0.00000000000E+00  0.39999999674E+01  0.40000000000E+01  0.51100000000E-03 0. -1.
    9000002   -1    0    0    0    0 -0.00000000000E+00 -0.00000000000E+00  0.00000000000E+00  0.93800000000E+00  0.93800000000E+00 0. -1.
         11    1    1    2    0    0  0.60080176663E-01  0.71797898771E-01  0.10182026434E+01  0.10224976528E+01  0.51100000000E-03 0. -1.
    9000002    1    1    2    0    0 -0.21287742378E+00 -0.29358836005E+00  0.88336439043E-01  0.10095336791E+01  0.93800000000E+00 0. -1.
         22    1    1    2    0    0  0.15279724712E+00  0.22179046127E+00  0.28934608849E+01  0.29059686681E+01  0.00000000000E+00 0. -1.
</event>
<event>
 5    1  0.3222854E+002  0.1599503E+01  0.7818608E-02  0.3353903E+00
         11   -1    0    0    0    0  0.00000000000E+00  0.00000000000E+00  0.39999999674E+01  0.40000000000E+01  0.51100000000E-03 0.  1.
    9000002   -1    0    0    0    0 -0.00000000000E+00 -0.00000000000E+00  0.00000000000E+00  0.93800000000E+00  0.93800000000E+00 0.  1.
         11    1    1    2    0    0 -0.29570005442E+00  0.78046585335E-02  0.20876824325E+01  0.21085344756E+01  0.51100000000E-03 0.  1.
    9000002    1    1    2    0    0  0.51317077615E+00 -0.55527278199E-02  0.18085994631E+00  0.10844027842E+01  0.93800000000E+00 0.  1.
         22    1    1    2    0    0 -0.21747072174E+00 -0.22519307136E-02  0.17314575886E+01  0.17450627402E+01  0.00000000000E+00 0.  1.
</event>
<event>
 5    1  0.3222854E+002  0.1594971E+01  0.7818608E-02  0.3358840E+00
         11   -1    0    0    0    0  0.00000000000E+00  0.00000000000E+00  0.39999999674E+01  0.40000000000E+01  0.51100000000E-03 0.  1.
    9000002   -1    0    0    0    0 -0.00000000000E+00 -0.00000000000E+00  0.00000000000E+00  0.93800000000E+00  0.93800000000E+00 0. -1.
         11    1    1    2    0    0  0.13330262485E-01  0.75551485975E-01  0.96822919621E+00  0.97126400142E+00  0.51100000000E-03 0.  1.
    9000002    1    1    2    0    0  0.18279620182E+00 -0.14197807104E+00  0.39116324166E-01  0.96692621791E+00  0.93800000000E+00 0. -1.
         22    1    1    2    0    0 -0.19612646431E+00  0.66426585064E-01  0.29926544470E+01  0.29998097807E+01  0.00000000000E+00 0.  1.
</event>
<event>
 5    1  0.3222854E+002  0.1599617E+01  0.7818608E-02  0.3353780E+00
         11   -1    0    0    0    0  0.00000000000E+00  0.00000000000E+00  0.39999999674E+01  0.40000000000E+01  0.51100000000E-03 0.  1.
    9000002   -1    0    0    0    0 -0.00000000000E+00 -0.00000000000E+00  0.00000000000E+00  0.93800000000E+00  0.93800000000E+00 0.  1.
         11    1    1    2    0    0  0.16955127882E-01  0.55316936415E-01  0.81520909488E+00  0.81725979304E+00  0.51100000000E-03 0.  1.
    9000002    1    1    2    0    0 -0.10692170986E+00 -0.24116990491E+00  0.46328144393E-01  0.97549242541E+00  0.93800000000E+00 0.  1.
         22    1    1    2    0    0  0.89966581981E-01  0.18585296849E+00  0.31384627281E+01  0.31452477816E+01  0.00000000000E+00 0.  1.
</event>
<event>
 5    1  0.3222854E+002  0.1459369E+01  0.7818608E-02  0.3521734E+00
         11   -1    0    0    0    0  0.00000000000E+00  0.00000000000E+00  0.39999999674E+01  0.40000000000E+01  0.51100000000E-03 0. -1.
    9000002   -1    0    0    0    0 -0.00000000000E+00 -0.00000000000E+00  0.00000000000E+00  0.93800000000E+00  0.93800000000E+00 0.  1.
         11    1    1    2    0    0  0.23925389164E+00  0.95593431269E-01  0.29091616421E+00  0.38860391723E+00  0.51100000000E-03 0. -1.
    9000002    1    1    2    0    0  0.90239592944E-01 -0.34576710707E+00  0.20943652662E+00  0.10253807757E+01  0.93800000000E+00 0.  1.
         22    1    1    2    0    0 -0.32949348458E+00  0.25017367580E+00  0.34996472765E+01  0.35240153071E+01  0.00000000000E+00 0. -1.
</event>
<event>
 5    1  0.3222854E+002  0.1599575E+01  0.7818608E-02  0.3353825E+00
         11   -1    0    0    0    0  0.00000000000E+00  0.00000000000E+00  0.39999999674E+01  0.40000000000E+01  0.51100000000E-03 0.  1.
    9000002   -1    0    0    0    0 -0.00000000000E+00 -0.00000000000E+00  0.00000000000E+00  0.93800000000E+00  0.93800000000E+00 0.  1.
         11    1    1    2    0    0  0.16818788867E+00  0.34727638617E+00  0.22515493352E+01  0.22843735956E+01  0.51100000000E-03 0.  1.
    9000002    1    1    2    0    0 -0.25834212345E+00 -0.57316765504E+00  0.27763344484E+00  0.11628353896E+01  0.93800000000E+00 0.  1.
         22    1    1    2    0    0  0.90154234777E-01  0.22589126887E+00  0.14708171873E+01  0.14907910148E+01  0.00000000000E+00 0.  1.
</event>
<event>
 5    1  0.3222854E+002  0.1599629E+01  0.7818608E-02  0.3353766E+00
         11   -1    0    0    0    0  0.00000000000E+00  0.00000000000E+00  0.39999999674E+01  0.40000000000E+01  0.51100000000E-03 0. -1.
    9000002   -1    0    0    0    0 -0.00000000000E+00 -0.00000000000E+00  0.00000000000E+00  0.93800000000E+00  0.93800000000E+00 0.  1.
         11    1    1    2    0    0 -0.11048028195E-01  0.26492279569E-01  0.29171257909E+00  0.29312180015E+00  0.51100000000E-03 0. -1.
    9000002    1    1    2    0    0  0.99055464793E-01 -0.32492152839E+00  0.77319263268E-01  0.10006039442E+01  0.93800000000E+00 0.  1.
         22    1    1    2    0    0 -0.88007436598E-01  0.29842924882E+00  0.36309681250E+01  0.36442742556E+01  0.00000000000E+00 0. -1.
</event>
<event>
 5    1  0.3222854E+002  0.1599676E+01  0.7818608E-02  0.3353715E+00
         11   -1    0    0    0    0  0.00000000000E+00  0.00000000000E+00  0.39999999674E+01  0.40000000000E+01  0.51100000000E-03 0. -1.
    9000002   -1    0    0    0    0 -0.00000000000E+00 -0.00000000000E+00  0.00000000000E+00  0.93800000000E+00  0.93800000000E+00 0.  1.
         11    1    1    2    0    0 -0.69598254927E-02 -0.73511369983E-01  0.97340970967E+00  0.97620647647E+00  0.51100000000E-03 0. -1.
    9000002    1    1    2    0    0  0.25619485469E-01  0.29962653105E+00  0.60333130474E-01  0.98687208025E+00  0.93800000000E+00 0.  1.
         22    1    1    2    0    0 -0.18659659976E-01 -0.22611516106E+00  0.29662571272E+01  0.29749214433E+01  0.00000000000E+00 0. -1.
</event>
<event>
 5    1  0.3222854E+002  0.1598721E+01  0.7818608E-02  0.3354753E+00
         11   -1    0    0    0    0  0.00000000000E+00  0.00000000000E+00  0.39999999674E+01  0.40000000000E+01  0.51100000000E-03 0. -1.
    9000002   -1    0    0    0    0 -0.00000000000E+00 -0.00000000000E+00  0.00000000000E+00  0.93800000000E+00  0.93800000000E+00 0. -1.
         11    1    1    2    0    0  0.12416970982E+00 -0.49052503570E-01  0.12862025759E+01  0.12931131398E+01  0.51100000000E-03 0. -1.
    9000002    1    1    2    0    0 -0.31714725244E+00  0.23666549335E+00  0.10636096668E+00  0.10235964003E+01  0.93800000000E+00 0. -1.
         22    1    1    2    0    0  0.19297754262E+00 -0.18761298978E+00  0.26074364248E+01  0.26212904599E+01  0.00000000000E+00 0. -1.
</event>
<event>
 5    1  0.3222854E+002  0.1599504E+01  0.7818608E-02  0.3353901E+00
         11   -1    0    0    0    0  0.00000000000E+00  0.00000000000E+00  0.39999999674E+01  0.40000000000E+01  0.51100000000E-03 0. -1.
    9000002   -1    0    0    0    0 -0.00000000000E+00 -0.00000000000E+00  0.00000000000E+00  0.93800000000E+00  0.93800000000E+00 0. -1.
         11    1    1    2    0    0  0.85820125571E-01 -0.53700081266E-01  0.10648233407E+01  0.10696250748E+01  0.51100000000E-03 0. -1.
    9000002    1    1    2    0    0 -0.36443042283E+00  0.18976011720E+00  0.11417769070E+00  0.10303877815E+01  0.93800000000E+00 0. -1.
         22    1    1    2    0    0  0.27861029726E+00 -0.13606003593E+00  0.28209989359E+01  0.28379871437E+01  0.00000000000E+00 0. -1.
</event>
<event>
 5    1  0.3222854E+002  0.1598413E+01  0.7818608E-02  0.3355088E+00
         11   -1    0    0    0    0  0.00000000000E+00  0.00000000000E+00  0.39999999674E+01  0.40000000000E+01  0.51100000000E-03 0. -1.
    9000002   -1    0    0    0    0 -0.00000000000E+00 -0.00000000000E+00  0.00000000000E+00  0.93800000000E+00  0.93800000000E+00 0.  1.
         11    1    1    2    0    0 -0.21648827106E+00 -0.76071098161E-01  0.76106349350E+00  0.79490369589E+00  0.51100000000E-03 0. -1.
    9000002    1    1    2    0    0  0.81019328673E+00  0.39809719877E+00  0.62643851722E+00  0.14447019614E+01  0.93800000000E+00 0.  1.
         22    1    1    2    0    0 -0.59370501567E+00 -0.32202610060E+00  0.26124979566E+01  0.26983943427E+01  0.00000000000E+00 0. -1.
</event>
<event>
 5    1  0.3222854E+002  0.1599507E+01  0.7818608E-02  0.3353898E+00
         11   -1    0    0    0    0  0.00000000000E+00  0.00000000000E+00  0.39999999674E+01  0.40000000000E+01  0.51100000000E-03 0. -1.
    9000002   -1    0    0    0    0 -0.00000000000E+00 -0.00000000000E+00  0.00000000000E+00  0.93800000000E+00  0.93800000000E+00 0. -1.
         11    1    1    2    0    0  0.21078536378E+00 -0.34361585363E+00  0.19200838365E+01  0.19619440677E+01  0.51100000000E-03 0. -1.
    9000002    1    1    2    0    0 -0.38073881102E+00  0.62195851988E+00  0.38336255275E+00  0.12484411438E+01  0.93800000000E+00 0. -1.
         22    1    1    2    0    0  0.16995344724E+00 -0.27834266625E+00  0.16965535781E+01  0.17276147885E+01  0.00000000000E+00 0. -1.
</event>
<event>
 5    1  0.3222854E+002  0.1599423E+01  0.7818608E-02  0.3353989E+00
         11   -1    0    0    0    0  0.00000000000E+00  0.00000000000E+00  0.39999999674E+01  0.40000000000E+01  0.51100000000E-03 0.  1.
    9000002   -1    0    0    0    0 -0.00000000000E+00 -0.00000000000E+00  0.00000000000E+00  0.93800000000E+00  0.93800000000E+00 0.  1.
         11    1    1    2    0    0 -0.98096010910E-01 -0.62153676337E-01  0.10600058713E+01  0.10663482616E+01  0.51100000000E-03 0.  1.
    9000002    1    1    2    0    0  0.33509568032E+00  0.17168408771E+00  0.95552590412E-01  0.10152530908E+01  0.93800000000E+00 0.  1.
         22    1    1    2    0    0 -0.23699966941E+00 -0.10953041137E+00  0.28444415057E+01  0.28563986475E+01  0.00000000000E+00 0.  1.
</event>
<event>
 5    1  0.3222854E+002  0.1599217E+01  0.7818608E-02  0.3354213E+00
         11   -1    0    0    0    0  0.00000000000E+00  0.00000000000E+00  0.39999999674E+01  0.40000000000E+01  0.51100000000E-03 0.  1.
    9000002   -1    0    0    0    0 -0.00000000000E+00 -0.00000000000E+00  0.00000000000E+00  0.93800000000E+00  0.93800000000E+00 0. -1.
         11    1    1    2    0    0 -0.11491924007E-01  0.35530999491E-01  0.80145978399E+00  0.80232946020E+00  0.51100000000E-03 0.  1.
    9000002    1    1    2    0    0 -0.99433996886E-02 -0.25322568605E+00  0.43025392182E-01  0.97258280041E+00  0.93800000000E+00 0. -1.
         22    1    1    2    0    0  0.21435323696E-01  0.21769468656E+00  0.31555147912E+01  0.31630877394E+01  0.00000000000E+00 0.  1.
</event>
<event>
 5    1  0.3222854E+002  0.1595423E+01  0.7818608E-02  0.3358346E+00
         11   -1    0    0    0    0  0.00000000000E+00  0.00000000000E+00  0.39999999674E+01  0.40000000000E+01  0.51100000000E-03 0.  1.
    9000002   -1    0    0    0    0 -0.00000000000E+00 -0.00000000000E+00  0.00000000000E+00  0.93800000000E+00  0.93800000000E+00 0.  1.
         11    1    1    2    0    0  0.11902857300E+00 -0.11365919293E-01  0.20787800128E+01  0.20822160282E+01  0.51100000000E-03 0.  1.
    9000002    1    1    2    0    0 -0.36975028117E+00 -0.35331117195E-03  0.95351384531E-01  0.10127444306E+01  0.93800000000E+00 0.  1.
         22    1    1    2    0    0  0.25072170817E+00  0.11719230465E-01  0.18258685700E+01  0.18430395411E+01  0.00000000000E+00 0.  1.
</event>
<event>
 5    1  0.3222854E+002  0.1596051E+01  0.7818608E-02  0.3357660E+00
         11   -1    0    0    0    0  0.00000000000E+00  0.00000000000E+00  0.39999999674E+01  0.40000000000E+01  0.51100000000E-03 0.  1.
    9000002   -1    0    0    0    0 -0.00000000000E+00 -0.00000000000E+00  0.00000000000E+00  0.93800000000E+00  0.93800000000E+00 0.  1.
         11    1    1    2    0    0  0.33092846658E-01 -0.77904578743E-02  0.17052301480E+00  0.17387980742E+00  0.51100000000E-03 0.  1.
    9000002    1    1    2    0    0 -0.20648087158E+00 -0.21601574248E+00  0.62406070769E-01  0.98642570374E+00  0.93800000000E+00 0.  1.
         22    1    1    2    0    0  0.17338802493E+00  0.22380620036E+00  0.37670708818E+01  0.37776944888E+01  0.00000000000E+00 0.  1.
</event>
<event>
 5    1  0.3222854E+002  0.1598880E+01  0.7818608E-02  0.3354580E+00
         11   -1    0    0    0    0  0.00000000000E+00  0.00000000000E+00  0.39999999674E+01  0.40000000000E+01  0.51100000000E-03 0.  1.
    9000002   -1    0    0    0    0 -0.00000000000E+00 -0.00000000000E+00  0.00000000000E+00  0.93800000000E+00  0.93800000000E+00 0.  1.
         11    1    1    2    0    0 -0.52312665537E-01  0.83472335449E-01  0.12999464465E+01  0.13036737593E+01  0.51100000000E-03 0.  1.
    9000002    1    1    2    0    0  0.24739183547E+00 -0.28456540299E+00  0.96283959776E-01  0.10155268533E+01  0.93800000000E+00 0.  1.
         22    1    1    2    0    0 -0.19507916994E+00  0.20109306754E+00  0.26037695611E+01  0.26187993874E+01  0.00000000000E+00 0. -1.
</event>
<event>
 5    1  0.3222854E+002  0.1595361E+01  0.7818608E-02  0.3358414E+00
         11   -1    0    0    0    0  0.00000000000E+00  0.00000000000E+00  0.39999999674E+01  0.40000000000E+01  0.51100000000E-03 0. -1.
    9000002   -1    0    0    0    0 -0.00000000000E+00 -0.00000000000E+00  0.00000000000E+00  0.93800000000E+00  0.93800000000E+00 0. -1.
         11    1    1    2    0    0 -0.12128668692E+00 -0.28419633833E+00  0.17565102615E+01  0.17834815892E+01  0.51100000000E-03 0. -1.
    9000002    1    1    2    0    0  0.14411039289E+00  0.71050108216E+00  0.38324269186E+00  0.12459127393E+01  0.93800000000E+00 0. -1.
         22    1    1    2    0    0 -0.22823705972E-01 -0.42630474383E+00  0.18602470140E+01  0.19086056715E+01  0.00000000000E+00 0. -1.
</event>
<event>
 5    1  0.3222854E+002  0.1599669E+01  0.7818608E-02  0.3353723E+00
         11   -1    0    0    0    0  0.00000000000E+00  0.00000000000E+00  0.39999999674E+01  0.40000000000E+01  0.51100000000E-03 0.  1.
    9000002   -1    0    0    0    0 -0.00000000000E+00 -0.00000000000E+00  0.00000000000E+00  0.93800000000E+00  0.93800000000E+00 0. -1.
         11    1    1    2    0    0 -0.11703170842E+00 -0.11791718316E-01  0.11811730547E+01  0.11870153797E+01  0.51100000000E-03 0.  1.
    9000002    1    1    2    0    0  0.38940713269E+00  0.29103703116E-01  0.10273707146E+00  0.10212168459E+01  0.93800000000E+00 0. -1.
         22    1    1    2    0    0 -0.27237542427E+00 -0.17311984800E-01  0.27160898412E+01  0.27297677744E+01  0.00000000000E+00 0.  1.
</event>
<event>
 5    1  0.3222854E+002  0.1589176E+01  0.7818608E-02  0.3365196E+00
         11   -1    0    0    0    0  0.00000000000E+00  0.00000000000E+00  0.39999999674E+01  0.40000000000E+01  0.51100000000E-03 0. -1.
    9000002   -1    0    0    0    0 -0.00000000000E+00 -0.00000000000E+00  0.00000000000E+00  0.93800000000E+00  0.93800000000E+00 0. -1.
         11    1    1    2    0    0 -0.92733541213E-01 -0.91499644054E-01  0.13340143820E+01  0.13403605213E+01  0.51100000000E-03 0. -1.
    9000002    1    1    2    0    0 -0.69474878734E-01  0.24117826583E+00  0.49921125892E-01  0.97228073800E+00  0.93800000000E+00 0. -1.
         22    1    1    2    0    0  0.16220841995E+00 -0.14967862177E+00  0.26160644594E+01  0.26253587407E+01  0.00000000000E+00 0. -1.
</event>
<event>
 5    1  0.3222854E+002  0.1544477E+01  0.7818608E-02  0.3415922E+00
         11   -1    0    0    0    0  0.00000000000E+00  0.00000000000E+00  0.39999999674E+01  0.40000000000E+01  0.51100000000E-03 0. -1.
    9000002   -1    0    0    0    0 -0.00000000000E+00 -0.00000000000E+00  0.00000000000E+00  0.93800000000E+00  0.93800000000E+00 0. -1.
         11    1    1    2    0    0  0.15956399322E+00  0.31038111244E-02  0.37389435508E+00  0.40653111991E+00  0.51100000000E-03 0. -1.
    9000002    1    1    2    0    0  0.87993933543E-01 -0.10368827641E+00  0.53958826247E-01  0.94934174349E+00  0.93800000000E+00 0. -1.
         22    1    1    2    0    0 -0.24755792677E+00  0.10058446529E+00  0.35721467860E+01  0.35821271366E+01  0.00000000000E+00 0. -1.
</event>
<event>
 5    1  0.3222854E+002  0.1591394E+01  0.7818608E-02  0.3362758E+00
         11   -1    0    0    0    0  0.00000000000E+00  0.00000000000E+00  0.39999999674E+01  0.40000000000E+01  0.51100000000E-03 0.  1.
    9000002   -1    0    0    0    0 -0.00000000000E+00 -0.00000000000E+00  0.00000000000E+00  0.93800000000E+00  0.93800000000E+00 0.  1.
         11    1    1    2    0    0 -0.10553344293E+00  0.12336137250E+00  0.16339681999E+01  0.16420132993E+01  0.51100000000E-03 0.  1.
    9000002    1    1    2    0    0  0.36684320153E+00 -0.63505755258E-01  0.99969571099E-01  0.10141226901E+01  0.93800000000E+00 0.  1.
         22    1    1    2    0    0 -0.26130975859E+00 -0.59855617238E-01  0.22660621964E+01  0.22818640105E+01  0.00000000000E+00 0.  1.
</event>
<event>
 5    1  0.3222854E+002  0.1491648E+01  0.7818608E-02  0.3480069E+00
         11   -1    0    0    0    0  0.00000000000E+00  0.00000000000E+00  0.39999999674E+01  0.40000000000E+01  0.51100000000E-03 0. -1.
    9000002   -1    0    0    0    0 -0.00000000000E+00 -0.00000000000E+00  0.00000000000E+00  0.93800000000E+00  0.93800000000E+00 0. -1.
         11    1    1    2    0    0  0.12043196238E+00 -0.14454761801E+00  0.24679231731E-01  0.18975562452E+00  0.51100000000E-03 0. -1.
    9000002    1    1    2    0    0 -0.63173077529E+00 -0.25761987679E+00  0.59059655675E+00  0.13015759933E+01  0.93800000000E+00 0. -1.
         22    1    1    2    0    0  0.51129881291E+00  0.40216749480E+00  0.33847241789E+01  0.34466683822E+01  0.00000000000E+00 0. -1.
</event>
<event>
 5    1  0.3222854E+002  0.1598002E+01  0.7818608E-02  0.3355535E+00
         11   -1    0    0    0    0  0.00000000000E+00  0.00000000000E+00  0.39999999674E+01  0.40000000000E+01  0.51100000000E-03 0.  1.
    9000002   -1    0    0    0    0 -0.00000000000E+00 -0.00000000000E+00  0.00000000000E+00  0.93800000000E+00  0.93800000000E+00 0.  1.
         11    1    1    2    0    0 -0.11459196597E+00  0.24745191440E+00  0.20980627147E+01  0.21157105625E+01  0.51100000000E-03 0.  1.
    9000002    1    1    2    0    0  0.27898963367E+00 -0.39581055940E+00  0.16160319770E+00  0.10679235966E+01  0.93800000000E+00 0.  1.
         22    1    1    2    0    0 -0.16439766770E+00  0.14835864500E+00  0.17403340550E+01  0.17543658409E+01  0.00000000000E+00 0.  1.
</event>
<event>
 5    1  0.3222854E+002  0.1599676E+01  0.7818608E-02  0.3353715E+00
         11   -1    0    0    0    0  0.00000000000E+00  0.00000000000E+00  0.39999999674E+01  0.40000000000E+01  0.51100000000E-03 0. -1.
    9000002   -1    0    0    0    0 -0.00000000000E+00 -0.00000000000E+00  0.00000000000E+00  0.93800000000E+00  0.93800000000E+00 0.  1.
         11    1    1    2    0    0  0.17421759266E+00  0.61295461252E-01  0.17251460218E+01  0.17350037351E+01  0.51100000000E-03 0. -1.
    9000002    1    1    2    0    0 -0.39477942305E+00 -0.13723523112E+00  0.11810791410E+00  0.10336719890E+01  0.93800000000E+00 0.  1.
         22    1    1    2    0    0  0.22056183038E+00  0.75939769863E-01  0.21567460315E+01  0.21693242759E+01  0.00000000000E+00 0. -1.
</event>
<event>
 5    1  0.3222854E+002  0.1598802E+01  0.7818608E-02  0.3354664E+00
         11   -1    0    0    0    0  0.00000000000E+00  0.00000000000E+00  0.39999999674E+01  0.40000000000E+01  0.51100000000E-03 0.  1.
    9000002   -1    0    0    0    0 -0.00000000000E+00 -0.00000000000E+00  0.00000000000E+00  0.93800000000E+00  0.93800000000E+00 0.  1.
         11    1    1    2    0    0  0.11584703651E-03  0.74597340592E-02  0.33687206640E-01  0.34507246557E-01  0.51100000000E-03 0.  1.
    9000002    1    1    2    0    0  0.26880679668E+00 -0.15691678450E+00  0.65388030491E-01  0.99045422193E+00  0.93800000000E+00 0.  1.
         22    1    1    2    0    0 -0.26892264371E+00  0.14945705044E+00  0.39009247302E+01  0.39130385315E+01  0.00000000000E+00 0.  1.
</event>
<event>
 5    1  0.3222854E+002  0.1599677E+01  0.7818608E-02  0.3353714E+00
         11   -1    0    0    0    0  0.00000000000E+00  0.00000000000E+00  0.39999999674E+01  0.40000000000E+01  0.51100000000E-03 0. -1.
    9000002   -1    0    0    0    0 -0.00000000000E+00 -0.00000000000E+00  0.00000000000E+00  0.93800000000E+00  0.93800000000E+00 0.  1.
         11    1    1    2    0    0  0.26008223117E-01 -0.66570044013E-01  0.70465628685E+00  0.70827165844E+00  0.51100000000E-03 0. -1.
    9000002    1    1    2    0    0 -0.14358888443E+00  0.37047062367E+00  0.10644784008E+00  0.10242272177E+01  0.93800000000E+00 0.  1.
         22    1    1    2    0    0  0.11758066131E+00 -0.30390057965E+00  0.31888958404E+01  0.32055011239E+01  0.00000000000E+00 0. -1.
</event>
<event>
 5    1  0.3222854E+002  0.1599675E+01  0.7818608E-02  0.3353716E+00
         11   -1    0    0    0    0  0.00000000000E+00  0.00000000000E+00  0.39999999674E+01  0.40000000000E+01  0.51100000000E-03 0. -1.
    9000002   -1    0    0    0    0 -0.00000000000E+00 -0.00000000000E+00  0.00000000000E+00  0.93800000000E+00  0.93800000000E+00 0.  1.
         11    1    1    2    0    0 -0.42155492516E-01  0.20081095904E+00  0.11177739639E+01  0.11364510646E+01  0.51100000000E-03 0. -1.
    9000002    1    1    2    0    0  0.13731133612E+00 -0.66504109845E+00  0.32775626797E+00  0.12034958400E+01  0.93800000000E+00 0.  1.
         22    1    1    2    0    0 -0.95155843608E-01  0.46423013941E+00  0.25544697355E+01  0.25980530954E+01  0.00000000000E+00 0. -1.
</event>
<event>
 5    1  0.3222854E+002  0.1599657E+01  0.7818608E-02  0.3353736E+00
         11   -1    0    0    0    0  0.00000000000E+00  0.00000000000E+00  0.39999999674E+01  0.40000000000E+01  0.51100000000E-03 0. -1.
    9000002   -1    0    0    0    0 -0.00000000000E+00 -0.00000000000E+00  0.00000000000E+00  0.93800000000E+00  0.93800000000E+00 0. -1.
         11    1    1    2    0    0 -0.16646146074E+00 -0.61749530590E-01  0.17725467241E+01  0.17814164512E+01  0.51100000000E-03 0. -1.
    9000002    1    1    2    0    0  0.35500290585E+00  0.13275014526E+00  0.96658531623E-01  0.10162856567E+01  0.93800000000E+00 0. -1.
         22    1    1    2    0    0 -0.18854144511E+00 -0.71000614670E-01  0.21307947116E+01  0.21402978921E+01  0.00000000000E+00 0. -1.
</event>
<event>
 5    1  0.3222854E+002  0.1594107E+01  0.7818608E-02  0.3359784E+00
         11   -1    0    0    0    0  0.00000000000E+00  0.00000000000E+00  0.39999999674E+01  0.40000000000E+01  0.51100000000E-03 0.  1.
    9000002   -1    0    0    0    0 -0.00000000000E+00 -0.00000000000E+00  0.00000000000E+00  0.93800000000E+00  0.93800000000E+00 0.  1.
         11    1    1    2    0    0  0.59138491957E+00 -0.23837587593E+00  0.25118484749E+01  0.25915134966E+01  0.51100000000E-03 0.  1.
    9000002    1    1    2    0    0 -0.86970069125E+00  0.36223254247E+00  0.70207038471E+00  0.15034422278E+01  0.93800000000E+00 0.  1.
         22    1    1    2    0    0  0.27831577169E+00 -0.12385666654E+00  0.78608110780E+00  0.84304427562E+00  0.00000000000E+00 0.  1.
</event>
<event>
 5    1  0.3222854E+002  0.1592619E+01  0.7818608E-02  0.3361413E+00
         11   -1    0    0    0    0  0.00000000000E+00  0.00000000000E+00  0.39999999674E+01  0.40000000000E+01  0.51100000000E-03 0. -1.
    9000002   -1    0    0    0    0 -0.00000000000E+00 -0.00000000000E+00  0.00000000000E+00  0.93800000000E+00  0.93800000000E+00 0. -1.
         11    1    1    2    0    0 -0.18373508077E+00  0.18561393702E+00  0.18865896732E+01  0.19045818359E+01  0.51100000000E-03 0. -1.
    9000002    1    1    2    0    0  0.54605109340E+00 -0.28429119956E+00  0.27249667300E+00  0.11545959118E+01  0.93800000000E+00 0. -1.
         22    1    1    2    0    0 -0.36231601263E+00  0.98677262546E-01  0.18409136212E+01  0.18788222523E+01  0.00000000000E+00 0. -1.
</event>
<event>
 5    1  0.3222854E+002  0.1599558E+01  0.7818608E-02  0.3353843E+00
         11   -1    0    0    0    0  0.00000000000E+00  0.00000000000E+00  0.39999999674E+01  0.40000000000E+01  0.51100000000E-03 0. -1.
    9000002   -1    0    0    0    0 -0.00000000000E+00 -0.00000000000E+00  0.00000000000E+00  0.93800000000E+00  0.93800000000E+00 0. -1.
         11    1    1    2    0    0 -0.84267604231E-01  0.36915581735E-01  0.97134798496E+00  0.97569511544E+00  0.51100000000E-03 0. -1.
    9000002    1    1    2    0    0  0.29477282886E+00 -0.14939777015E+00  0.73168833924E-01  0.99720027709E+00  0.93800000000E+00 0. -1.
         22    1    1    2    0    0 -0.21050522463E+00  0.11248218841E+00  0.29554831485E+01  0.29651046075E+01  0.00000000000E+00 0. -1.
</event>
<event>
 5    1  0.3222854E+002  0.1599677E+01  0.7818608E-02  0.3353714E+00
         11   -1    0    0    0    0  0.00000000000E+00  0.00000000000E+00  0.39999999674E+01  0.40000000000E+01  0.51100000000E-03 0. -1.
    9000002   -1    0    0    0    0 -0.00000000000E+00 -0.00000000000E+00  0.00000000000E+00  0.93800000000E+00  0.93800000000E+00 0.  1.
         11    1    1    2    0    0  0.83154096811E-01 -0.91196200334E-01  0.85767300967E+00  0.86650712831E+00  0.51100000000E-03 0. -1.
    9000002    1    1    2    0    0 -0.36824119779E+00  0.40243167698E+00  0.20534496042E+00  0.11043384387E+01  0.93800000000E+00 0.  1.
         22    1    1    2    0    0  0.28508710097E+00 -0.31123547664E+00  0.29369819973E+01  0.29671544330E+01  0.00000000000E+00 0. -1.
</event>
<event>
 5    1  0.3222854E+002  0.1592681E+01  0.7818608E-02  0.3361346E+00
         11   -1    0    0    0    0  0.00000000000E+00  0.00000000000E+00  0.39999999674E+01  0.40000000000E+01  0.51100000000E-03 0. -1.
    9000002   -1    0    0    0    0 -0.00000000000E+00 -0.00000000000E+00  0.00000000000E+00  0.93800000000E+00  0.93800000000E+00 0.  1.
         11    1    1    2    0    0  0.47363124956E-01 -0.29997766592E-02  0.12199031005E+01  0.12208259909E+01  0.51100000000E-03 0. -1.
    9000002    1    1    2    0    0  0.84729626006E-01 -0.17549517671E+00  0.30386359134E-01  0.95851186607E+00  0.93800000000E+00 0.  1.
         22    1    1    2    0    0 -0.13209275096E+00  0.17849495337E+00  0.27497105077E+01  0.27586621431E+01  0.00000000000E+00 0. -1.
</event>
<event>
 5    1  0.3222854E+002  0.1594062E+01  0.7818608E-02  0.3359834E+00
         11   -1    0    0    0    0  0.00000000000E+00  0.00000000000E+00  0.39999999674E+01  0.40000000000E+01  0.51100000000E-03 0. -1.
    9000002   -1    0    0    0    0 -0.00000000000E+00 -0.00000000000E+00  0.00000000000E+00  0.93800000000E+00  0.93800000000E+00 0. -1.
         11    1    1    2    0    0 -0.78127640516E-01  0.47886058616E-01  0.18801605520E+01  0.18823923516E+01  0.51100000000E-03 0. -1.
    9000002    1    1    2    0    0  0.34325013810E+00 -0.46726534354E-01  0.84957339680E-01  0.10035266692E+01  0.93800000000E+00 0. -1.
         22    1    1    2    0    0 -0.26512249759E+00 -0.11595242623E-02  0.20348820756E+01  0.20520809792E+01  0.00000000000E+00 0. -1.
</event>
<event>
 5    1  0.3222854E+002  0.1587509E+01  0.7818608E-02  0.3367033E+00
         11   -1    0    0    0    0  0.00000000000E+00  0.00000000000E+00  0.39999999674E+01  0.40000000000E+01  0.51100000000E-03 0.  1.
    9000002   -1    0    0    0    0 -0.00000000000E+00 -0.00000000000E+00  0.00000000000E+00  0.93800000000E+00  0.93800000000E+00 0.  1.
         11    1    1    2    0    0  0.28053185057E-02  0.79984329548E-01  0.98320218878E+00  0.98645434154E+00  0.51100000000E-03 0.  1.
    9000002    1    1    2    0    0  0.17203939423E+00  0.10179655240E+00  0.35628283914E-01  0.95972572429E+00  0.93800000000E+00 0.  1.
         22    1    1    2    0    0 -0.17484471274E+00 -0.18178088195E+00  0.29811694947E+01  0.29918199342E+01  0.00000000000E+00 0.  1.
</event>
<event>
 5    1  0.3222854E+002  0.1599444E+01  0.7818608E-02  0.3353967E+00
         11   -1    0    0    0    0  0.00000000000E+00  0.00000000000E+00  0.39999999674E+01  0.40000000000E+01  0.51100000000E-03 0.  1.
    9000002   -1    0    0    0    0 -0.00000000000E+00 -0.00000000000E+00  0.00000000000E+00  0.93800000000E+00  0.93800000000E+00 0. -1.
         11    1    1    2    0    0  0.20535513446E-01 -0.54571342251E-01  0.81902446381E+00  0.82109748030E+00  0.51100000000E-03 0.  1.
    9000002    1    1    2    0    0 -0.70278168621E-01  0.32739803288E+00  0.75246735418E-01  0.99881658182E+00  0.93800000000E+00 0. -1.
         22    1    1    2    0    0  0.49742655175E-01 -0.27282669063E+00  0.31057287681E+01  0.31180859379E+01  0.00000000000E+00 0.  1.
</event>
<event>
 5    1  0.3222854E+002  0.1599409E+01  0.7818608E-02  0.3354006E+00
         11   -1    0    0    0    0  0.00000000000E+00  0.00000000000E+00  0.39999999674E+01  0.40000000000E+01  0.51100000000E-03 0. -1.
    9000002   -1    0    0    0    0 -0.00000000000E+00 -0.00000000000E+00  0.00000000000E+00  0.93800000000E+00  0.93800000000E+00 0. -1.
         11    1    1    2    0    0 -0.59910608711E-01 -0.59728635412E-01  0.83539788086E+00  0.83967057313E+00  0.51100000000E-03 0. -1.
    9000002    1    1    2    0    0  0.34128913058E+00  0.23601869812E+00  0.11659464186E+00  0.10322894008E+01  0.93800000000E+00 0. -1.
         22    1    1    2    0    0 -0.28137852187E+00 -0.17629006271E+00  0.30480074446E+01  0.30660400261E+01  0.00000000000E+00 0. -1.
</event>
<event>
 5    1  0.3222854E+002  0.1599608E+01  0.7818608E-02  0.3353789E+00
         11   -1    0    0    0    0  0.00000000000E+00  0.00000000000E+00  0.39999999674E+01  0.40000000000E+01  0.51100000000E-03 0.  1.
    9000002   -1    0    0    0    0 -0.00000000000E+00 -0.00000000000E+00  0.00000000000E+00  0.93800000000E+00  0.93800000000E+00 0. -1.
         11    1    1    2    0    0  0.25386998816E-02  0.85968694343E-01  0.90868935223E+00  0.91275060197E+00  0.51100000000E-03 0.  1.
    9000002    1    1    2    0    0  0.24631748192E-01 -0.36243579683E+00  0.88673374967E-01  0.10097887884E+01  0.93800000000E+00 0. -1.
         22    1    1    2    0    0 -0.27170448074E-01  0.27646710248E+00  0.30026372402E+01  0.30154606096E+01  0.00000000000E+00 0.  1.
</event>
<event>
 5    1  0.3222854E+002  0.1597543E+01  0.7818608E-02  0.3356034E+00
         11   -1    0    0    0    0  0.00000000000E+00  0.00000000000E+00  0.39999999674E+01  0.40000000000E+01  0.51100000000E-03 0. -1.
    9000002   -1    0    0    0    0 -0.00000000000E+00 -0.00000000000E+00  0.00000000000E+00  0.93800000000E+00  0.93800000000E+00 0.  1.
         11    1    1    2    0    0  0.54271058490E-02  0.16335984646E-02  0.60576052659E+00  0.60578725541E+00  0.51100000000E-03 0. -1.
    9000002    1    1    2    0    0 -0.10128227985E+00 -0.26343412767E+00  0.54711278932E-01  0.98106725757E+00  0.93800000000E+00 0.  1.
         22    1    1    2    0    0  0.95855173999E-01  0.26180052920E+00  0.33395281618E+01  0.33511454870E+01  0.00000000000E+00 0. -1.
</event>
<event>
 5    1  0.3222854E+002  0.1599663E+01  0.7818608E-02  0.3353729E+00
         11   -1    0    0    0    0  0.00000000000E+00  0.00000000000E+00  0.39999999674E+01  0.40000000000E+01  0.51100000000E-03 0.  1.
    9000002   -1    0    0    0    0 -0.00000000000E+00 -0.00000000000E+00  0.00000000000E+00  0.93800000000E+00  0.93800000000E+00 0.  1.
         11    1    1    2    0    0 -0.15322793734E-01 -0.17315345237E-01  0.19465297973E+00  0.19602207229E+00  0.51100000000E-03 0.  1.
    9000002    1    1    2    0    0  0.33249729162E+00  0.36395565868E+00  0.16617768738E+00  0.10726029993E+01  0.93800000000E+00 0.  1.
         22    1    1    2    0    0 -0.31717449788E+00 -0.34664031344E+00  0.36391693002E+01  0.36693749284E+01  0.00000000000E+00 0.  1.
</event>
<event>
 5    1  0.3222854E+002  0.1599545E+01  0.7818608E-02  0.3353857E+00
         11   -1    0    0    0    0  0.00000000000E+00  0.00000000000E+00  0.39999999674E+01  0.40000000000E+01  0.51100000000E-03 0. -1.
    9000002   -1    0    0    0    0 -0.00000000000E+00 -0.00000000000E+00  0.00000000000E+00  0.93800000000E+00  0.93800000000E+00 0.  1.
         11    1    1    2    0    0 -0.52017153054E-01 -0.13751252555E+00  0.98640390986E+00  0.99730056322E+00  0.51100000000E-03 0. -1.
    9000002    1    1    2    0    0  0.21167248810E+00  0.48501629933E+00  0.19280628917E+00  0.10941043451E+01  0.93800000000E+00 0.  1.
         22    1    1    2    0    0 -0.15965533505E+00 -0.34750377378E+00  0.28207897683E+01  0.28465950917E+01  0.00000000000E+00 0. -1.
</event>
<event>
 5    1  0.3222854E+002  0.1596199E+01  0.7818608E-02  0.3357499E+00
         11   -1    0    0    0    0  0.00000000000E+00  0.00000000000E+00  0.39999999674E+01  0.40000000000E+01  0.51100000000E-03 0. -1.
    9000002   -1    0    0    0    0 -0.00000000000E+00 -0.00000000000E+00  0.00000000000E+00  0.93800000000E+00  0.93800000000E+00 0. -1.
         11    1    1    2    0    0 -0.70415541466E-01 -0.13245021829E+00  0.23296927262E+01  0.23345170525E+01  0.51100000000E-03 0. -1.
    9000002    1    1    2    0    0  0.22979443917E+00  0.26006142874E+00  0.83528528961E-01  0.10036226612E+01  0.93800000000E+00 0. -1.
         22    1    1    2    0    0 -0.15937889771E+00 -0.12761121045E+00  0.15867787122E+01  0.15998602863E+01  0.00000000000E+00 0. -1.
</event>
<event>
 5    1  0.3222854E+002  0.1599674E+01  0.7818608E-02  0.3353717E+00
         11   -1    0    0    0    0  0.00000000000E+00  0.00000000000E+00  0.39999999674E+01  0.40000000000E+01  0.51100000000E-03 0. -1.
    9000002   -1    0    0    0    0 -0.00000000000E+00 -0.00000000000E+00  0.00000000000E+00  0.93800000000E+00  0.93800000000E+00 0.  1.
         11    1    1    2    0    0  0.15850588878E-02  0.64805983197E-02  0.12114681213E+00  0.12133145420E+00  0.51100000000E-03 0. -1.
    9000002    1    1    2    0    0 -0.58799037823E-01 -0.22843240302E+00  0.36923815074E-01  0.96790808330E+00  0.93800000000E+00 0.  1.
         22    1    1    2    0    0  0.57213978935E-01  0.22195180470E+00  0.38419293402E+01  0.38487604625E+01  0.00000000000E+00 0. -1.
</event>
<event>
 5    1  0.3222854E+002  0.1598897E+01  0.7818608E-02  0.3354561E+00
         11   -1    0    0    0    0  0.00000000000E+00  0.00000000000E+00  0.39999999674E+01  0.40000000000E+01  0.51100000000E-03 0.  1.
    9000002   -1    0    0    0    0 -0.00000000000E+00 -0.00000000000E+00  0.00000000000E+00  0.93800000000E+00  0.93800000000E+00 0. -1.
         11    1    1    2    0    0  0.77660155239E-01 -0.69180325330E-01  0.11391060730E+01  0.11438443617E+01  0.51100000000E-03 0.  1.
    9000002    1    1    2    0    0 -0.29087000885E+00  0.13599607534E+00  0.69537460903E-01  0.99387109477E+00  0.93800000000E+00 0. -1.
         22    1    1    2    0    0  0.21320985361E+00 -0.66815750007E-01  0.27913564335E+01  0.28002845436E+01  0.00000000000E+00 0.  1.
</event>
<event>
 5    1  0.3222854E+002  0.1495491E+01  0.7818608E-02  0.3475239E+00
         11   -1    0    0    0    0  0.00000000000E+00  0.00000000000E+00  0.39999999674E+01  0.40000000000E+01  0.51100000000E-03 0. -1.
    9000002   -1    0    0    0    0 -0.00000000000E+00 -0.00000000000E+00  0.00000000000E+00  0.93800000000E+00  0.93800000000E+00 0. -1.
         11    1    1    2    0    0 -0.31839194968E+00 -0.99419391194E-01  0.17398318802E+01  0.17715171129E+01  0.51100000000E-03 0. -1.
    9000002    1    1    2    0    0 -0.12460830932E+00  0.71836435864E-02  0.91014778455E-01  0.95063480127E+00  0.93800000000E+00 0. -1.
         22    1    1    2    0    0  0.44300025901E+00  0.92235747607E-01  0.21691533087E+01  0.22158480858E+01  0.00000000000E+00 0. -1.
</event>
<event>
 5    1  0.3222854E+002  0.1599677E+01  0.7818608E-02  0.3353714E+00
         11   -1    0    0    0    0  0.00000000000E+00  0.00000000000E+00  0.39999999674E+01  0.40000000000E+01  0.51100000000E-03 0. -1.
    9000002   -1    0    0    0    0 -0.00000000000E+00 -0.00000000000E+00  0.00000000000E+00  0.93800000000E+00  0.93800000000E+00 0. -1.
         11    1    1    2    0    0  0.42625815895E+00 -0.19361850396E+00  0.24657563684E+01  0.25098085330E+01  0.51100000000E-03 0. -1.
    9000002    1    1    2    0    0 -0.63230396647E+00  0.28715918049E+00  0.34415479511E+00  0.12167806803E+01  0.93800000000E+00 0. -1.
         22    1    1    2    0    0  0.20604580752E+00 -0.93540676524E-01  0.11900888039E+01  0.12114107867E+01  0.00000000000E+00 0.  1.
</event>
<event>
 5    1  0.3222854E+002  0.1599451E+01  0.7818608E-02  0.3353959E+00
         11   -1    0    0    0    0  0.00000000000E+00  0.00000000000E+00  0.39999999674E+01  0.40000000000E+01  0.51100000000E-03 0. -1.
    9000002   -1    0    0    0    0 -0.00000000000E+00 -0.00000000000E+00  0.00000000000E+00  0.93800000000E+00  0.93800000000E+00 0. -1.
         11    1    1    2    0    0  0.11658853933E+00 -0.18720886433E+00  0.18604253128E+01  0.18734520682E+01  0.51100000000E-03 0. -1.
    9000002    1    1    2    0    0 -0.20559877629E+00  0.38256804975E+00  0.12801694627E+00  0.10415668524E+01  0.93800000000E+00 0. -1.
         22    1    1    2    0    0  0.89010236959E-01 -0.19535918543E+00  0.20115577083E+01  0.20229810794E+01  0.00000000000E+00 0. -1.
</event>
<event>
 5    1  0.3222854E+002  0.1599280E+01  0.7818608E-02  0.3354145E+00
         11   -1    0    0    0    0  0.00000000000E+00  0.00000000000E+00  0.39999999674E+01  0.40000000000E+01  0.51100000000E-03 0.  1.
    9000002   -1    0    0    0    0 -0.00000000000E+00 -0.00000000000E+00  0.00000000000E+00  0.93800000000E+00  0.93800000000E+00 0. -1.
         11    1    1    2    0    0  0.39114535979E-01  0.38605293682E-01  0.53536654394E+00  0.53818018648E+00  0.51100000000E-03 0.  1.
    9000002    1    1    2    0    0 -0.20118055088E+00 -0.20006510838E+00  0.53931272676E-01  0.98145414759E+00  0.93800000000E+00 0. -1.
         22    1    1    2    0    0  0.16206601490E+00  0.16145981470E+00  0.34107021507E+01  0.34183656659E+01  0.00000000000E+00 0.  1.
</event>
<event>
 5    1  0.3222854E+002  0.1599661E+01  0.7818608E-02  0.3353731E+00
         11   -1    0    0    0    0  0.00000000000E+00  0.00000000000E+00  0.39999999674E+01  0.40000000000E+01  0.51100000000E-03 0.  1.
    9000002   -1    0    0    0    0 -0.00000000000E+00 -0.00000000000E+00  0.00000000000E+00  0.93800000000E+00  0.93800000000E+00 0.  1.
         11    1    1    2    0    0 -0.61537881637E-02  0.33439825927E-01  0.38244978048E+00  0.38395857430E+00  0.51100000000E-03 0.  1.
    9000002    1    1    2    0    0  0.38247752646E-01 -0.32834066262E+00  0.73127706979E-01  0.99722722728E+00  0.93800000000E+00 0.  1.
         22    1    1    2    0    0 -0.32093964482E-01  0.29490083669E+00  0.35444224799E+01  0.35568141984E+01  0.00000000000E+00 0.  1.
</event>
<event>
 5    1  0.3222854E+002  0.1525123E+01  0.7818608E-02  0.3438870E+00
         11   -1    0    0    0    0  0.00000000000E+00  0.00000000000E+00  0.39999999674E+01  0.40000000000E+01  0.51100000000E-03 0.  1.
    9000002   -1    0    0    0    0 -0.00000000000E+00 -0.00000000000E+00  0.00000000000E+00  0.93800000000E+00  0.93800000000E+00 0.  1.
         11    1    1    2    0    0 -0.37804310752E+00  0.32739650148E+00  0.26753319043E+01  0.27216734043E+01  0.51100000000E-03 0.  1.
    9000002    1    1    2    0    0  0.20551974793E+00 -0.19748789134E+00  0.11446939882E+00  0.98700915765E+00  0.93800000000E+00 0.  1.
         22    1    1    2    0    0  0.17252335959E+00 -0.12990861014E+00  0.12101986643E+01  0.12293174381E+01  0.00000000000E+00 0.  1.
</event>
<event>
 5    1  0.3222854E+002  0.1581215E+01  0.7818608E-02  0.3374007E+00
         11   -1    0    0    0    0  0.00000000000E+00  0.00000000000E+00  0.39999999674E+01  0.40000000000E+01  0.51100000000E-03 0.  1.
    9000002   -1    0    0    0    0 -0.00000000000E+00 -0.00000000000E+00  0.00000000000E+00  0.93800000000E+00  0.93800000000E+00 0. -1.
         11    1    1    2    0    0 -0.14299703144E-01 -0.86992256450E-01  0.43907661355E+00  0.44784000255E+00  0.51100000000E-03 0.  1.
    9000002    1    1    2    0    0 -0.12740688004E+00 -0.10673584791E+00  0.32068139946E-01  0.95315131008E+00  0.93800000000E+00 0. -1.
         22    1    1    2    0    0  0.14170658318E+00  0.19372810436E+00  0.35288552139E+01  0.35370086874E+01  0.00000000000E+00 0.  1.
</event>
<event>
 5    1  0.3222854E+002  0.1598541E+01  0.7818608E-02  0.3354949E+00
         11   -1    0    0    0    0  0.00000000000E+00  0.00000000000E+00  0.39999999674E+01  0.40000000000E+01  0.51100000000E-03 0. -1.
    9000002   -1    0    0    0    0 -0.00000000000E+00 -0.00000000000E+00  0.00000000000E+00  0.93800000000E+00  0.93800000000E+00 0. -1.
         11    1    1    2    0    0 -0.62808420243E-01 -0.48308998854E-01  0.60519843003E+00  0.61036387332E+00  0.51100000000E-03 0. -1.
    9000002    1    1    2    0    0  0.31827321129E+00  0.47209733835E+00  0.22584515410E+00  0.11202784330E+01  0.93800000000E+00 0. -1.
         22    1    1    2    0    0 -0.25546479104E+00 -0.42378833950E+00  0.31689563832E+01  0.32073576936E+01  0.00000000000E+00 0. -1.
</event>
<event>
 5    1  0.3222854E+002  0.1599312E+01  0.7818608E-02  0.3354110E+00
         11   -1    0    0    0    0  0.00000000000E+00  0.00000000000E+00  0.39999999674E+01  0.40000000000E+01  0.51100000000E-03 0.  1.
    9000002   -1    0    0    0    0 -0.00000000000E+00 -0.00000000000E+00  0.00000000000E+00  0.93800000000E+00  0.93800000000E+00 0.  1.
         11    1    1    2    0    0 -0.45334953873E-02  0.43887881455E-02  0.14907881730E-01  0.16196298975E-01  0.51100000000E-03 0.  1.
    9000002    1    1    2    0    0  0.38969686750E+00 -0.74971694856E+00  0.53493805592E+00  0.13711097240E+01  0.93800000000E+00 0.  1.
         22    1    1    2    0    0 -0.38516337211E+00  0.74532816042E+00  0.34501540297E+01  0.35506939771E+01  0.00000000000E+00 0.  1.
</event>
<event>
 5    1  0.3222854E+002  0.1503741E+01  0.7818608E-02  0.3464958E+00
         11   -1    0    0    0    0  0.00000000000E+00  0.00000000000E+00  0.39999999674E+01  0.40000000000E+01  0.51100000000E-03 0.  1.
    9000002   -1    0    0    0    0 -0.00000000000E+00 -0.00000000000E+00  0.00000000000E+00  0.93800000000E+00  0.93800000000E+00 0. -1.
         11    1    1    2    0    0  0.84439019954E-01  0.18292594809E+00  0.35364146146E+01  0.35421491270E+01  0.51100000000E-03 0.  1.
    9000002    1    1    2    0    0 -0.15702731889E+00  0.40434247143E-01  0.92108256672E-01  0.95635790276E+00  0.93800000000E+00 0. -1.
         22    1    1    2    0    0  0.72588298938E-01 -0.22336019523E+00  0.37147709609E+00  0.43949297022E+00  0.00000000000E+00 0. -1.
</event>
<event>
 5    1  0.3222854E+002  0.1599669E+01  0.7818608E-02  0.3353723E+00
         11   -1    0    0    0    0  0.00000000000E+00  0.00000000000E+00  0.39999999674E+01  0.40000000000E+01  0.51100000000E-03 0. -1.
    9000002   -1    0    0    0    0 -0.00000000000E+00 -0.00000000000E+00  0.00000000000E+00  0.93800000000E+00  0.93800000000E+00 0.  1.
         11    1    1    2    0    0  0.12860336683E+00  0.18947021043E+00  0.20381191929E+01  0.20509431714E+01  0.51100000000E-03 0. -1.
    9000002    1    1    2    0    0 -0.24115579540E+00 -0.36567689656E+00  0.13010008954E+00  0.10433818781E+01  0.93800000000E+00 0.  1.
         22    1    1    2    0    0  0.11255242858E+00  0.17620668613E+00  0.18317806849E+01  0.18436749505E+01  0.00000000000E+00 0. -1.
</event>
<event>
 5    1  0.3222854E+002  0.1599664E+01  0.7818608E-02  0.3353728E+00
         11   -1    0    0    0    0  0.00000000000E+00  0.00000000000E+00  0.39999999674E+01  0.40000000000E+01  0.51100000000E-03 0.  1.
    9000002   -1    0    0    0    0 -0.00000000000E+00 -0.00000000000E+00  0.00000000000E+00  0.93800000000E+00  0.93800000000E+00 0. -1.
         11    1    1    2    0    0  0.78348245910E-02  0.65425623554E-01  0.70554245450E+00  0.70861295000E+00  0.51100000000E-03 0.  1.
    9000002    1    1    2    0    0 -0.24904460855E-01 -0.36119736598E+00  0.88022986881E-01  0.10092947120E+01  0.93800000000E+00 0. -1.
         22    1    1    2    0    0  0.17069636264E-01  0.29577174243E+00  0.32064345260E+01  0.32200923380E+01  0.00000000000E+00 0.  1.
</event>
<event>
 5    1  0.3222854E+002  0.1599674E+01  0.7818608E-02  0.3353717E+00
         11   -1    0    0    0    0  0.00000000000E+00  0.00000000000E+00  0.39999999674E+01  0.40000000000E+01  0.51100000000E-03 0.  1.
    9000002   -1    0    0    0    0 -0.00000000000E+00 -0.00000000000E+00  0.00000000000E+00  0.93800000000E+00  0.93800000000E+00 0.  1.
         11    1    1    2    0    0 -0.24715461273E-01  0.10077721459E+00  0.10951764892E+01  0.11000812264E+01  0.51100000000E-03 0.  1.
    9000002    1    1    2    0    0  0.90532465576E-01 -0.36508934907E+00  0.95155755308E-01  0.10150788038E+01  0.93800000000E+00 0.  1.
         22    1    1    2    0    0 -0.65817004303E-01  0.26431213448E+00  0.28096677228E+01  0.28228399698E+01  0.00000000000E+00 0.  1.
</event>
<event>
 5    1  0.3222854E+002  0.1551904E+01  0.7818608E-02  0.3407278E+00
         11   -1    0    0    0    0  0.00000000000E+00  0.00000000000E+00  0.39999999674E+01  0.40000000000E+01  0.51100000000E-03 0. -1.
    9000002   -1    0    0    0    0 -0.00000000000E+00 -0.00000000000E+00  0.00000000000E+00  0.93800000000E+00  0.93800000000E+00 0.  1.
         11    1    1    2    0    0 -0.24104989501E+00 -0.17038657513E+00  0.21058710983E+01  0.21264594943E+01  0.51100000000E-03 0. -1.
    9000002    1    1    2    0    0  0.44758434830E-02  0.50043456808E+00  0.21586636426E+00  0.10848488730E+01  0.93800000000E+00 0.  1.
         22    1    1    2    0    0  0.23657405153E+00 -0.33004799295E+00  0.16782625048E+01  0.17266916327E+01  0.00000000000E+00 0. -1.
</event>
<event>
 5    1  0.3222854E+002  0.1599677E+01  0.7818608E-02  0.3353714E+00
         11   -1    0    0    0    0  0.00000000000E+00  0.00000000000E+00  0.39999999674E+01  0.40000000000E+01  0.51100000000E-03 0.  1.
    9000002   -1    0    0    0    0 -0.00000000000E+00 -0.00000000000E+00  0.00000000000E+00  0.93800000000E+00  0.93800000000E+00 0. -1.
         11    1    1    2    0    0  0.38822716235E-01 -0.87480377850E-01  0.12026127958E+01  0.12064152757E+01  0.51100000000E-03 0.  1.
    9000002    1    1    2    0    0 -0.12783293255E+00  0.28685797289E+00  0.65884836544E-01  0.99136954106E+00  0.93800000000E+00 0. -1.
         22    1    1    2    0    0  0.89010216319E-01 -0.19937759504E+00  0.27315023350E+01  0.27402151832E+01  0.00000000000E+00 0.  1.
</event>
<event>
 5    1  0.3222854E+002  0.1597859E+01  0.7818608E-02  0.3355690E+00
         11   -1    0    0    0    0  0.00000000000E+00  0.00000000000E+00  0.39999999674E+01  0.40000000000E+01  0.51100000000E-03 0. -1.
    9000002   -1    0    0    0    0 -0.00000000000E+00 -0.00000000000E+00  0.00000000000E+00  0.93800000000E+00  0.93800000000E+00 0.  1.
         11    1    1    2    0    0  0.11921126602E-01 -0.40888745644E-02  0.39522345543E+00  0.39542467424E+00  0.51100000000E-03 0. -1.
    9000002    1    1    2    0    0  0.13860893432E+00  0.20933279190E+00  0.43266484614E-01  0.97198181214E+00  0.93800000000E+00 0.  1.
         22    1    1    2    0    0 -0.15053006092E+00 -0.20524391733E+00  0.35615100273E+01  0.35705935136E+01  0.00000000000E+00 0. -1.
</event>
<event>
 5    1  0.3222854E+002  0.1599673E+01  0.7818608E-02  0.3353718E+00
         11   -1    0    0    0    0  0.00000000000E+00  0.00000000000E+00  0.39999999674E+01  0.40000000000E+01  0.51100000000E-03 0. -1.
    9000002   -1    0    0    0    0 -0.00000000000E+00 -0.00000000000E+00  0.00000000000E+00  0.93800000000E+00  0.93800000000E+00 0. -1.
         11    1    1    2    0    0  0.58427354864E-02 -0.23991006213E-02  0.68951191679E-01  0.69241759053E-01  0.51100000000E-03 0.  1.
    9000002    1    1    2    0    0 -0.35296156987E+00  0.13185796014E+00  0.95488354512E-01  0.10153474367E+01  0.93800000000E+00 0. -1.
         22    1    1    2    0    0  0.34711883439E+00 -0.12945885952E+00  0.38355604212E+01  0.38534108042E+01  0.00000000000E+00 0. -1.
</event>
<event>
 5    1  0.3222854E+002  0.1599413E+01  0.7818608E-02  0.3354001E+00
         11   -1    0    0    0    0  0.00000000000E+00  0.00000000000E+00  0.39999999674E+01  0.40000000000E+01  0.51100000000E-03 0.  1.
    9000002   -1    0    0    0    0 -0.00000000000E+00 -0.00000000000E+00  0.00000000000E+00  0.93800000000E+00  0.93800000000E+00 0.  1.
         11    1    1    2    0    0  0.49915850714E-01  0.16607934646E-01  0.32507320162E+00  0.32930269233E+00  0.51100000000E-03 0.  1.
    9000002    1    1    2    0    0 -0.59507083669E+00 -0.66207144420E-01  0.25031494001E+00  0.11406113518E+01  0.93800000000E+00 0.  1.
         22    1    1    2    0    0  0.54515498598E+00  0.49599209774E-01  0.34246118257E+01  0.34680859559E+01  0.00000000000E+00 0.  1.
</event>
<event>
 5    1  0.3222854E+002  0.1561768E+01  0.7818608E-02  0.3395934E+00
         11   -1    0    0    0    0  0.00000000000E+00  0.00000000000E+00  0.39999999674E+01  0.40000000000E+01  0.51100000000E-03 0.  1.
    9000002   -1    0    0    0    0 -0.00000000000E+00 -0.00000000000E+00  0.00000000000E+00  0.93800000000E+00  0.93800000000E+00 0.  1.
         11    1    1    2    0    0  0.39295502840E-01  0.16183841191E+00  0.30545404686E+01  0.30590772373E+01  0.51100000000E-03 0.  1.
    9000002    1    1    2    0    0 -0.98144030985E-01 -0.43885128751E+00  0.17084062680E+00  0.10541599609E+01  0.93800000000E+00 0.  1.
         22    1    1    2    0    0  0.58848528146E-01  0.27701287560E+00  0.77461887197E+00  0.82476280185E+00  0.00000000000E+00 0. -1.
</event>
<event>
 5    1  0.3222854E+002  0.1599347E+01  0.7818608E-02  0.3354072E+00
         11   -1    0    0    0    0  0.00000000000E+00  0.00000000000E+00  0.39999999674E+01  0.40000000000E+01  0.51100000000E-03 0. -1.
    9000002   -1    0    0    0    0 -0.00000000000E+00 -0.00000000000E+00  0.00000000000E+00  0.93800000000E+00  0.93800000000E+00 0. -1.
         11    1    1    2    0    0 -0.21445883674E-01  0.25215599296E-01  0.73522533612E+00  0.73597031759E+00  0.51100000000E-03 0. -1.
    9000002    1    1    2    0    0  0.13057433525E+00 -0.22590115036E+00  0.45517510694E-01  0.97467780858E+00  0.93800000000E+00 0. -1.
         22    1    1    2    0    0 -0.10912845158E+00  0.20068555106E+00  0.32192571205E+01  0.32273518738E+01  0.00000000000E+00 0. -1.
</event>
<event>
 5    1  0.3222854E+002  0.1599676E+01  0.7818608E-02  0.3353715E+00
         11   -1    0    0    0    0  0.00000000000E+00  0.00000000000E+00  0.39999999674E+01  0.40000000000E+01  0.51100000000E-03 0.  1.
    9000002   -1    0    0    0    0 -0.00000000000E+00 -0.00000000000E+00  0.00000000000E+00  0.93800000000E+00  0.93800000000E+00 0.  1.
         11    1    1    2    0    0  0.14298512001E+00 -0.28187205558E+00  0.23241381188E+01  0.23455308262E+01  0.51100000000E-03 0.  1.
    9000002    1    1    2    0    0 -0.23565916788E+00  0.46401545484E+00  0.18606327267E+00  0.10887190304E+01  0.93800000000E+00 0.  1.
         22    1    1    2    0    0  0.92674047868E-01 -0.18214339926E+00  0.14897985759E+01  0.15037501434E+01  0.00000000000E+00 0.  1.
</event>
<event>
 5    1  0.3222854E+002  0.1595983E+01  0.7818608E-02  0.3357735E+00
         11   -1    0    0    0    0  0.00000000000E+00  0.00000000000E+00  0.39999999674E+01  0.40000000000E+01  0.51100000000E-03 0.  1.
    9000002   -1    0    0    0    0 -0.00000000000E+00 -0.00000000000E+00  0.00000000000E+00  0.93800000000E+00  0.93800000000E+00 0.  1.
         11    1    1    2    0    0  0.16925478925E+00  0.24770271376E+00  0.20219309051E+01  0.20440666976E+01  0.51100000000E-03 0.  1.
    9000002    1    1    2    0    0 -0.18308316205E+00 -0.48866005248E+00  0.19051560761E+00  0.10901597534E+01  0.93800000000E+00 0.  1.
         22    1    1    2    0    0  0.13828372803E-01  0.24095733872E+00  0.17875534546E+01  0.18037735490E+01  0.00000000000E+00 0.  1.
</event>
<event>
 5    1  0.3222854E+002  0.1599675E+01  0.7818608E-02  0.3353716E+00
         11   -1    0    0    0    0  0.00000000000E+00  0.00000000000E+00  0.39999999674E+01  0.40000000000E+01  0.51100000000E-03 0. -1.
    9000002   -1    0    0    0    0 -0.00000000000E+00 -0.00000000000E+00  0.00000000000E+00  0.93800000000E+00  0.93800000000E+00 0. -1.
         11    1    1    2    0    0 -0.15003448226E-01  0.12722255643E-01  0.35739286080E+00  0.35793418015E+00  0.51100000000E-03 0.  1.
    9000002    1    1    2    0    0  0.16780637327E+00 -0.15077195357E+00  0.33748098910E-01  0.96533626011E+00  0.93800000000E+00 0. -1.
         22    1    1    2    0    0 -0.15280292504E+00  0.13804969793E+00  0.36088590076E+01  0.36147295597E+01  0.00000000000E+00 0. -1.
</event>
<event>
 5    1  0.3222854E+002  0.1579132E+01  0.7818608E-02  0.3376329E+00
         11   -1    0    0    0    0  0.00000000000E+00  0.00000000000E+00  0.39999999674E+01  0.40000000000E+01  0.51100000000E-03 0. -1.
    9000002   -1    0    0    0    0 -0.00000000000E+00 -0.00000000000E+00  0.00000000000E+00  0.93800000000E+00  0.93800000000E+00 0. -1.
         11    1    1    2    0    0 -0.87200210168E-01  0.37105762945E-01  0.10235904995E+01  0.10279681348E+01  0.51100000000E-03 0. -1.
    9000002    1    1    2    0    0 -0.37761199657E-01  0.30356468873E+00  0.78770415922E-01  0.98976068161E+00  0.93800000000E+00 0. -1.
         22    1    1    2    0    0  0.12496140983E+00 -0.34067045168E+00  0.28976390519E+01  0.29202711836E+01  0.00000000000E+00 0. -1.
</event>
<event>
 5    1  0.3222854E+002  0.1520760E+01  0.7818608E-02  0.3444130E+00
         11   -1    0    0    0    0  0.00000000000E+00  0.00000000000E+00  0.39999999674E+01  0.40000000000E+01  0.51100000000E-03 0.  1.
    9000002   -1    0    0    0    0 -0.00000000000E+00 -0.00000000000E+00  0.00000000000E+00  0.93800000000E+00  0.93800000000E+00 0.  1.
         11    1    1    2    0    0 -0.65111057329E-02 -0.41629391972E+00  0.14602573479E+01  0.15184514498E+01  0.51100000000E-03 0.  1.
    9000002    1    1    2    0    0  0.33687191464E+00  0.28655059828E+00  0.20389187985E+00  0.10568868581E+01  0.93800000000E+00 0.  1.
         22    1    1    2    0    0 -0.33036080891E+00  0.12974332144E+00  0.23358507396E+01  0.23626616921E+01  0.00000000000E+00 0. -1.
</event>
<event>
 5    1  0.3222854E+002  0.1599539E+01  0.7818608E-02  0.3353863E+00
         11   -1    0    0    0    0  0.00000000000E+00  0.00000000000E+00  0.39999999674E+01  0.40000000000E+01  0.51100000000E-03 0. -1.
    9000002   -1    0    0    0    0 -0.00000000000E+00 -0.00000000000E+00  0.00000000000E+00  0.93800000000E+00  0.93800000000E+00 0. -1.
         11    1    1    2    0    0 -0.19782233173E+00 -0.98336084098E-01  0.16946911873E+01  0.17090295907E+01  0.51100000000E-03 0. -1.
    9000002    1    1    2    0    0  0.44100158857E+00  0.25304037999E+00  0.17734430859E+00  0.10815760902E+01  0.93800000000E+00 0. -1.
         22    1    1    2    0    0 -0.24317925684E+00 -0.15470429589E+00  0.21279644714E+01  0.21473943191E+01  0.00000000000E+00 0. -1.
</event>
<event>
 5    1  0.3222854E+002  0.1707178E+01  0.7818608E-02  0.3244669E+00
         11   -1    0    0    0    0  0.00000000000E+00  0.00000000000E+00  0.39999999674E+01  0.40000000000E+01  0.51100000000E-03 0.  1.
    9000002   -1    0    0    0    0 -0.00000000000E+00 -0.00000000000E+00  0.00000000000E+00  0.93800000000E+00  0.93800000000E+00 0.  1.
         11    1    1    2    0    0  0.20114400954E-01 -0.13508592778E+00 -0.14884286476E+00  0.20200806054E+00  0.51100000000E-03 0.  1.
    9000002    1    1    2    0    0  0.50625125987E+00 -0.38657202356E+00  0.10350255664E+01  0.15352036316E+01  0.93800000000E+00 0.  1.
         22    1    1    2    0    0 -0.52636566082E+00  0.52165795134E+00  0.31138172658E+01  0.32007883078E+01  0.00000000000E+00 0.  1.
</event>
<event>
 5    1  0.3222854E+002  0.1595939E+01  0.7818608E-02  0.3357782E+00
         11   -1    0    0    0    0  0.00000000000E+00  0.00000000000E+00  0.39999999674E+01  0.40000000000E+01  0.51100000000E-03 0. -1.
    9000002   -1    0    0    0    0 -0.00000000000E+00 -0.00000000000E+00  0.00000000000E+00  0.93800000000E+00  0.93800000000E+00 0.  1.
         11    1    1    2    0    0  0.10560236435E-01  0.60415678894E-02  0.42971519808E+00  0.42988769664E+00  0.51100000000E-03 0. -1.
    9000002    1    1    2    0    0  0.10499162141E+00  0.31313529189E+00  0.75963547466E-01  0.99734217405E+00  0.93800000000E+00 0.  1.
         22    1    1    2    0    0 -0.11555185785E+00 -0.31917685978E+00  0.34943212218E+01  0.35107701293E+01  0.00000000000E+00 0. -1.
</event>
<event>
 5    1  0.3222854E+002  0.1570034E+01  0.7818608E-02  0.3386544E+00
         11   -1    0    0    0    0  0.00000000000E+00  0.00000000000E+00  0.39999999674E+01  0.40000000000E+01  0.51100000000E-03 0.  1.
    9000002   -1    0    0    0    0 -0.00000000000E+00 -0.00000000000E+00  0.00000000000E+00  0.93800000000E+00  0.93800000000E+00 0.  1.
         11    1    1    2    0    0  0.64851965361E-01 -0.11419153596E+00  0.15151228862E+01  0.15208034409E+01  0.51100000000E-03 0.  1.
    9000002    1    1    2    0    0 -0.25258591958E+00 -0.21927135966E+00  0.98928968312E-01  0.10007549734E+01  0.93800000000E+00 0.  1.
         22    1    1    2    0    0  0.18773395422E+00  0.33346289562E+00  0.23859481128E+01  0.24164415858E+01  0.00000000000E+00 0.  1.
</event>
<event>
 5    1  0.3222854E+002  0.1524023E+01  0.7818608E-02  0.3440192E+00
         11   -1    0    0    0    0  0.00000000000E+00  0.00000000000E+00  0.39999999674E+01  0.40000000000E+01  0.51100000000E-03 0.  1.
    9000002   -1    0    0    0    0 -0.00000000000E+00 -0.00000000000E+00  0.00000000000E+00  0.93800000000E+00  0.93800000000E+00 0.  1.
         11    1    1    2    0    0  0.68072120103E-01  0.17111654749E+00  0.30643757910E+01  0.30699045484E+01  0.51100000000E-03 0.  1.
    9000002    1    1    2    0    0  0.14664497819E-01  0.12130753590E+00  0.67518244766E-01  0.94833184020E+00  0.93800000000E+00 0.  1.
         22    1    1    2    0    0 -0.82736617922E-01 -0.29242408338E+00  0.86810593158E+00  0.91976361144E+00  0.00000000000E+00 0.  1.
</event>
<event>
 5    1  0.3222854E+002  0.1598731E+01  0.7818608E-02  0.3354742E+00
         11   -1    0    0    0    0  0.00000000000E+00  0.00000000000E+00  0.39999999674E+01  0.40000000000E+01  0.51100000000E-03 0. -1.
    9000002   -1    0    0    0    0 -0.00000000000E+00 -0.00000000000E+00  0.00000000000E+00  0.93800000000E+00  0.93800000000E+00 0. -1.
         11    1    1    2    0    0  0.83042461902E-02 -0.20733779318E-01  0.11650102032E+00  0.11862377066E+00  0.51100000000E-03 0. -1.
    9000002    1    1    2    0    0 -0.92482797787E-01  0.31538790883E+00  0.73018410463E-01  0.99659334194E+00  0.93800000000E+00 0. -1.
         22    1    1    2    0    0  0.84178551597E-01 -0.29465412951E+00  0.38104805366E+01  0.38227828874E+01  0.00000000000E+00 0. -1.
</event>
<event>
 5    1  0.3222854E+002  0.1599445E+01  0.7818608E-02  0.3353966E+00
         11   -1    0    0    0    0  0.00000000000E+00  0.00000000000E+00  0.39999999674E+01  0.40000000000E+01  0.51100000000E-03 0. -1.
    9000002   -1    0    0    0    0 -0.00000000000E+00 -0.00000000000E+00  0.00000000000E+00  0.93800000000E+00  0.93800000000E+00 0.  1.
         11    1    1    2    0    0  0.14906583594E-01 -0.77079519209E-01  0.91425803522E+00  0.91762272999E+00  0.51100000000E-03 0. -1.
    9000002    1    1    2    0    0 -0.91041812561E-01  0.27128822124E+00  0.54739071448E-01  0.98220480378E+00  0.93800000000E+00 0.  1.
         22    1    1    2    0    0  0.76135228967E-01 -0.19420870203E+00  0.30310028607E+01  0.30381724662E+01  0.00000000000E+00 0. -1.
</event>
<event>
 5    1  0.3222854E+002  0.1599675E+01  0.7818608E-02  0.3353717E+00
         11   -1    0    0    0    0  0.00000000000E+00  0.00000000000E+00  0.39999999674E+01  0.40000000000E+01  0.51100000000E-03 0. -1.
    9000002   -1    0    0    0    0 -0.00000000000E+00 -0.00000000000E+00  0.00000000000E+00  0.93800000000E+00  0.93800000000E+00 0.  1.
         11    1    1    2    0    0 -0.40846307998E-01  0.25938236666E-01  0.32705532948E+00  0.33061558139E+00  0.51100000000E-03 0.  1.
    9000002    1    1    2    0    0  0.48281671911E+00 -0.30083716813E+00  0.22434425786E+00  0.11197273472E+01  0.93800000000E+00 0.  1.
         22    1    1    2    0    0 -0.44197041111E+00  0.27489893146E+00  0.34486003800E+01  0.34876570714E+01  0.00000000000E+00 0. -1.
</event>
<event>
 5    1  0.3222854E+002  0.1599666E+01  0.7818608E-02  0.3353726E+00
         11   -1    0    0    0    0  0.00000000000E+00  0.00000000000E+00  0.39999999674E+01  0.40000000000E+01  0.51100000000E-03 0.  1.
    9000002   -1    0    0    0    0 -0.00000000000E+00 -0.00000000000E+00  0.00000000000E+00  0.93800000000E+00  0.93800000000E+00 0. -1.
         11    1    1    2    0    0 -0.32613509805E+00  0.35069001850E+00  0.25567002381E+01  0.26011658847E+01  0.51100000000E-03 0.  1.
    9000002    1    1    2    0    0  0.47153747186E+00 -0.49923647276E+00  0.33585819544E+00  0.12100534577E+01  0.93800000000E+00 0. -1.
         22    1    1    2    0    0 -0.14540237381E+00  0.14854645426E+00  0.11074415338E+01  0.11267806576E+01  0.00000000000E+00 0.  1.
</event>
<event>
 5    1  0.3222854E+002  0.1599402E+01  0.7818608E-02  0.3354013E+00
         11   -1    0    0    0    0  0.00000000000E+00  0.00000000000E+00  0.39999999674E+01  0.40000000000E+01  0.51100000000E-03 0. -1.
    9000002   -1    0    0    0    0 -0.00000000000E+00 -0.00000000000E+00  0.00000000000E+00  0.93800000000E+00  0.93800000000E+00 0.  1.
         11    1    1    2    0    0 -0.19741327330E-01 -0.29768732181E-01  0.40960407333E+00  0.41115891748E+00  0.51100000000E-03 0. -1.
    9000002    1    1    2    0    0  0.18891969008E+00  0.16997625321E+00  0.43126001772E-01  0.97277254689E+00  0.93800000000E+00 0.  1.
         22    1    1    2    0    0 -0.16917836275E+00 -0.14020752103E+00  0.35472698923E+01  0.35540685356E+01  0.00000000000E+00 0. -1.
</event>
<event>
 5    1  0.3222854E+002  0.1504700E+01  0.7818608E-02  0.3463771E+00
         11   -1    0    0    0    0  0.00000000000E+00  0.00000000000E+00  0.39999999674E+01  0.40000000000E+01  0.51100000000E-03 0.  1.
    9000002   -1    0    0    0    0 -0.00000000000E+00 -0.00000000000E+00  0.00000000000E+00  0.93800000000E+00  0.93800000000E+00 0. -1.
         11    1    1    2    0    0  0.13680400116E+00  0.15571379801E-01  0.31469610004E+01  0.31499716827E+01  0.51100000000E-03 0.  1.
    9000002    1    1    2    0    0  0.42043837600E-01 -0.31243624612E+00  0.14554376257E+00  0.10002055184E+01  0.93800000000E+00 0. -1.
         22    1    1    2    0    0 -0.17884783876E+00  0.29686486632E+00  0.70749520442E+00  0.78782279896E+00  0.00000000000E+00 0. -1.
</event>
<event>
 5    1  0.3222854E+002  0.1599676E+01  0.7818608E-02  0.3353715E+00
         11   -1    0    0    0    0  0.00000000000E+00  0.00000000000E+00  0.39999999674E+01  0.40000000000E+01  0.51100000000E-03 0.  1.
    9000002   -1    0    0    0    0 -0.00000000000E+00 -0.00000000000E+00  0.00000000000E+00  0.93800000000E+00  0.93800000000E+00 0. -1.
         11    1    1    2    0    0  0.88295147949E-02  0.17250605856E+00  0.14681240409E+01  0.14782505745E+01  0.51100000000E-03 0.  1.
    9000002    1    1    2    0    0 -0.20984047838E-01 -0.45396393280E+00  0.14036063641E+00  0.10516980036E+01  0.93800000000E+00 0. -1.
         22    1    1    2    0    0  0.12154533043E-01  0.28145787424E+00  0.23915152901E+01  0.24080514218E+01  0.00000000000E+00 0. -1.
</event>
<event>
 5    1  0.3222854E+002  0.1593219E+01  0.7818608E-02  0.3360756E+00
         11   -1    0    0    0    0  0.00000000000E+00  0.00000000000E+00  0.39999999674E+01  0.40000000000E+01  0.51100000000E-03 0. -1.
    9000002   -1    0    0    0    0 -0.00000000000E+00 -0.00000000000E+00  0.00000000000E+00  0.93800000000E+00  0.93800000000E+00 0. -1.
         11    1    1    2    0    0  0.15673203633E+00 -0.15551064433E+00  0.26114596046E+01  0.26207766062E+01  0.51100000000E-03 0. -1.
    9000002    1    1    2    0    0 -0.20395684432E+00  0.36308971482E+00  0.12269354188E+00  0.10336006195E+01  0.93800000000E+00 0. -1.
         22    1    1    2    0    0  0.47224807993E-01 -0.20757907048E+00  0.12658468209E+01  0.12836227744E+01  0.00000000000E+00 0.  1.
</event>
<event>
 5    1  0.3222854E+002  0.1599196E+01  0.7818608E-02  0.3354236E+00
         11   -1    0    0    0    0  0.00000000000E+00  0.00000000000E+00  0.39999999674E+01  0.40000000000E+01  0.51100000000E-03 0. -1.
    9000002   -1    0    0    0    0 -0.00000000000E+00 -0.00000000000E+00  0.00000000000E+00  0.93800000000E+00  0.93800000000E+00 0. -1.
         11    1    1    2    0    0  0.30481462834E-02  0.34740896535E-01  0.74312880702E+00  0.74394684355E+00  0.51100000000E-03 0. -1.
    9000002    1    1    2    0    0 -0.83339499998E-01 -0.27118934784E+00  0.53989371313E-01  0.98145197888E+00  0.93800000000E+00 0. -1.
         22    1    1    2    0    0  0.80291353714E-01  0.23644845130E+00  0.32028817890E+01  0.32126011776E+01  0.00000000000E+00 0. -1.
</event>
<event>
 5    1  0.3222854E+002  0.1599672E+01  0.7818608E-02  0.3353720E+00
         11   -1    0    0    0    0  0.00000000000E+00  0.00000000000E+00  0.39999999674E+01  0.40000000000E+01  0.51100000000E-03 0.  1.
    9000002   -1    0    0    0    0 -0.00000000000E+00 -0.00000000000E+00  0.00000000000E+00  0.93800000000E+00  0.93800000000E+00 0. -1.
         11    1    1    2    0    0  0.14542369724E+00 -0.69412686461E-01  0.10467596874E+01  0.10590903064E+01  0.51100000000E-03 0.  1.
    9000002    1    1    2    0    0 -0.51503442849E+00  0.25035529177E+00  0.22751596728E+00  0.11222948588E+01  0.93800000000E+00 0. -1.
         22    1    1    2    0    0  0.36961073124E+00 -0.18094260531E+00  0.27257243127E+01  0.27566148349E+01  0.00000000000E+00 0.  1.
</event>
<event>
 5    1  0.3222854E+002  0.1427372E+01  0.7818608E-02  0.3565062E+00
         11   -1    0    0    0    0  0.00000000000E+00  0.00000000000E+00  0.39999999674E+01  0.40000000000E+01  0.51100000000E-03 0. -1.
    9000002   -1    0    0    0    0 -0.00000000000E+00 -0.00000000000E+00  0.00000000000E+00  0.93800000000E+00  0.93800000000E+00 0. -1.
         11    1    1    2    0    0  0.16933267770E+00 -0.60394218202E+00  0.13102506394E+01  0.14526447308E+01  0.51100000000E-03 0. -1.
    9000002    1    1    2    0    0  0.18515260749E+00  0.49444985780E+00  0.37314397245E+00  0.11392289384E+01  0.93800000000E+00 0. -1.
         22    1    1    2    0    0 -0.35448528519E+00  0.10949232422E+00  0.23166053555E+01  0.23461263307E+01  0.00000000000E+00 0. -1.
</event>
<event>
 5    1  0.3222854E+002  0.1598537E+01  0.7818608E-02  0.3354953E+00
         11   -1    0    0    0    0  0.00000000000E+00  0.00000000000E+00  0.39999999674E+01  0.40000000000E+01  0.51100000000E-03 0. -1.
    9000002   -1    0    0    0    0 -0.00000000000E+00 -0.00000000000E+00  0.00000000000E+00  0.93800000000E+00  0.93800000000E+00 0.  1.
         11    1    1    2    0    0 -0.48327659957E-01  0.24924052493E-01  0.36913837455E+00  0.37312219419E+00  0.51100000000E-03 0. -1.
    9000002    1    1    2    0    0  0.28422394999E+00 -0.15800931942E+00  0.71625735593E-01  0.99535141773E+00  0.93800000000E+00 0.  1.
         22    1    1    2    0    0 -0.23589629004E+00  0.13308526693E+00  0.35592358572E+01  0.35695263881E+01  0.00000000000E+00 0. -1.
</event>
<event>
 5    1  0.3222854E+002  0.1599675E+01  0.7818608E-02  0.3353716E+00
         11   -1    0    0    0    0  0.00000000000E+00  0.00000000000E+00  0.39999999674E+01  0.40000000000E+01  0.51100000000E-03 0.  1.
    9000002   -1    0    0    0    0 -0.00000000000E+00 -0.00000000000E+00  0.00000000000E+00  0.93800000000E+00  0.93800000000E+00 0. -1.
         11    1    1    2    0    0 -0.88330013945E-01 -0.32200235827E+00  0.22476679084E+01  0.22723333817E+01  0.51100000000E-03 0.  1.
    9000002    1    1    2    0    0  0.15103060453E+00  0.54242118693E+00  0.21952717822E+00  0.11158257792E+01  0.93800000000E+00 0. -1.
         22    1    1    2    0    0 -0.62700590590E-01 -0.22041882865E+00  0.15328048808E+01  0.15498408391E+01  0.00000000000E+00 0. -1.
</event>
<event>
 5    1  0.3222854E+002  0.1599342E+01  0.7818608E-02  0.3354078E+00
         11   -1    0    0    0    0  0.00000000000E+00  0.00000000000E+00  0.39999999674E+01  0.40000000000E+01  0.51100000000E-03 0. -1.
    9000002   -1    0    0    0    0 -0.00000000000E+00 -0.00000000000E+00  0.00000000000E+00  0.93800000000E+00  0.93800000000E+00 0. -1.
         11    1    1    2    0    0  0.24522630765E+00 -0.13165172391E+00  0.17711429296E+01  0.17928791528E+01  0.51100000000E-03 0. -1.
    9000002    1    1    2    0    0 -0.51169905646E+00  0.23529545019E+00  0.21996981907E+00  0.11159886176E+01  0.93800000000E+00 0. -1.
         22    1    1    2    0    0  0.26647274881E+00 -0.10364372628E+00  0.20088872187E+01  0.20291322296E+01  0.00000000000E+00 0. -1.
</event>
<event>
 5    1  0.3222854E+002  0.1599667E+01  0.7818608E-02  0.3353725E+00
         11   -1    0    0    0    0  0.00000000000E+00  0.00000000000E+00  0.39999999674E+01  0.40000000000E+01  0.51100000000E-03 0.  1.
    9000002   -1    0    0    0    0 -0.00000000000E+00 -0.00000000000E+00  0.00000000000E+00  0.93800000000E+00  0.93800000000E+00 0. -1.
         11    1    1    2    0    0 -0.18979012439E+00 -0.13096533730E+00  0.19961864826E+01  0.20094608593E+01  0.51100000000E-03 0.  1.
    9000002    1    1    2    0    0  0.36117275660E+00  0.25707763461E+00  0.13336139083E+00  0.10460229113E+01  0.93800000000E+00 0. -1.
         22    1    1    2    0    0 -0.17138263221E+00 -0.12611229731E+00  0.18704520940E+01  0.18825162294E+01  0.00000000000E+00 0. -1.
</event>
<event>
 5    1  0.3222854E+002  0.1599613E+01  0.7818608E-02  0.3353783E+00
         11   -1    0    0    0    0  0.00000000000E+00  0.00000000000E+00  0.39999999674E+01  0.40000000000E+01  0.51100000000E-03 0.  1.
    9000002   -1    0    0    0    0 -0.00000000000E+00 -0.00000000000E+00  0.00000000000E+00  0.93800000000E+00  0.93800000000E+00 0.  1.
         11    1    1    2    0    0  0.24251638135E+00  0.11298339796E+00  0.21164196089E+01  0.21332631496E+01  0.51100000000E-03 0.  1.
    9000002    1    1    2    0    0 -0.42552499228E+00 -0.19761334309E+00  0.14999400425E+00  0.10594643711E+01  0.93800000000E+00 0.  1.
         22    1    1    2    0    0  0.18300861093E+00  0.84629945126E-01  0.17335863542E+01  0.17452724792E+01  0.00000000000E+00 0.  1.
</event>
<event>
 5    1  0.3222854E+002  0.1599548E+01  0.7818608E-02  0.3353854E+00
         11   -1    0    0    0    0  0.00000000000E+00  0.00000000000E+00  0.39999999674E+01  0.40000000000E+01  0.51100000000E-03 0.  1.
    9000002   -1    0    0    0    0 -0.00000000000E+00 -0.00000000000E+00  0.00000000000E+00  0.93800000000E+00  0.93800000000E+00 0.  1.
         11    1    1    2    0    0  0.80540194083E-03 -0.50578527285E-01  0.83274693152E+00  0.83428205612E+00  0.51100000000E-03 0.  1.
    9000002    1    1    2    0    0  0.41591558360E-01  0.26725192894E+00  0.48774385101E-01  0.97743357416E+00  0.93800000000E+00 0.  1.
         22    1    1    2    0    0 -0.42396960301E-01 -0.21667340166E+00  0.31184786507E+01  0.31262843697E+01  0.00000000000E+00 0.  1.
</event>
<event>
 5    1  0.3222854E+002  0.1599677E+01  0.7818608E-02  0.3353714E+00
         11   -1    0    0    0    0  0.00000000000E+00  0.00000000000E+00  0.39999999674E+01  0.40000000000E+01  0.51100000000E-03 0. -1.
    9000002   -1    0    0    0    0 -0.00000000000E+00 -0.00000000000E+00  0.00000000000E+00  0.93800000000E+00  0.93800000000E+00 0.  1.
         11    1    1    2    0    0 -0.83148509614E-01 -0.86305283603E-01  0.14033588707E+01  0.14084667755E+01  0.51100000000E-03 0. -1.
    9000002    1    1    2    0    0  0.23091578486E+00  0.24091705510E+00  0.74539801658E-01  0.99838034294E+00  0.93800000000E+00 0.  1.
         22    1    1    2    0    0 -0.14776727525E+00 -0.15461177150E+00  0.25221012950E+01  0.25311528815E+01  0.00000000000E+00 0.  1.
</event>
<event>
 5    1  0.3222854E+002  0.1599677E+01  0.7818608E-02  0.3353714E+00
         11   -1    0    0    0    0  0.00000000000E+00  0.00000000000E+00  0.39999999674E+01  0.40000000000E+01  0.51100000000E-03 0. -1.
    9000002   -1    0    0    0    0 -0.00000000000E+00 -0.00000000000E+00  0.00000000000E+00  0.93800000000E+00  0.93800000000E+00 0. -1.
         11    1    1    2    0    0  0.27499776610E-01  0.46686408334E-02  0.46243712736E+00  0.46327787752E+00  0.51100000000E-03 0.  1.
    9000002    1    1    2    0    0 -0.23648521809E+00 -0.40393965314E-01  0.38205816406E-01  0.96894820048E+00  0.93800000000E+00 0. -1.
         22    1    1    2    0    0  0.20898544148E+00  0.35725324480E-01  0.34993570236E+01  0.35057739220E+01  0.00000000000E+00 0. -1.
</event>
<event>
 5    1  0.3222854E+002  0.1599676E+01  0.7818608E-02  0.3353715E+00
         11   -1    0    0    0    0  0.00000000000E+00  0.00000000000E+00  0.39999999674E+01  0.40000000000E+01  0.51100000000E-03 0. -1.
    9000002   -1    0    0    0    0 -0.00000000000E+00 -0.00000000000E+00  0.00000000000E+00  0.93800000000E+00  0.93800000000E+00 0. -1.
         11    1    1    2    0    0 -0.11802383548E+00 -0.35868959389E-01  0.13498131143E+01  0.13554379043E+01  0.51100000000E-03 0. -1.
    9000002    1    1    2    0    0  0.34421794322E+00  0.10251166287E+00  0.86581398522E-01  0.10081344018E+01  0.93800000000E+00 0. -1.
         22    1    1    2    0    0 -0.22619410774E+00 -0.66642703478E-01  0.25636054546E+01  0.25744276939E+01  0.00000000000E+00 0. -1.
</event>
<event>
 5    1  0.3222854E+002  0.1599621E+01  0.7818608E-02  0.3353774E+00
         11   -1    0    0    0    0  0.00000000000E+00  0.00000000000E+00  0.39999999674E+01  0.40000000000E+01  0.51100000000E-03 0. -1.
    9000002   -1    0    0    0    0 -0.00000000000E+00 -0.00000000000E+00  0.00000000000E+00  0.93800000000E+00  0.93800000000E+00 0. -1.
         11    1    1    2    0    0 -0.11567022215E-01  0.20353602588E-01  0.36505785819E+00  0.36580810009E+00  0.51100000000E-03 0. -1.
    9000002    1    1    2    0    0  0.15693843336E+00 -0.17433752230E+00  0.36551913196E-01  0.96757598456E+00  0.93800000000E+00 0. -1.
         22    1    1    2    0    0 -0.14537141115E+00  0.15398391971E+00  0.35983901960E+01  0.36046159153E+01  0.00000000000E+00 0. -1.
</event>
<event>
 5    1  0.3222854E+002  0.1599674E+01  0.7818608E-02  0.3353718E+00
         11   -1    0    0    0    0  0.00000000000E+00  0.00000000000E+00  0.39999999674E+01  0.40000000000E+01  0.51100000000E-03 0.  1.
    9000002   -1    0    0    0    0 -0.00000000000E+00 -0.00000000000E+00  0.00000000000E+00  0.93800000000E+00  0.93800000000E+00 0. -1.
         11    1    1    2    0    0 -0.41397592390E+00  0.55815946794E+00  0.25239499797E+01  0.26178697100E+01  0.51100000000E-03 0.  1.
    9000002    1    1    2    0    0  0.55076414502E+00 -0.73848286977E+00  0.65579328876E+00  0.14692198372E+01  0.93800000000E+00 0. -1.
         22    1    1    2    0    0 -0.13678822112E+00  0.18032340183E+00  0.82025669890E+00  0.85091045286E+00  0.00000000000E+00 0. -1.
</event>
<event>
 5    1  0.3222854E+002  0.1599663E+01  0.7818608E-02  0.3353730E+00
         11   -1    0    0    0    0  0.00000000000E+00  0.00000000000E+00  0.39999999674E+01  0.40000000000E+01  0.51100000000E-03 0. -1.
    9000002   -1    0    0    0    0 -0.00000000000E+00 -0.00000000000E+00  0.00000000000E+00  0.93800000000E+00  0.93800000000E+00 0. -1.
         11    1    1    2    0    0  0.22740995684E+00 -0.35300071948E-01  0.13357912598E+01  0.13554703738E+01  0.51100000000E-03 0. -1.
    9000002    1    1    2    0    0 -0.63479012773E+00  0.10965213006E+00  0.29244157716E+00  0.11748821949E+01  0.93800000000E+00 0. -1.
         22    1    1    2    0    0  0.40738017089E+00 -0.74352058115E-01  0.23717671304E+01  0.24076474313E+01  0.00000000000E+00 0. -1.
</event>
<event>
 5    1  0.3222854E+002  0.1598753E+01  0.7818608E-02  0.3354718E+00
         11   -1    0    0    0    0  0.00000000000E+00  0.00000000000E+00  0.39999999674E+01  0.40000000000E+01  0.51100000000E-03 0.  1.
    9000002   -1    0    0    0    0 -0.00000000000E+00 -0.00000000000E+00  0.00000000000E+00  0.93800000000E+00  0.93800000000E+00 0.  1.
         11    1    1    2    0    0  0.89586153107E-01  0.77979055958E-01  0.15570702263E+01  0.15615935331E+01  0.51100000000E-03 0.  1.
    9000002    1    1    2    0    0 -0.18322374728E+00 -0.27615668601E+00  0.74233925136E-01  0.99759116498E+00  0.93800000000E+00 0.  1.
         22    1    1    2    0    0  0.93637594172E-01  0.19817763006E+00  0.23686958160E+01  0.23788153019E+01  0.00000000000E+00 0.  1.
</event>
<event>
 5    1  0.3222854E+002  0.1562508E+01  0.7818608E-02  0.3395089E+00
         11   -1    0    0    0    0  0.00000000000E+00  0.00000000000E+00  0.39999999674E+01  0.40000000000E+01  0.51100000000E-03 0.  1.
    9000002   -1    0    0    0    0 -0.00000000000E+00 -0.00000000000E+00  0.00000000000E+00  0.93800000000E+00  0.93800000000E+00 0.  1.
         11    1    1    2    0    0  0.31739350887E-01  0.23329067858E-01  0.29714768826E+01  0.29717380027E+01  0.51100000000E-03 0.  1.
    9000002    1    1    2    0    0  0.66179577993E-01  0.21284863391E+00  0.61576168349E-01  0.96608483168E+00  0.93800000000E+00 0.  1.
         22    1    1    2    0    0 -0.97918928880E-01 -0.23617770177E+00  0.96694691645E+00  0.10001771656E+01  0.00000000000E+00 0.  1.
</event>
<event>
 5    1  0.3222854E+002  0.1536983E+01  0.7818608E-02  0.3424734E+00
         11   -1    0    0    0    0  0.00000000000E+00  0.00000000000E+00  0.39999999674E+01  0.40000000000E+01  0.51100000000E-03 0.  1.
    9000002   -1    0    0    0    0 -0.00000000000E+00 -0.00000000000E+00  0.00000000000E+00  0.93800000000E+00  0.93800000000E+00 0.  1.
         11    1    1    2    0    0  0.24563937547E+00 -0.66343296329E-01  0.15983132465E+01  0.16184392577E+01  0.51100000000E-03 0.  1.
    9000002    1    1    2    0    0 -0.18302199445E+00  0.70944317603E+00  0.46484555645E+00  0.12777840435E+01  0.93800000000E+00 0.  1.
         22    1    1    2    0    0 -0.62617381017E-01 -0.64309987971E+00  0.19368411644E+01  0.20417766988E+01  0.00000000000E+00 0.  1.
</event>
<event>
 5    1  0.3222854E+002  0.1599666E+01  0.7818608E-02  0.3353726E+00
         11   -1    0    0    0    0  0.00000000000E+00  0.00000000000E+00  0.39999999674E+01  0.40000000000E+01  0.51100000000E-03 0.  1.
    9000002   -1    0    0    0    0 -0.00000000000E+00 -0.00000000000E+00  0.00000000000E+00  0.93800000000E+00  0.93800000000E+00 0.  1.
         11    1    1    2    0    0 -0.41649905539E+00  0.41492976971E+00  0.19038342028E+01  0.19925418716E+01  0.51100000000E-03 0.  1.
    9000002    1    1    2    0    0  0.70574378570E+00 -0.69450216535E+00  0.78437071863E+00  0.15733686704E+01  0.93800000000E+00 0.  1.
         22    1    1    2    0    0 -0.28924473031E+00  0.27957239565E+00  0.13117950459E+01  0.13720894580E+01  0.00000000000E+00 0. -1.
</event>
<event>
 5    1  0.3222854E+002  0.1599654E+01  0.7818608E-02  0.3353739E+00
         11   -1    0    0    0    0  0.00000000000E+00  0.00000000000E+00  0.39999999674E+01  0.40000000000E+01  0.51100000000E-03 0.  1.
    9000002   -1    0    0    0    0 -0.00000000000E+00 -0.00000000000E+00  0.00000000000E+00  0.93800000000E+00  0.93800000000E+00 0. -1.
         11    1    1    2    0    0 -0.75213815261E-01 -0.33940207853E-01  0.11563837986E+01  0.11593242888E+01  0.51100000000E-03 0.  1.
    9000002    1    1    2    0    0  0.26791617817E+00  0.12952885541E+00  0.59082329169E-01  0.98584558858E+00  0.93800000000E+00 0. -1.
         22    1    1    2    0    0 -0.19270236291E+00 -0.95588647559E-01  0.27845338395E+01  0.27928301226E+01  0.00000000000E+00 0.  1.
</event>
<event>
 5    1  0.3222854E+002  0.1595932E+01  0.7818608E-02  0.3357790E+00
         11   -1    0    0    0    0  0.00000000000E+00  0.00000000000E+00  0.39999999674E+01  0.40000000000E+01  0.51100000000E-03 0. -1.
    9000002   -1    0    0    0    0 -0.00000000000E+00 -0.00000000000E+00  0.00000000000E+00  0.93800000000E+00  0.93800000000E+00 0.  1.
         11    1    1    2    0    0 -0.77679706855E-01 -0.36005625614E-01  0.51602930255E+00  0.52308416545E+00  0.51100000000E-03 0. -1.
    9000002    1    1    2    0    0  0.32303832357E+00  0.40879423787E-02  0.72756499321E-01  0.99474015600E+00  0.93800000000E+00 0.  1.
         22    1    1    2    0    0 -0.24535861672E+00  0.31917683236E-01  0.34112141655E+01  0.34201756785E+01  0.00000000000E+00 0. -1.
</event>
<event>
 5    1  0.3222854E+002  0.1599617E+01  0.7818608E-02  0.3353779E+00
         11   -1    0    0    0    0  0.00000000000E+00  0.00000000000E+00  0.39999999674E+01  0.40000000000E+01  0.51100000000E-03 0.  1.
    9000002   -1    0    0    0    0 -0.00000000000E+00 -0.00000000000E+00  0.00000000000E+00  0.93800000000E+00  0.93800000000E+00 0.  1.
         11    1    1    2    0    0  0.76768130024E-01 -0.84847178546E-01  0.12812581328E+01  0.12863572807E+01  0.51100000000E-03 0.  1.
    9000002    1    1    2    0    0 -0.22255801954E+00  0.23655403510E+00  0.70591295349E-01  0.99514673017E+00  0.93800000000E+00 0.  1.
         22    1    1    2    0    0  0.14578988952E+00 -0.15170685656E+00  0.26481505392E+01  0.26564959892E+01  0.00000000000E+00 0.  1.
</event>
<event>
 5    1  0.3222854E+002  0.1583102E+01  0.7818608E-02  0.3371910E+00
         11   -1    0    0    0    0  0.00000000000E+00  0.00000000000E+00  0.39999999674E+01  0.40000000000E+01  0.51100000000E-03 0.  1.
    9000002   -1    0    0    0    0 -0.00000000000E+00 -0.00000000000E+00  0.00000000000E+00  0.93800000000E+00  0.93800000000E+00 0.  1.
         11    1    1    2    0    0 -0.42556879650E-01  0.59635369367E-01  0.11654547520E+01  0.11677553277E+01  0.51100000000E-03 0.  1.
    9000002    1    1    2    0    0 -0.12534560110E+00  0.19388632393E+00  0.48031831640E-01  0.96718895939E+00  0.93800000000E+00 0.  1.
         22    1    1    2    0    0  0.16790248076E+00 -0.25352169330E+00  0.27865133838E+01  0.28030557129E+01  0.00000000000E+00 0.  1.
</event>
<event>
 5    1  0.3222854E+002  0.1599415E+01  0.7818608E-02  0.3353999E+00
         11   -1    0    0    0    0  0.00000000000E+00  0.00000000000E+00  0.39999999674E+01  0.40000000000E+01  0.51100000000E-03 0. -1.
    9000002   -1    0    0    0    0 -0.00000000000E+00 -0.00000000000E+00  0.00000000000E+00  0.93800000000E+00  0.93800000000E+00 0. -1.
         11    1    1    2    0    0  0.38663219192E-01  0.59362468705E-01  0.12045051035E+01  0.12065867365E+01  0.51100000000E-03 0. -1.
    9000002    1    1    2    0    0 -0.15439281126E+00 -0.24627479499E+00  0.56519430467E-01  0.98362943268E+00  0.93800000000E+00 0. -1.
         22    1    1    2    0    0  0.11572959207E+00  0.18691232629E+00  0.27389754334E+01  0.27477838308E+01  0.00000000000E+00 0. -1.
</event>
<event>
 5    1  0.3222854E+002  0.1598815E+01  0.7818608E-02  0.3354651E+00
         11   -1    0    0    0    0  0.00000000000E+00  0.00000000000E+00  0.39999999674E+01  0.40000000000E+01  0.51100000000E-03 0.  1.
    9000002   -1    0    0    0    0 -0.00000000000E+00 -0.00000000000E+00  0.00000000000E+00  0.93800000000E+00  0.93800000000E+00 0. -1.
         11    1    1    2    0    0 -0.11186028898E+00  0.11117469039E+00  0.81241527904E+00  0.82758164719E+00  0.51100000000E-03 0.  1.
    9000002    1    1    2    0    0  0.44008736812E+00 -0.61054132427E+00  0.41199451828E+00  0.12712281791E+01  0.93800000000E+00 0. -1.
         22    1    1    2    0    0 -0.32822707914E+00  0.49936663388E+00  0.27755901700E+01  0.28391901737E+01  0.00000000000E+00 0.  1.
</event>
<event>
 5    1  0.3222854E+002  0.1599634E+01  0.7818608E-02  0.3353760E+00
         11   -1    0    0    0    0  0.00000000000E+00  0.00000000000E+00  0.39999999674E+01  0.40000000000E+01  0.51100000000E-03 0. -1.
    9000002   -1    0    0    0    0 -0.00000000000E+00 -0.00000000000E+00  0.00000000000E+00  0.93800000000E+00  0.93800000000E+00 0. -1.
         11    1    1    2    0    0  0.60499761944E-04  0.26175031481E-03  0.71138077165E-02  0.71371951547E-02  0.51100000000E-03 0.  1.
    9000002    1    1    2    0    0  0.10327643704E+00 -0.34122537699E+00  0.85318834359E-01  0.10070869296E+01  0.93800000000E+00 0. -1.
         22    1    1    2    0    0 -0.10333693681E+00  0.34096362668E+00  0.39075673253E+01  0.39237758752E+01  0.00000000000E+00 0. -1.
</event>
<event>
 5    1  0.3222854E+002  0.1594682E+01  0.7818608E-02  0.3359156E+00
         11   -1    0    0    0    0  0.00000000000E+00  0.00000000000E+00  0.39999999674E+01  0.40000000000E+01  0.51100000000E-03 0.  1.
    9000002   -1    0    0    0    0 -0.00000000000E+00 -0.00000000000E+00  0.00000000000E+00  0.93800000000E+00  0.93800000000E+00 0.  1.
         11    1    1    2    0    0 -0.86939243789E-01 -0.32986416454E-01  0.15297314598E+01  0.15325551004E+01  0.51100000000E-03 0.  1.
    9000002    1    1    2    0    0  0.21470653063E+00 -0.12865934534E+00  0.45447463056E-01  0.97188558655E+00  0.93800000000E+00 0.  1.
         22    1    1    2    0    0 -0.12776728684E+00  0.16164576180E+00  0.24248210445E+01  0.24335593130E+01  0.00000000000E+00 0. -1.
</event>
<event>
 5    1  0.3222854E+002  0.1599672E+01  0.7818608E-02  0.3353720E+00
         11   -1    0    0    0    0  0.00000000000E+00  0.00000000000E+00  0.39999999674E+01  0.40000000000E+01  0.51100000000E-03 0.  1.
    9000002   -1    0    0    0    0 -0.00000000000E+00 -0.00000000000E+00  0.00000000000E+00  0.93800000000E+00  0.93800000000E+00 0. -1.
         11    1    1    2    0    0 -0.10070539391E-01 -0.87779460814E-02  0.13092317182E+00  0.13160397464E+00  0.51100000000E-03 0.  1.
    9000002    1    1    2    0    0  0.27495391161E+00  0.26801376768E+00  0.99249760428E-01  0.10183936116E+01  0.93800000000E+00 0. -1.
         22    1    1    2    0    0 -0.26488337222E+00 -0.25923582159E+00  0.37698270351E+01  0.37880024138E+01  0.00000000000E+00 0.  1.
</event>
<event>
 5    1  0.3222854E+002  0.1599673E+01  0.7818608E-02  0.3353718E+00
         11   -1    0    0    0    0  0.00000000000E+00  0.00000000000E+00  0.39999999674E+01  0.40000000000E+01  0.51100000000E-03 0.  1.
    9000002   -1    0    0    0    0 -0.00000000000E+00 -0.00000000000E+00  0.00000000000E+00  0.93800000000E+00  0.93800000000E+00 0.  1.
         11    1    1    2    0    0  0.31644269375E-01  0.29903129812E-01  0.57973221780E+00  0.58136499932E+00  0.51100000000E-03 0.  1.
    9000002    1    1    2    0    0 -0.22473230935E+00 -0.19782121251E+00  0.59798124270E-01  0.98643684980E+00  0.93800000000E+00 0.  1.
         22    1    1    2    0    0  0.19308803997E+00  0.16791808270E+00  0.33604696253E+01  0.33701981509E+01  0.00000000000E+00 0.  1.
</event>
<event>
 5    1  0.3222854E+002  0.1599547E+01  0.7818608E-02  0.3353855E+00
         11   -1    0    0    0    0  0.00000000000E+00  0.00000000000E+00  0.39999999674E+01  0.40000000000E+01  0.51100000000E-03 0.  1.
    9000002   -1    0    0    0    0 -0.00000000000E+00 -0.00000000000E+00  0.00000000000E+00  0.93800000000E+00  0.93800000000E+00 0. -1.
         11    1    1    2    0    0 -0.26543322274E-01 -0.71877019277E-02  0.36574510277E+00  0.36677779696E+00  0.51100000000E-03 0.  1.
    9000002    1    1    2    0    0  0.21740832377E+00  0.12770925030E+00  0.42339134492E-01  0.97222046582E+00  0.93800000000E+00 0. -1.
         22    1    1    2    0    0 -0.19086500149E+00 -0.12052154837E+00  0.35919157301E+01  0.35990017372E+01  0.00000000000E+00 0.  1.
</event>
<event>
 5    1  0.3222854E+002  0.1592879E+01  0.7818608E-02  0.3361129E+00
         11   -1    0    0    0    0  0.00000000000E+00  0.00000000000E+00  0.39999999674E+01  0.40000000000E+01  0.51100000000E-03 0.  1.
    9000002   -1    0    0    0    0 -0.00000000000E+00 -0.00000000000E+00  0.00000000000E+00  0.93800000000E+00  0.93800000000E+00 0.  1.
         11    1    1    2    0    0  0.25189311232E+00 -0.59717780772E-01  0.13843576381E+01  0.14083546019E+01  0.51100000000E-03 0.  1.
    9000002    1    1    2    0    0 -0.43777063458E+00  0.22322823386E+00  0.17116861350E+00  0.10726680135E+01  0.93800000000E+00 0.  1.
         22    1    1    2    0    0  0.18587752227E+00 -0.16351045309E+00  0.24444737157E+01  0.24569773846E+01  0.00000000000E+00 0.  1.
</event>
<event>
 5    1  0.3222854E+002  0.1573118E+01  0.7818608E-02  0.3383067E+00
         11   -1    0    0    0    0  0.00000000000E+00  0.00000000000E+00  0.39999999674E+01  0.40000000000E+01  0.51100000000E-03 0.  1.
    9000002   -1    0    0    0    0 -0.00000000000E+00 -0.00000000000E+00  0.00000000000E+00  0.93800000000E+00  0.93800000000E+00 0. -1.
         11    1    1    2    0    0 -0.12102585996E+00  0.14883428865E+00  0.95923587558E+00  0.97822933425E+00  0.51100000000E-03 0.  1.
    9000002    1    1    2    0    0 -0.18026782676E+00 -0.70305784156E+00  0.41069956561E+00  0.12551115294E+01  0.93800000000E+00 0. -1.
         22    1    1    2    0    0  0.30129368672E+00  0.55422355291E+00  0.26300645262E+01  0.27046591364E+01  0.00000000000E+00 0.  1.
</event>
<event>
 5    1  0.4529773E+002  0.1594130E+01  0.7818608E-02  0.3359759E+00
         11   -1    0    0    0    0  0.00000000000E+00  0.00000000000E+00  0.39999999674E+01  0.40000000000E+01  0.51100000000E-03 0. -1.
    9000002   -1    0    0    0    0 -0.00000000000E+00 -0.00000000000E+00  0.00000000000E+00  0.93800000000E+00  0.93800000000E+00 0. -1.
         11    1    1    2    0    0 -0.17306793772E-01 -0.77955786401E-02  0.57960234366E-01  0.60991360419E-01  0.51100000000E-03 0. -1.
    9000002    1    1    2    0    0 -0.16804578049E+00 -0.77245317829E-01  0.26772973799E-01  0.95643453283E+00  0.93800000000E+00 0. -1.
         22    1    1    2    0    0  0.18535257426E+00  0.85040896470E-01  0.39152667592E+01  0.39205741068E+01  0.00000000000E+00 0. -1.
</event>
<event>
 5    1  0.3222854E+002  0.1599670E+01  0.7818608E-02  0.3353721E+00
         11   -1    0    0    0    0  0.00000000000E+00  0.00000000000E+00  0.39999999674E+01  0.40000000000E+01  0.51100000000E-03 0. -1.
    9000002   -1    0    0    0    0 -0.00000000000E+00 -0.00000000000E+00  0.00000000000E+00  0.93800000000E+00  0.93800000000E+00 0. -1.
         11    1    1    2    0    0 -0.78076180010E-02  0.44603763729E+00  0.23123398547E+01  0.23549790652E+01  0.51100000000E-03 0. -1.
    9000002    1    1    2    0    0  0.15847777059E-01 -0.70601824168E+00  0.35702408445E+00  0.12272013309E+01  0.93800000000E+00 0. -1.
         22    1    1    2    0    0 -0.80401590580E-02  0.25998060439E+00  0.13306360282E+01  0.13558196039E+01  0.00000000000E+00 0. -1.
</event>
<event>
 5    1  0.3222854E+002  0.1599653E+01  0.7818608E-02  0.3353741E+00
         11   -1    0    0    0    0  0.00000000000E+00  0.00000000000E+00  0.39999999674E+01  0.40000000000E+01  0.51100000000E-03 0.  1.
    9000002   -1    0    0    0    0 -0.00000000000E+00 -0.00000000000E+00  0.00000000000E+00  0.93800000000E+00  0.93800000000E+00 0. -1.
         11    1    1    2    0    0  0.41143855537E+00 -0.31329195245E-01  0.24898887819E+01  0.25238481750E+01  0.51100000000E-03 0.  1.
    9000002    1    1    2    0    0 -0.61963011330E+00  0.39197319241E-01  0.27020420540E+00  0.11568630946E+01  0.93800000000E+00 0. -1.
         22    1    1    2    0    0  0.20819155792E+00 -0.78681239953E-02  0.12399069801E+01  0.12572887303E+01  0.00000000000E+00 0.  1.
</event>
<event>
 5    1  0.3222854E+002  0.1599676E+01  0.7818608E-02  0.3353715E+00
         11   -1    0    0    0    0  0.00000000000E+00  0.00000000000E+00  0.39999999674E+01  0.40000000000E+01  0.51100000000E-03 0.  1.
    9000002   -1    0    0    0    0 -0.00000000000E+00 -0.00000000000E+00  0.00000000000E+00  0.93800000000E+00  0.93800000000E+00 0. -1.
         11    1    1    2    0    0 -0.37087358179E-01 -0.14199955435E+00  0.15605082243E+01  0.15673945020E+01  0.51100000000E-03 0.  1.
    9000002    1    1    2    0    0  0.95311905762E-01  0.35501196484E+00  0.90779338217E-01  0.10115348451E+01  0.93800000000E+00 0. -1.
         22    1    1    2    0    0 -0.58224547583E-01 -0.21301241049E+00  0.23487124048E+01  0.23590706529E+01  0.00000000000E+00 0.  1.
</event>
<event>
 5    1  0.3222854E+002  0.1593995E+01  0.7818608E-02  0.3359907E+00
         11   -1    0    0    0    0  0.00000000000E+00  0.00000000000E+00  0.39999999674E+01  0.40000000000E+01  0.51100000000E-03 0. -1.
    9000002   -1    0    0    0    0 -0.00000000000E+00 -0.00000000000E+00  0.00000000000E+00  0.93800000000E+00  0.93800000000E+00 0.  1.
         11    1    1    2    0    0  0.11091745472E-01 -0.14662375522E-01  0.78924039182E+00  0.78945466575E+00  0.51100000000E-03 0. -1.
    9000002    1    1    2    0    0 -0.19098783988E+00  0.40360802491E+00  0.14025413658E+00  0.10482800273E+01  0.93800000000E+00 0.  1.
         22    1    1    2    0    0  0.17989609441E+00 -0.38894564938E+00  0.30705054390E+01  0.31002653070E+01  0.00000000000E+00 0. -1.
</event>
<event>
 5    1  0.3222854E+002  0.1599662E+01  0.7818608E-02  0.3353731E+00
         11   -1    0    0    0    0  0.00000000000E+00  0.00000000000E+00  0.39999999674E+01  0.40000000000E+01  0.51100000000E-03 0.  1.
    9000002   -1    0    0    0    0 -0.00000000000E+00 -0.00000000000E+00  0.00000000000E+00  0.93800000000E+00  0.93800000000E+00 0. -1.
         11    1    1    2    0    0  0.57034320744E-01  0.92295719096E-02  0.85872992398E+00  0.86067150656E+00  0.51100000000E-03 0.  1.
    9000002    1    1    2    0    0 -0.25964547499E+00 -0.24831351066E-01  0.45243473670E-01  0.97464010824E+00  0.93800000000E+00 0. -1.
         22    1    1    2    0    0  0.20261115424E+00  0.15601779157E-01  0.30960265697E+01  0.31026883852E+01  0.00000000000E+00 0.  1.
</event>
<event>
 5    1  0.3222854E+002  0.1599655E+01  0.7818608E-02  0.3353737E+00
         11   -1    0    0    0    0  0.00000000000E+00  0.00000000000E+00  0.39999999674E+01  0.40000000000E+01  0.51100000000E-03 0. -1.
    9000002   -1    0    0    0    0 -0.00000000000E+00 -0.00000000000E+00  0.00000000000E+00  0.93800000000E+00  0.93800000000E+00 0. -1.
         11    1    1    2    0    0 -0.33870066927E-01  0.14710772379E-02  0.39835652959E+00  0.39979686254E+00  0.51100000000E-03 0. -1.
    9000002    1    1    2    0    0  0.36291671164E+00 -0.27501657300E-01  0.88976500418E-01  0.10100622250E+01  0.93800000000E+00 0. -1.
         22    1    1    2    0    0 -0.32904664471E+00  0.26030580062E-01  0.35126669373E+01  0.35281409125E+01  0.00000000000E+00 0. -1.
</event>
<event>
 5    1  0.3222854E+002  0.1529315E+01  0.7818608E-02  0.3433847E+00
         11   -1    0    0    0    0  0.00000000000E+00  0.00000000000E+00  0.39999999674E+01  0.40000000000E+01  0.51100000000E-03 0. -1.
    9000002   -1    0    0    0    0 -0.00000000000E+00 -0.00000000000E+00  0.00000000000E+00  0.93800000000E+00  0.93800000000E+00 0.  1.
         11    1    1    2    0    0  0.25276256776E+00  0.57742408528E-01  0.30558846096E+01  0.30668638883E+01  0.51100000000E-03 0. -1.
    9000002    1    1    2    0    0 -0.28786837883E+00  0.25459886612E+00  0.15980653769E+00  0.10261924360E+01  0.93800000000E+00 0.  1.
         22    1    1    2    0    0  0.35105811066E-01 -0.31234127465E+00  0.78430882012E+00  0.84494367572E+00  0.00000000000E+00 0. -1.
</event>
<event>
 5    1  0.3222854E+002  0.1586059E+01  0.7818608E-02  0.3368635E+00
         11   -1    0    0    0    0  0.00000000000E+00  0.00000000000E+00  0.39999999674E+01  0.40000000000E+01  0.51100000000E-03 0. -1.
    9000002   -1    0    0    0    0 -0.00000000000E+00 -0.00000000000E+00  0.00000000000E+00  0.93800000000E+00  0.93800000000E+00 0. -1.
         11    1    1    2    0    0 -0.42770722243E-01  0.90505267233E-01  0.21665470321E+01  0.21688584189E+01  0.51100000000E-03 0. -1.
    9000002    1    1    2    0    0  0.19174833594E+00  0.63831791343E-01  0.37324770971E-01  0.96024947824E+00  0.93800000000E+00 0. -1.
         22    1    1    2    0    0 -0.14897761370E+00 -0.15433705858E+00  0.17961281643E+01  0.18088921028E+01  0.00000000000E+00 0. -1.
</event>
<event>
 5    1  0.3222854E+002  0.1599676E+01  0.7818608E-02  0.3353715E+00
         11   -1    0    0    0    0  0.00000000000E+00  0.00000000000E+00  0.39999999674E+01  0.40000000000E+01  0.51100000000E-03 0.  1.
    9000002   -1    0    0    0    0 -0.00000000000E+00 -0.00000000000E+00  0.00000000000E+00  0.93800000000E+00  0.93800000000E+00 0.  1.
         11    1    1    2    0    0 -0.41430210466E-01 -0.77364313369E-01  0.10140591584E+01  0.10178496633E+01  0.51100000000E-03 0.  1.
    9000002    1    1    2    0    0  0.16243148371E+00  0.29530251052E+00  0.76056036573E-01  0.99960796331E+00  0.93800000000E+00 0.  1.
         22    1    1    2    0    0 -0.12100127324E+00 -0.21793819715E+00  0.29098847724E+01  0.29205423734E+01  0.00000000000E+00 0.  1.
</event>
<event>
 5    1  0.3222854E+002  0.1599651E+01  0.7818608E-02  0.3353743E+00
         11   -1    0    0    0    0  0.00000000000E+00  0.00000000000E+00  0.39999999674E+01  0.40000000000E+01  0.51100000000E-03 0.  1.
    9000002   -1    0    0    0    0 -0.00000000000E+00 -0.00000000000E+00  0.00000000000E+00  0.93800000000E+00  0.93800000000E+00 0.  1.
         11    1    1    2    0    0  0.72511685153E-01  0.90379983082E-01  0.10279137425E+01  0.10344241920E+01  0.51100000000E-03 0.  1.
    9000002    1    1    2    0    0 -0.25711984145E+00 -0.32914016984E+00  0.11796209932E+00  0.10335390274E+01  0.93800000000E+00 0.  1.
         22    1    1    2    0    0  0.18460815629E+00  0.23876018676E+00  0.28541241255E+01  0.28700367806E+01  0.00000000000E+00 0.  1.
</event>
<event>
 5    1  0.3222854E+002  0.1599619E+01  0.7818608E-02  0.3353777E+00
         11   -1    0    0    0    0  0.00000000000E+00  0.00000000000E+00  0.39999999674E+01  0.40000000000E+01  0.51100000000E-03 0.  1.
    9000002   -1    0    0    0    0 -0.00000000000E+00 -0.00000000000E+00  0.00000000000E+00  0.93800000000E+00  0.93800000000E+00 0. -1.
         11    1    1    2    0    0  0.17432412042E-01  0.49064325317E-01  0.71000654787E+00  0.71191344709E+00  0.51100000000E-03 0.  1.
    9000002    1    1    2    0    0 -0.73828209583E-01 -0.24197590346E+00  0.42570627120E-01  0.97245010190E+00  0.93800000000E+00 0. -1.
         22    1    1    2    0    0  0.56395797541E-01  0.19291157814E+00  0.32474227924E+01  0.32536364510E+01  0.00000000000E+00 0.  1.
</event>
<event>
 5    1  0.3222854E+002  0.1599457E+01  0.7818608E-02  0.3353953E+00
         11   -1    0    0    0    0  0.00000000000E+00  0.00000000000E+00  0.39999999674E+01  0.40000000000E+01  0.51100000000E-03 0.  1.
    9000002   -1    0    0    0    0 -0.00000000000E+00 -0.00000000000E+00  0.00000000000E+00  0.93800000000E+00  0.93800000000E+00 0.  1.
         11    1    1    2    0    0  0.15545201711E+00  0.18660937941E+00  0.19869484009E+01  0.20017373952E+01  0.51100000000E-03 0.  1.
    9000002    1    1    2    0    0 -0.29140979142E+00 -0.39365597065E+00  0.16413266793E+00  0.10708259534E+01  0.93800000000E+00 0.  1.
         22    1    1    2    0    0  0.13595777431E+00  0.20704659124E+00  0.18489188985E+01  0.18654366514E+01  0.00000000000E+00 0. -1.
</event>
<event>
 5    1  0.3222854E+002  0.1599676E+01  0.7818608E-02  0.3353715E+00
         11   -1    0    0    0    0  0.00000000000E+00  0.00000000000E+00  0.39999999674E+01  0.40000000000E+01  0.51100000000E-03 0.  1.
    9000002   -1    0    0    0    0 -0.00000000000E+00 -0.00000000000E+00  0.00000000000E+00  0.93800000000E+00  0.93800000000E+00 0.  1.
         11    1    1    2    0    0 -0.62487261715E-01  0.42085186084E-01  0.10145116807E+01  0.10173052797E+01  0.51100000000E-03 0.  1.
    9000002    1    1    2    0    0  0.24124838037E+00 -0.16629356298E+00  0.57238175723E-01  0.98436504351E+00  0.93800000000E+00 0.  1.
         22    1    1    2    0    0 -0.17876111866E+00  0.12420837690E+00  0.29282501110E+01  0.29363296768E+01  0.00000000000E+00 0.  1.
</event>
<event>
 5    1  0.3222854E+002  0.1599568E+01  0.7818608E-02  0.3353832E+00
         11   -1    0    0    0    0  0.00000000000E+00  0.00000000000E+00  0.39999999674E+01  0.40000000000E+01  0.51100000000E-03 0. -1.
    9000002   -1    0    0    0    0 -0.00000000000E+00 -0.00000000000E+00  0.00000000000E+00  0.93800000000E+00  0.93800000000E+00 0. -1.
         11    1    1    2    0    0 -0.37442435539E-01  0.47530398076E-01  0.85757152528E+00  0.85970358660E+00  0.51100000000E-03 0. -1.
    9000002    1    1    2    0    0  0.19651342462E+00 -0.17791333914E+00  0.46819339996E-01  0.97586204604E+00  0.93800000000E+00 0. -1.
         22    1    1    2    0    0 -0.15907098908E+00  0.13038294106E+00  0.30956091021E+01  0.31024343674E+01  0.00000000000E+00 0. -1.
</event>
<event>
 5    1  0.3222854E+002  0.1599643E+01  0.7818608E-02  0.3353751E+00
         11   -1    0    0    0    0  0.00000000000E+00  0.00000000000E+00  0.39999999674E+01  0.40000000000E+01  0.51100000000E-03 0. -1.
    9000002   -1    0    0    0    0 -0.00000000000E+00 -0.00000000000E+00  0.00000000000E+00  0.93800000000E+00  0.93800000000E+00 0.  1.
         11    1    1    2    0    0  0.24196846337E+00 -0.73941166322E-01  0.18091349865E+01  0.18267418246E+01  0.51100000000E-03 0. -1.
    9000002    1    1    2    0    0 -0.49628807923E+00  0.15089434571E+00  0.18481871863E+00  0.10876915555E+01  0.93800000000E+00 0.  1.
         22    1    1    2    0    0  0.25431961587E+00 -0.76953179388E-01  0.20060462623E+01  0.20235666199E+01  0.00000000000E+00 0. -1.
</event>
<event>
 5    1  0.3222854E+002  0.1599675E+01  0.7818608E-02  0.3353716E+00
         11   -1    0    0    0    0  0.00000000000E+00  0.00000000000E+00  0.39999999674E+01  0.40000000000E+01  0.51100000000E-03 0. -1.
    9000002   -1    0    0    0    0 -0.00000000000E+00 -0.00000000000E+00  0.00000000000E+00  0.93800000000E+00  0.93800000000E+00 0.  1.
         11    1    1    2    0    0 -0.64742610996E-02  0.79003461045E-02  0.16710038694E+00  0.16741305792E+00  0.51100000000E-03 0. -1.
    9000002    1    1    2    0    0  0.14586485941E+00 -0.19463544101E+00  0.39280364905E-01  0.96981774534E+00  0.93800000000E+00 0.  1.
         22    1    1    2    0    0 -0.13939059831E+00  0.18673509491E+00  0.37936192155E+01  0.38007691967E+01  0.00000000000E+00 0. -1.
</event>
<event>
 5    1  0.3222854E+002  0.1598637E+01  0.7818608E-02  0.3354844E+00
         11   -1    0    0    0    0  0.00000000000E+00  0.00000000000E+00  0.39999999674E+01  0.40000000000E+01  0.51100000000E-03 0.  1.
    9000002   -1    0    0    0    0 -0.00000000000E+00 -0.00000000000E+00  0.00000000000E+00  0.93800000000E+00  0.93800000000E+00 0.  1.
         11    1    1    2    0    0  0.96294480809E-01  0.53138499516E-01  0.17316743083E+01  0.17351635365E+01  0.51100000000E-03 0.  1.
    9000002    1    1    2    0    0 -0.22480316173E+00 -0.20827755716E+00  0.63507497707E-01  0.98883426549E+00  0.93800000000E+00 0.  1.
         22    1    1    2    0    0  0.12850868092E+00  0.15513905764E+00  0.22048181613E+01  0.22140021980E+01  0.00000000000E+00 0.  1.
</event>
<event>
 5    1  0.3222854E+002  0.1598822E+01  0.7818608E-02  0.3354643E+00
         11   -1    0    0    0    0  0.00000000000E+00  0.00000000000E+00  0.39999999674E+01  0.40000000000E+01  0.51100000000E-03 0.  1.
    9000002   -1    0    0    0    0 -0.00000000000E+00 -0.00000000000E+00  0.00000000000E+00  0.93800000000E+00  0.93800000000E+00 0. -1.
         11    1    1    2    0    0 -0.86049508212E-01  0.51891558236E-01  0.11059144555E+01  0.11104703038E+01  0.51100000000E-03 0.  1.
    9000002    1    1    2    0    0  0.29943014316E+00 -0.72298575961E-01  0.64019344821E-01  0.98935735264E+00  0.93800000000E+00 0. -1.
         22    1    1    2    0    0 -0.21338063495E+00  0.20407017725E-01  0.28300661671E+01  0.28381723436E+01  0.00000000000E+00 0.  1.
</event>
<event>
 5    1  0.3222854E+002  0.1489682E+01  0.7818608E-02  0.3482552E+00
         11   -1    0    0    0    0  0.00000000000E+00  0.00000000000E+00  0.39999999674E+01  0.40000000000E+01  0.51100000000E-03 0.  1.
    9000002   -1    0    0    0    0 -0.00000000000E+00 -0.00000000000E+00  0.00000000000E+00  0.93800000000E+00  0.93800000000E+00 0. -1.
         11    1    1    2    0    0 -0.15712310268E+00  0.13100602975E+00  0.29421375429E+00  0.35834654116E+00  0.51100000000E-03 0.  1.
    9000002    1    1    2    0    0 -0.21418771689E+00  0.36048925813E-01  0.11935975310E+00  0.97018897839E+00  0.93800000000E+00 0. -1.
         22    1    1    2    0    0  0.37131081957E+00 -0.16705495556E+00  0.35864264600E+01  0.36094644805E+01  0.00000000000E+00 0.  1.
</event>
<event>
 5    1  0.3222854E+002  0.1592753E+01  0.7818608E-02  0.3361266E+00
         11   -1    0    0    0    0  0.00000000000E+00  0.00000000000E+00  0.39999999674E+01  0.40000000000E+01  0.51100000000E-03 0. -1.
    9000002   -1    0    0    0    0 -0.00000000000E+00 -0.00000000000E+00  0.00000000000E+00  0.93800000000E+00  0.93800000000E+00 0.  1.
         11    1    1    2    0    0 -0.13027054874E-01  0.15824115444E-01  0.13600596873E+00  0.13754268951E+00  0.51100000000E-03 0. -1.
    9000002    1    1    2    0    0  0.30233341635E-01  0.54204084453E+00  0.20981087709E+00  0.11038962525E+01  0.93800000000E+00 0.  1.
         22    1    1    2    0    0 -0.17206286761E-01 -0.55786495997E+00  0.36541831215E+01  0.36965610580E+01  0.00000000000E+00 0. -1.
</event>
<event>
 5    1  0.3222854E+002  0.1599583E+01  0.7818608E-02  0.3353816E+00
         11   -1    0    0    0    0  0.00000000000E+00  0.00000000000E+00  0.39999999674E+01  0.40000000000E+01  0.51100000000E-03 0. -1.
    9000002   -1    0    0    0    0 -0.00000000000E+00 -0.00000000000E+00  0.00000000000E+00  0.93800000000E+00  0.93800000000E+00 0. -1.
         11    1    1    2    0    0 -0.56600579970E-01 -0.50773743888E-01  0.86556844380E+00  0.86890194541E+00  0.51100000000E-03 0. -1.
    9000002    1    1    2    0    0  0.27420078252E+00  0.18999078142E+00  0.74559855674E-01  0.99834149380E+00  0.93800000000E+00 0. -1.
         22    1    1    2    0    0 -0.21760020255E+00 -0.13921703753E+00  0.30598716679E+01  0.30707565608E+01  0.00000000000E+00 0. -1.
</event>
<event>
 5    1  0.3222854E+002  0.1564790E+01  0.7818608E-02  0.3392489E+00
         11   -1    0    0    0    0  0.00000000000E+00  0.00000000000E+00  0.39999999674E+01  0.40000000000E+01  0.51100000000E-03 0. -1.
    9000002   -1    0    0    0    0 -0.00000000000E+00 -0.00000000000E+00  0.00000000000E+00  0.93800000000E+00  0.93800000000E+00 0. -1.
         11    1    1    2    0    0 -0.82258001339E-01  0.30152149289E+00  0.27077162629E+01  0.27256942622E+01  0.51100000000E-03 0. -1.
    9000002    1    1    2    0    0 -0.16975695176E+00 -0.36604347905E+00  0.13956328048E+00  0.10305955368E+01  0.93800000000E+00 0. -1.
         22    1    1    2    0    0  0.25201495310E+00  0.64521986158E-01  0.11527204240E+01  0.11817102010E+01  0.00000000000E+00 0. -1.
</event>
<event>
 5    1  0.3222854E+002  0.1568496E+01  0.7818608E-02  0.3388283E+00
         11   -1    0    0    0    0  0.00000000000E+00  0.00000000000E+00  0.39999999674E+01  0.40000000000E+01  0.51100000000E-03 0. -1.
    9000002   -1    0    0    0    0 -0.00000000000E+00 -0.00000000000E+00  0.00000000000E+00  0.93800000000E+00  0.93800000000E+00 0. -1.
         11    1    1    2    0    0  0.12747016943E+00  0.11888153544E+00  0.19612131821E+01  0.19689435925E+01  0.51100000000E-03 0. -1.
    9000002    1    1    2    0    0 -0.50701919237E-01  0.13606744009E+00  0.37266450652E-01  0.94990411159E+00  0.93800000000E+00 0. -1.
         22    1    1    2    0    0 -0.76768250190E-01 -0.25494897553E+00  0.20015203346E+01  0.20191522960E+01  0.00000000000E+00 0. -1.
</event>
<event>
 5    1  0.3222854E+002  0.1500683E+01  0.7818608E-02  0.3468755E+00
         11   -1    0    0    0    0  0.00000000000E+00  0.00000000000E+00  0.39999999674E+01  0.40000000000E+01  0.51100000000E-03 0. -1.
    9000002   -1    0    0    0    0 -0.00000000000E+00 -0.00000000000E+00  0.00000000000E+00  0.93800000000E+00  0.93800000000E+00 0.  1.
         11    1    1    2    0    0  0.37267786715E+00 -0.88212576262E-01  0.15532681300E+01  0.15997851094E+01  0.51100000000E-03 0. -1.
    9000002    1    1    2    0    0 -0.10903472856E+00 -0.20888737936E+00  0.11622709361E+00  0.97410227727E+00  0.93800000000E+00 0.  1.
         22    1    1    2    0    0 -0.26364313859E+00  0.29709995562E+00  0.23305047437E+01  0.23641126133E+01  0.00000000000E+00 0. -1.
</event>
<event>
 5    1  0.3222854E+002  0.1599676E+01  0.7818608E-02  0.3353715E+00
         11   -1    0    0    0    0  0.00000000000E+00  0.00000000000E+00  0.39999999674E+01  0.40000000000E+01  0.51100000000E-03 0. -1.
    9000002   -1    0    0    0    0 -0.00000000000E+00 -0.00000000000E+00  0.00000000000E+00  0.93800000000E+00  0.93800000000E+00 0.  1.
         11    1    1    2    0    0 -0.57197405232E-01 -0.81373317517E-01  0.11116497665E+01  0.11160907778E+01  0.51100000000E-03 0. -1.
    9000002    1    1    2    0    0  0.20509284087E+00  0.28634716635E+00  0.83203182468E-01  0.10053977037E+01  0.93800000000E+00 0.  1.
         22    1    1    2    0    0 -0.14789543564E+00 -0.20497384884E+00  0.28051470184E+01  0.28165115184E+01  0.00000000000E+00 0. -1.
</event>
<event>
 5    1  0.3222854E+002  0.1597835E+01  0.7818608E-02  0.3355716E+00
         11   -1    0    0    0    0  0.00000000000E+00  0.00000000000E+00  0.39999999674E+01  0.40000000000E+01  0.51100000000E-03 0.  1.
    9000002   -1    0    0    0    0 -0.00000000000E+00 -0.00000000000E+00  0.00000000000E+00  0.93800000000E+00  0.93800000000E+00 0. -1.
         11    1    1    2    0    0  0.24922761498E-01 -0.23116824779E-01  0.20123273187E+00  0.20408430886E+00  0.51100000000E-03 0.  1.
    9000002    1    1    2    0    0 -0.10506987403E+00  0.22465758669E+00  0.42262134945E-01  0.97115436349E+00  0.93800000000E+00 0. -1.
         22    1    1    2    0    0  0.80147112534E-01 -0.20154076191E+00  0.37565051005E+01  0.37627613276E+01  0.00000000000E+00 0.  1.
</event>
<event>
 5    1  0.3222854E+002  0.1599626E+01  0.7818608E-02  0.3353769E+00
         11   -1    0    0    0    0  0.00000000000E+00  0.00000000000E+00  0.39999999674E+01  0.40000000000E+01  0.51100000000E-03 0.  1.
    9000002   -1    0    0    0    0 -0.00000000000E+00 -0.00000000000E+00  0.00000000000E+00  0.93800000000E+00  0.93800000000E+00 0. -1.
         11    1    1    2    0    0 -0.42129381308E-01 -0.45454345221E-01  0.78111981640E+00  0.78357476412E+00  0.51100000000E-03 0.  1.
    9000002    1    1    2    0    0  0.17897066213E+00  0.23741538729E+00  0.58995601055E-01  0.98575912117E+00  0.93800000000E+00 0. -1.
         22    1    1    2    0    0 -0.13684128082E+00 -0.19196104207E+00  0.31598845499E+01  0.31686661147E+01  0.00000000000E+00 0.  1.
</event>
<event>
 5    1  0.3222854E+002  0.1599677E+01  0.7818608E-02  0.3353714E+00
         11   -1    0    0    0    0  0.00000000000E+00  0.00000000000E+00  0.39999999674E+01  0.40000000000E+01  0.51100000000E-03 0. -1.
    9000002   -1    0    0    0    0 -0.00000000000E+00 -0.00000000000E+00  0.00000000000E+00  0.93800000000E+00  0.93800000000E+00 0.  1.
         11    1    1    2    0    0 -0.74858337073E-01 -0.37469454252E+00  0.24048269786E+01  0.24349933941E+01  0.51100000000E-03 0. -1.
    9000002    1    1    2    0    0  0.11762196213E+00  0.58444567477E+00  0.24776814190E+00  0.11387030890E+01  0.93800000000E+00 0.  1.
         22    1    1    2    0    0 -0.42763625058E-01 -0.20975113226E+00  0.13474048468E+01  0.13643035169E+01  0.00000000000E+00 0.  1.
</event>
<event>
 5    1  0.3222854E+002  0.1599618E+01  0.7818608E-02  0.3353778E+00
         11   -1    0    0    0    0  0.00000000000E+00  0.00000000000E+00  0.39999999674E+01  0.40000000000E+01  0.51100000000E-03 0. -1.
    9000002   -1    0    0    0    0 -0.00000000000E+00 -0.00000000000E+00  0.00000000000E+00  0.93800000000E+00  0.93800000000E+00 0.  1.
         11    1    1    2    0    0 -0.14493551821E+00  0.78658270775E-01  0.16390493160E+01  0.16473239965E+01  0.51100000000E-03 0. -1.
    9000002    1    1    2    0    0  0.33331688882E+00 -0.16925086050E+00  0.94005486036E-01  0.10141139155E+01  0.93800000000E+00 0.  1.
         22    1    1    2    0    0 -0.18838137062E+00  0.90592589725E-01  0.22669451653E+01  0.22765620881E+01  0.00000000000E+00 0. -1.
</event>
<event>
 5    1  0.3222854E+002  0.1599673E+01  0.7818608E-02  0.3353718E+00
         11   -1    0    0    0    0  0.00000000000E+00  0.00000000000E+00  0.39999999674E+01  0.40000000000E+01  0.51100000000E-03 0.  1.
    9000002   -1    0    0    0    0 -0.00000000000E+00 -0.00000000000E+00  0.00000000000E+00  0.93800000000E+00  0.93800000000E+00 0.  1.
         11    1    1    2    0    0  0.88276403839E-03 -0.34052423150E-01  0.44403459145E+00  0.44533956294E+00  0.51100000000E-03 0.  1.
    9000002    1    1    2    0    0 -0.20414011809E-01  0.30218119957E+00  0.61213701314E-01  0.98758357949E+00  0.93800000000E+00 0.  1.
         22    1    1    2    0    0  0.19531247771E-01 -0.26812877642E+00  0.34947516746E+01  0.35050768576E+01  0.00000000000E+00 0.  1.
</event>
<event>
 5    1  0.3222854E+002  0.1598977E+01  0.7818608E-02  0.3354474E+00
         11   -1    0    0    0    0  0.00000000000E+00  0.00000000000E+00  0.39999999674E+01  0.40000000000E+01  0.51100000000E-03 0.  1.
    9000002   -1    0    0    0    0 -0.00000000000E+00 -0.00000000000E+00  0.00000000000E+00  0.93800000000E+00  0.93800000000E+00 0.  1.
         11    1    1    2    0    0  0.49462193822E-04  0.32087673880E-01  0.31585264027E+00  0.31747877527E+00  0.51100000000E-03 0.  1.
    9000002    1    1    2    0    0  0.20843899824E+00 -0.43074934606E+00  0.15682751579E+00  0.10646270168E+01  0.93800000000E+00 0.  1.
         22    1    1    2    0    0 -0.20848846043E+00  0.39866167218E+00  0.35273198113E+01  0.35558942080E+01  0.00000000000E+00 0. -1.
</event>
<event>
 5    1  0.3222854E+002  0.1569616E+01  0.7818608E-02  0.3387016E+00
         11   -1    0    0    0    0  0.00000000000E+00  0.00000000000E+00  0.39999999674E+01  0.40000000000E+01  0.51100000000E-03 0.  1.
    9000002   -1    0    0    0    0 -0.00000000000E+00 -0.00000000000E+00  0.00000000000E+00  0.93800000000E+00  0.93800000000E+00 0. -1.
         11    1    1    2    0    0  0.12016918483E+00 -0.19207807861E+00  0.15832585225E+01  0.15993881429E+01  0.51100000000E-03 0.  1.
    9000002    1    1    2    0    0 -0.15355364439E+00 -0.93726344466E-02  0.38176714280E-01  0.95129807605E+00  0.93800000000E+00 0. -1.
         22    1    1    2    0    0  0.33384459563E-01  0.20145071305E+00  0.23785647305E+01  0.23873137811E+01  0.00000000000E+00 0. -1.
</event>
<event>
 5    1  0.3222854E+002  0.1599261E+01  0.7818608E-02  0.3354166E+00
         11   -1    0    0    0    0  0.00000000000E+00  0.00000000000E+00  0.39999999674E+01  0.40000000000E+01  0.51100000000E-03 0.  1.
    9000002   -1    0    0    0    0 -0.00000000000E+00 -0.00000000000E+00  0.00000000000E+00  0.93800000000E+00  0.93800000000E+00 0. -1.
         11    1    1    2    0    0 -0.78284823151E-01 -0.13757767915E-01  0.11446701615E+01  0.11474266118E+01  0.51100000000E-03 0.  1.
    9000002    1    1    2    0    0  0.33562464269E+00  0.10361270341E-01  0.75817323736E-01  0.99917141837E+00  0.93800000000E+00 0. -1.
         22    1    1    2    0    0 -0.25733981954E+00  0.33964975737E-02  0.27795124821E+01  0.27914019698E+01  0.00000000000E+00 0.  1.
</event>
<event>
 5    1  0.3222854E+002  0.1599604E+01  0.7818608E-02  0.3353793E+00
         11   -1    0    0    0    0  0.00000000000E+00  0.00000000000E+00  0.39999999674E+01  0.40000000000E+01  0.51100000000E-03 0. -1.
    9000002   -1    0    0    0    0 -0.00000000000E+00 -0.00000000000E+00  0.00000000000E+00  0.93800000000E+00  0.93800000000E+00 0. -1.
         11    1    1    2    0    0  0.18576179888E+00  0.10497437925E+00  0.15194757152E+01  0.15343838426E+01  0.51100000000E-03 0. -1.
    9000002    1    1    2    0    0 -0.48668107145E+00 -0.25164927293E+00  0.20732458331E+00  0.11058993194E+01  0.93800000000E+00 0. -1.
         22    1    1    2    0    0  0.30091927257E+00  0.14667489368E+00  0.22731996689E+01  0.22977168380E+01  0.00000000000E+00 0. -1.
</event>
<event>
 5    1  0.3222854E+002  0.1159705E+01  0.7818608E-02  0.4091364E+00
         11   -1    0    0    0    0  0.00000000000E+00  0.00000000000E+00  0.39999999674E+01  0.40000000000E+01  0.51100000000E-03 0. -1.
    9000002   -1    0    0    0    0 -0.00000000000E+00 -0.00000000000E+00  0.00000000000E+00  0.93800000000E+00  0.93800000000E+00 0. -1.
         11    1    1    2    0    0 -0.47917000126E+00  0.52368467197E+00  0.93621380256E+00  0.11748813008E+01  0.51100000000E-03 0. -1.
    9000002    1    1    2    0    0 -0.14627631721E+00 -0.88890462930E-01  0.47629048119E+00  0.10658306140E+01  0.93800000000E+00 0. -1.
         22    1    1    2    0    0  0.62544631847E+00 -0.43479420904E+00  0.25874956836E+01  0.26972880851E+01  0.00000000000E+00 0. -1.
</event>
<event>
 5    1  0.3222854E+002  0.1599404E+01  0.7818608E-02  0.3354011E+00
         11   -1    0    0    0    0  0.00000000000E+00  0.00000000000E+00  0.39999999674E+01  0.40000000000E+01  0.51100000000E-03 0.  1.
    9000002   -1    0    0    0    0 -0.00000000000E+00 -0.00000000000E+00  0.00000000000E+00  0.93800000000E+00  0.93800000000E+00 0.  1.
         11    1    1    2    0    0 -0.65867000971E-01  0.46879057069E-02  0.61630129008E+00  0.61982899219E+00  0.51100000000E-03 0.  1.
    9000002    1    1    2    0    0  0.44827836554E+00 -0.11311028556E+00  0.14568082659E+00  0.10558476845E+01  0.93800000000E+00 0.  1.
         22    1    1    2    0    0 -0.38241136457E+00  0.10842237985E+00  0.32380178507E+01  0.32623233233E+01  0.00000000000E+00 0.  1.
</event>
<event>
 5    1  0.3222854E+002  0.1205927E+01  0.7818608E-02  0.3979408E+00
         11   -1    0    0    0    0  0.00000000000E+00  0.00000000000E+00  0.39999999674E+01  0.40000000000E+01  0.51100000000E-03 0. -1.
    9000002   -1    0    0    0    0 -0.00000000000E+00 -0.00000000000E+00  0.00000000000E+00  0.93800000000E+00  0.93800000000E+00 0. -1.
         11    1    1    2    0    0 -0.60910101748E+00  0.25568018786E-01  0.10484269037E+01  0.12127889374E+01  0.51100000000E-03 0. -1.
    9000002    1    1    2    0    0 -0.25970343445E+00  0.29358781915E+00  0.55968613118E+00  0.11604879348E+01  0.93800000000E+00 0. -1.
         22    1    1    2    0    0  0.86880445193E+00 -0.31915583793E+00  0.23918869325E+01  0.25647231278E+01  0.00000000000E+00 0. -1.
</event>
<event>
 5    1  0.3222854E+002  0.1599677E+01  0.7818608E-02  0.3353714E+00
         11   -1    0    0    0    0  0.00000000000E+00  0.00000000000E+00  0.39999999674E+01  0.40000000000E+01  0.51100000000E-03 0.  1.
    9000002   -1    0    0    0    0 -0.00000000000E+00 -0.00000000000E+00  0.00000000000E+00  0.93800000000E+00  0.93800000000E+00 0. -1.
         11    1    1    2    0    0 -0.20655059768E+00  0.11405112471E+00  0.10875206256E+01  0.11128217201E+01  0.51100000000E-03 0.  1.
    9000002    1    1    2    0    0  0.67682852789E+00 -0.37286253715E+00  0.43593382633E+00  0.12911257215E+01  0.93800000000E+00 0. -1.
         22    1    1    2    0    0 -0.47027793021E+00  0.25881141245E+00  0.24765455154E+01  0.25340525584E+01  0.00000000000E+00 0.  1.
</event>
<event>
 5    1  0.3222854E+002  0.1599676E+01  0.7818608E-02  0.3353715E+00
         11   -1    0    0    0    0  0.00000000000E+00  0.00000000000E+00  0.39999999674E+01  0.40000000000E+01  0.51100000000E-03 0. -1.
    9000002   -1    0    0    0    0 -0.00000000000E+00 -0.00000000000E+00  0.00000000000E+00  0.93800000000E+00  0.93800000000E+00 0. -1.
         11    1    1    2    0    0 -0.15679531435E-01  0.71659356537E-01  0.85964299686E+00  0.86276720745E+00  0.51100000000E-03 0. -1.
    9000002    1    1    2    0    0  0.67028262295E-01 -0.32904232559E+00  0.75493203190E-01  0.99915207236E+00  0.93800000000E+00 0. -1.
         22    1    1    2    0    0 -0.51348730860E-01  0.25738296906E+00  0.30648637673E+01  0.30760807202E+01  0.00000000000E+00 0. -1.
</event>
<event>
 5    1  0.3222854E+002  0.1599676E+01  0.7818608E-02  0.3353715E+00
         11   -1    0    0    0    0  0.00000000000E+00  0.00000000000E+00  0.39999999674E+01  0.40000000000E+01  0.51100000000E-03 0. -1.
    9000002   -1    0    0    0    0 -0.00000000000E+00 -0.00000000000E+00  0.00000000000E+00  0.93800000000E+00  0.93800000000E+00 0.  1.
         11    1    1    2    0    0  0.23997646935E-01  0.58573188564E-01  0.89999762494E+00  0.90222097708E+00  0.51100000000E-03 0. -1.
    9000002    1    1    2    0    0 -0.10137978948E+00 -0.25782125396E+00  0.51096492317E-01  0.97938986733E+00  0.93800000000E+00 0.  1.
         22    1    1    2    0    0  0.77382142547E-01  0.19924806540E+00  0.30489058501E+01  0.30563891556E+01  0.00000000000E+00 0. -1.
</event>
<event>
 5    1  0.3222854E+002  0.1599155E+01  0.7818608E-02  0.3354281E+00
         11   -1    0    0    0    0  0.00000000000E+00  0.00000000000E+00  0.39999999674E+01  0.40000000000E+01  0.51100000000E-03 0. -1.
    9000002   -1    0    0    0    0 -0.00000000000E+00 -0.00000000000E+00  0.00000000000E+00  0.93800000000E+00  0.93800000000E+00 0.  1.
         11    1    1    2    0    0 -0.90164269848E-02 -0.18423930930E+00  0.16491806522E+01  0.16594645232E+01  0.51100000000E-03 0. -1.
    9000002    1    1    2    0    0  0.47378442869E-01  0.48660538690E+00  0.16379470106E+00  0.10703748052E+01  0.93800000000E+00 0.  1.
         22    1    1    2    0    0 -0.38362015885E-01 -0.30236607760E+00  0.21870246141E+01  0.22081606717E+01  0.00000000000E+00 0. -1.
</event>
<event>
 5    1  0.3222854E+002  0.1527133E+01  0.7818608E-02  0.3436458E+00
         11   -1    0    0    0    0  0.00000000000E+00  0.00000000000E+00  0.39999999674E+01  0.40000000000E+01  0.51100000000E-03 0. -1.
    9000002   -1    0    0    0    0 -0.00000000000E+00 -0.00000000000E+00  0.00000000000E+00  0.93800000000E+00  0.93800000000E+00 0. -1.
         11    1    1    2    0    0  0.11381189553E+00  0.14546227532E+00  0.35169334165E+00  0.39724160002E+00  0.51100000000E-03 0. -1.
    9000002    1    1    2    0    0  0.25594951267E+00 -0.14907092802E+00  0.11750720604E+00  0.99064839277E+00  0.93800000000E+00 0. -1.
         22    1    1    2    0    0 -0.36976140820E+00  0.36086526965E-02  0.35307994197E+01  0.35501100072E+01  0.00000000000E+00 0. -1.
</event>
<event>
 5    1  0.3222854E+002  0.1582536E+01  0.7818608E-02  0.3372539E+00
         11   -1    0    0    0    0  0.00000000000E+00  0.00000000000E+00  0.39999999674E+01  0.40000000000E+01  0.51100000000E-03 0. -1.
    9000002   -1    0    0    0    0 -0.00000000000E+00 -0.00000000000E+00  0.00000000000E+00  0.93800000000E+00  0.93800000000E+00 0. -1.
         11    1    1    2    0    0 -0.36022598104E-01 -0.15085971790E-02  0.56059293631E-01  0.66654399427E-01  0.51100000000E-03 0. -1.
    9000002    1    1    2    0    0 -0.16854229511E+00 -0.24072572106E+00  0.71071877542E-01  0.98552046645E+00  0.93800000000E+00 0. -1.
         22    1    1    2    0    0  0.20456489322E+00  0.24223431824E+00  0.38728687962E+01  0.38858251341E+01  0.00000000000E+00 0. -1.
</event>
<event>
 5    1  0.3222854E+002  0.1599668E+01  0.7818608E-02  0.3353724E+00
         11   -1    0    0    0    0  0.00000000000E+00  0.00000000000E+00  0.39999999674E+01  0.40000000000E+01  0.51100000000E-03 0.  1.
    9000002   -1    0    0    0    0 -0.00000000000E+00 -0.00000000000E+00  0.00000000000E+00  0.93800000000E+00  0.93800000000E+00 0. -1.
         11    1    1    2    0    0 -0.68954261613E-01  0.27129063454E+00  0.20252149612E+01  0.20444679500E+01  0.51100000000E-03 0.  1.
    9000002    1    1    2    0    0  0.12908037014E+00 -0.51663656093E+00  0.19523874862E+00  0.10961465445E+01  0.93800000000E+00 0. -1.
         22    1    1    2    0    0 -0.60126108526E-01  0.24534592639E+00  0.17795462576E+01  0.17973855055E+01  0.00000000000E+00 0.  1.
</event>
<event>
 5    1  0.3222854E+002  0.1596915E+01  0.7818608E-02  0.3356719E+00
         11   -1    0    0    0    0  0.00000000000E+00  0.00000000000E+00  0.39999999674E+01  0.40000000000E+01  0.51100000000E-03 0.  1.
    9000002   -1    0    0    0    0 -0.00000000000E+00 -0.00000000000E+00  0.00000000000E+00  0.93800000000E+00  0.93800000000E+00 0.  1.
         11    1    1    2    0    0 -0.89848959443E-01 -0.77533433709E-02  0.10790311684E+01  0.10827933659E+01  0.51100000000E-03 0.  1.
    9000002    1    1    2    0    0  0.23572887865E+00 -0.15572262099E+00  0.55309270945E-01  0.98118334391E+00  0.93800000000E+00 0.  1.
         22    1    1    2    0    0 -0.14587991920E+00  0.16347596436E+00  0.28656595280E+01  0.28740232902E+01  0.00000000000E+00 0.  1.
</event>
<event>
 5    1  0.3222854E+002  0.1599618E+01  0.7818608E-02  0.3353778E+00
         11   -1    0    0    0    0  0.00000000000E+00  0.00000000000E+00  0.39999999674E+01  0.40000000000E+01  0.51100000000E-03 0.  1.
    9000002   -1    0    0    0    0 -0.00000000000E+00 -0.00000000000E+00  0.00000000000E+00  0.93800000000E+00  0.93800000000E+00 0.  1.
         11    1    1    2    0    0  0.45366178310E-01 -0.18068645028E-01  0.65700097570E+00  0.65881341005E+00  0.51100000000E-03 0.  1.
    9000002    1    1    2    0    0 -0.27559575999E+00  0.67303841930E-01  0.53657890013E-01  0.98143058808E+00  0.93800000000E+00 0.  1.
         22    1    1    2    0    0  0.23022958168E+00 -0.49235196901E-01  0.32893411016E+01  0.32977560019E+01  0.00000000000E+00 0.  1.
</event>
<event>
 5    1  0.3222854E+002  0.1590921E+01  0.7818608E-02  0.3363277E+00
         11   -1    0    0    0    0  0.00000000000E+00  0.00000000000E+00  0.39999999674E+01  0.40000000000E+01  0.51100000000E-03 0. -1.
    9000002   -1    0    0    0    0 -0.00000000000E+00 -0.00000000000E+00  0.00000000000E+00  0.93800000000E+00  0.93800000000E+00 0. -1.
         11    1    1    2    0    0  0.35182809694E-01 -0.17984855725E+00  0.10976273257E+01  0.11128204442E+01  0.51100000000E-03 0. -1.
    9000002    1    1    2    0    0 -0.22439805414E+00  0.29205210541E+00  0.98309465800E-01  0.10125007013E+01  0.93800000000E+00 0. -1.
         22    1    1    2    0    0  0.18921524445E+00 -0.11220354816E+00  0.28040631758E+01  0.28126788546E+01  0.00000000000E+00 0. -1.
</event>
<event>
 5    1  0.3222854E+002  0.1504553E+01  0.7818608E-02  0.3463953E+00
         11   -1    0    0    0    0  0.00000000000E+00  0.00000000000E+00  0.39999999674E+01  0.40000000000E+01  0.51100000000E-03 0. -1.
    9000002   -1    0    0    0    0 -0.00000000000E+00 -0.00000000000E+00  0.00000000000E+00  0.93800000000E+00  0.93800000000E+00 0.  1.
         11    1    1    2    0    0 -0.21002540059E+00  0.76459098676E-01  0.37809924302E+00  0.43922199553E+00  0.51100000000E-03 0. -1.
    9000002    1    1    2    0    0  0.16680814918E-01  0.10649229570E+00  0.80731119807E-01  0.94761826298E+00  0.93800000000E+00 0.  1.
         22    1    1    2    0    0  0.19334458567E+00 -0.18295139438E+00  0.35411696045E+01  0.35511597415E+01  0.00000000000E+00 0. -1.
</event>
<event>
 5    1  0.3222854E+002  0.1594499E+01  0.7818608E-02  0.3359355E+00
         11   -1    0    0    0    0  0.00000000000E+00  0.00000000000E+00  0.39999999674E+01  0.40000000000E+01  0.51100000000E-03 0.  1.
    9000002   -1    0    0    0    0 -0.00000000000E+00 -0.00000000000E+00  0.00000000000E+00  0.93800000000E+00  0.93800000000E+00 0. -1.
         11    1    1    2    0    0 -0.11512676081E-01  0.17115776636E-01  0.51499541208E+00  0.51540860209E+00  0.51100000000E-03 0.  1.
    9000002    1    1    2    0    0 -0.14499016370E+00  0.25011478809E+00  0.59742231597E-01  0.98335786417E+00  0.93800000000E+00 0. -1.
         22    1    1    2    0    0  0.15650283978E+00 -0.26723056472E+00  0.34252623237E+01  0.34392335337E+01  0.00000000000E+00 0.  1.
</event>
<event>
 5    1  0.3222854E+002  0.1599548E+01  0.7818608E-02  0.3353854E+00
         11   -1    0    0    0    0  0.00000000000E+00  0.00000000000E+00  0.39999999674E+01  0.40000000000E+01  0.51100000000E-03 0. -1.
    9000002   -1    0    0    0    0 -0.00000000000E+00 -0.00000000000E+00  0.00000000000E+00  0.93800000000E+00  0.93800000000E+00 0.  1.
         11    1    1    2    0    0  0.17048228575E-01  0.20012567982E-01  0.44241919961E+00  0.44319990329E+00  0.51100000000E-03 0. -1.
    9000002    1    1    2    0    0 -0.22896398362E+00 -0.17896084732E+00  0.56390943853E-01  0.98360328854E+00  0.93800000000E+00 0.  1.
         22    1    1    2    0    0  0.21191575505E+00  0.15894827934E+00  0.35011898239E+01  0.35111968082E+01  0.00000000000E+00 0. -1.
</event>
<event>
 5    1  0.3222854E+002  0.1599425E+01  0.7818608E-02  0.3353987E+00
         11   -1    0    0    0    0  0.00000000000E+00  0.00000000000E+00  0.39999999674E+01  0.40000000000E+01  0.51100000000E-03 0.  1.
    9000002   -1    0    0    0    0 -0.00000000000E+00 -0.00000000000E+00  0.00000000000E+00  0.93800000000E+00  0.93800000000E+00 0.  1.
         11    1    1    2    0    0  0.10728818750E+00  0.22846571502E+00  0.16092846183E+01  0.16289581278E+01  0.51100000000E-03 0.  1.
    9000002    1    1    2    0    0 -0.23380338059E+00 -0.49745987872E+00  0.20890597113E+00  0.11070754520E+01  0.93800000000E+00 0.  1.
         22    1    1    2    0    0  0.12651519309E+00  0.26899416370E+00  0.21818093779E+01  0.22019664202E+01  0.00000000000E+00 0.  1.
</event>
<event>
 5    1  0.3222854E+002  0.1599516E+01  0.7818608E-02  0.3353889E+00
         11   -1    0    0    0    0  0.00000000000E+00  0.00000000000E+00  0.39999999674E+01  0.40000000000E+01  0.51100000000E-03 0. -1.
    9000002   -1    0    0    0    0 -0.00000000000E+00 -0.00000000000E+00  0.00000000000E+00  0.93800000000E+00  0.93800000000E+00 0. -1.
         11    1    1    2    0    0 -0.15736161092E+00  0.20014597588E-01  0.15369983220E+01  0.15451625686E+01  0.51100000000E-03 0. -1.
    9000002    1    1    2    0    0  0.37324055901E+00 -0.78177653894E-01  0.97992719953E-01  0.10172840477E+01  0.93800000000E+00 0. -1.
         22    1    1    2    0    0 -0.21587894809E+00  0.58163056306E-01  0.23650089254E+01  0.23755533837E+01  0.00000000000E+00 0. -1.
</event>
<event>
 5    1  0.3222854E+002  0.1599677E+01  0.7818608E-02  0.3353714E+00
         11   -1    0    0    0    0  0.00000000000E+00  0.00000000000E+00  0.39999999674E+01  0.40000000000E+01  0.51100000000E-03 0. -1.
    9000002   -1    0    0    0    0 -0.00000000000E+00 -0.00000000000E+00  0.00000000000E+00  0.93800000000E+00  0.93800000000E+00 0. -1.
         11    1    1    2    0    0 -0.10651055893E+00  0.21393588727E+00  0.12815271351E+01  0.13036200068E+01  0.51100000000E-03 0.  1.
    9000002    1    1    2    0    0  0.30637563625E+00 -0.61105016932E+00  0.33248435021E+00  0.12073268750E+01  0.93800000000E+00 0. -1.
         22    1    1    2    0    0 -0.19986507732E+00  0.39711428205E+00  0.23859884820E+01  0.24270531182E+01  0.00000000000E+00 0. -1.
</event>
<event>
 5    1  0.3222854E+002  0.1599664E+01  0.7818608E-02  0.3353728E+00
         11   -1    0    0    0    0  0.00000000000E+00  0.00000000000E+00  0.39999999674E+01  0.40000000000E+01  0.51100000000E-03 0.  1.
    9000002   -1    0    0    0    0 -0.00000000000E+00 -0.00000000000E+00  0.00000000000E+00  0.93800000000E+00  0.93800000000E+00 0.  1.
         11    1    1    2    0    0  0.32591089789E-02  0.37497935288E-02  0.61880000077E-01  0.62081223195E-01  0.51100000000E-03 0.  1.
    9000002    1    1    2    0    0 -0.25961556986E+00 -0.26479363176E+00  0.92435548204E-01  0.10128693115E+01  0.93800000000E+00 0.  1.
         22    1    1    2    0    0  0.25635646088E+00  0.26104383823E+00  0.38456844191E+01  0.38630494653E+01  0.00000000000E+00 0.  1.
</event>
<event>
 5    1  0.3222854E+002  0.1598054E+01  0.7818608E-02  0.3355478E+00
         11   -1    0    0    0    0  0.00000000000E+00  0.00000000000E+00  0.39999999674E+01  0.40000000000E+01  0.51100000000E-03 0. -1.
    9000002   -1    0    0    0    0 -0.00000000000E+00 -0.00000000000E+00  0.00000000000E+00  0.93800000000E+00  0.93800000000E+00 0. -1.
         11    1    1    2    0    0 -0.42611490877E-02  0.37759728330E-02  0.13429730279E+00  0.13441890499E+00  0.51100000000E-03 0. -1.
    9000002    1    1    2    0    0 -0.37568408259E+00 -0.22380696712E+00  0.13102920064E+00  0.10431877779E+01  0.93800000000E+00 0. -1.
         22    1    1    2    0    0  0.37994523168E+00  0.22003099429E+00  0.37346734639E+01  0.37603933172E+01  0.00000000000E+00 0. -1.
</event>
<event>
 5    1  0.3222854E+002  0.1599676E+01  0.7818608E-02  0.3353715E+00
         11   -1    0    0    0    0  0.00000000000E+00  0.00000000000E+00  0.39999999674E+01  0.40000000000E+01  0.51100000000E-03 0.  1.
    9000002   -1    0    0    0    0 -0.00000000000E+00 -0.00000000000E+00  0.00000000000E+00  0.93800000000E+00  0.93800000000E+00 0.  1.
         11    1    1    2    0    0  0.17197045011E-01  0.32847201351E-02  0.26278715197E+00  0.26337022631E+00  0.51100000000E-03 0.  1.
    9000002    1    1    2    0    0 -0.25648396129E+00 -0.52799376465E-01  0.45594590813E-01  0.97493315836E+00  0.93800000000E+00 0.  1.
         22    1    1    2    0    0  0.23928691628E+00  0.49514656330E-01  0.36916182246E+01  0.36996966153E+01  0.00000000000E+00 0.  1.
</event>
<event>
 5    1  0.3222854E+002  0.1596797E+01  0.7818608E-02  0.3356847E+00
         11   -1    0    0    0    0  0.00000000000E+00  0.00000000000E+00  0.39999999674E+01  0.40000000000E+01  0.51100000000E-03 0. -1.
    9000002   -1    0    0    0    0 -0.00000000000E+00 -0.00000000000E+00  0.00000000000E+00  0.93800000000E+00  0.93800000000E+00 0. -1.
         11    1    1    2    0    0  0.33665326948E-01 -0.22817255677E-01  0.23710420258E+00  0.24056734067E+00  0.51100000000E-03 0. -1.
    9000002    1    1    2    0    0 -0.63799477289E-01  0.25347842730E+00  0.47641227202E-01  0.97490275050E+00  0.93800000000E+00 0. -1.
         22    1    1    2    0    0  0.30134150340E-01 -0.23066117162E+00  0.37152545376E+01  0.37225299088E+01  0.00000000000E+00 0. -1.
</event>
<event>
 5    1  0.3222854E+002  0.1595887E+01  0.7818608E-02  0.3357840E+00
         11   -1    0    0    0    0  0.00000000000E+00  0.00000000000E+00  0.39999999674E+01  0.40000000000E+01  0.51100000000E-03 0. -1.
    9000002   -1    0    0    0    0 -0.00000000000E+00 -0.00000000000E+00  0.00000000000E+00  0.93800000000E+00  0.93800000000E+00 0. -1.
         11    1    1    2    0    0  0.12682898717E-01  0.10574841736E-01  0.57695757508E-01  0.60014537847E-01  0.51100000000E-03 0. -1.
    9000002    1    1    2    0    0 -0.65237040683E-01  0.19893947241E+00  0.31890076159E-01  0.96160998441E+00  0.93800000000E+00 0. -1.
         22    1    1    2    0    0  0.52554141966E-01 -0.20951431415E+00  0.39104141337E+01  0.39163754777E+01  0.00000000000E+00 0. -1.
</event>
<event>
 5    1  0.3222854E+002  0.1599677E+01  0.7818608E-02  0.3353714E+00
         11   -1    0    0    0    0  0.00000000000E+00  0.00000000000E+00  0.39999999674E+01  0.40000000000E+01  0.51100000000E-03 0.  1.
    9000002   -1    0    0    0    0 -0.00000000000E+00 -0.00000000000E+00  0.00000000000E+00  0.93800000000E+00  0.93800000000E+00 0. -1.
         11    1    1    2    0    0 -0.89629081123E-01  0.47333819613E+00  0.24269574453E+01  0.24743090192E+01  0.51100000000E-03 0.  1.
    9000002    1    1    2    0    0  0.13277924273E+00 -0.70755148633E+00  0.37242181849E+00  0.12396779598E+01  0.93800000000E+00 0. -1.
         22    1    1    2    0    0 -0.43150161610E-01  0.23421329020E+00  0.12006207036E+01  0.12240130210E+01  0.00000000000E+00 0. -1.
</event>
<event>
 5    1  0.3222854E+002  0.1599414E+01  0.7818608E-02  0.3354000E+00
         11   -1    0    0    0    0  0.00000000000E+00  0.00000000000E+00  0.39999999674E+01  0.40000000000E+01  0.51100000000E-03 0.  1.
    9000002   -1    0    0    0    0 -0.00000000000E+00 -0.00000000000E+00  0.00000000000E+00  0.93800000000E+00  0.93800000000E+00 0. -1.
         11    1    1    2    0    0 -0.43495067965E-02 -0.29171247351E-02  0.54164149188E-01  0.54419151081E-01  0.51100000000E-03 0.  1.
    9000002    1    1    2    0    0  0.29702898077E+00 -0.11605837523E+00  0.68174100604E-01  0.99306972055E+00  0.93800000000E+00 0. -1.
         22    1    1    2    0    0 -0.29267947398E+00  0.11897549996E+00  0.38776617176E+01  0.38905111284E+01  0.00000000000E+00 0.  1.
</event>
<event>
 5    1  0.3222854E+002  0.1592898E+01  0.7818608E-02  0.3361107E+00
         11   -1    0    0    0    0  0.00000000000E+00  0.00000000000E+00  0.39999999674E+01  0.40000000000E+01  0.51100000000E-03 0. -1.
    9000002   -1    0    0    0    0 -0.00000000000E+00 -0.00000000000E+00  0.00000000000E+00  0.93800000000E+00  0.93800000000E+00 0. -1.
         11    1    1    2    0    0  0.25799398757E-01  0.11093493285E+00  0.86602004633E+00  0.87347761853E+00  0.51100000000E-03 0. -1.
    9000002    1    1    2    0    0  0.15445267911E+00 -0.24808433242E+00  0.62234887237E-01  0.98443823944E+00  0.93800000000E+00 0. -1.
         22    1    1    2    0    0 -0.18025207787E+00  0.13714939957E+00  0.30717450338E+01  0.30800841420E+01  0.00000000000E+00 0. -1.
</event>
<event>
 5    1  0.3222854E+002  0.1599668E+01  0.7818608E-02  0.3353724E+00
         11   -1    0    0    0    0  0.00000000000E+00  0.00000000000E+00  0.39999999674E+01  0.40000000000E+01  0.51100000000E-03 0.  1.
    9000002   -1    0    0    0    0 -0.00000000000E+00 -0.00000000000E+00  0.00000000000E+00  0.93800000000E+00  0.93800000000E+00 0.  1.
         11    1    1    2    0    0  0.14288917795E-01  0.61566189163E-03  0.27173855738E+00  0.27211515375E+00  0.51100000000E-03 0.  1.
    9000002    1    1    2    0    0 -0.23388910827E+00 -0.14229122306E-01  0.36438495226E-01  0.96751141948E+00  0.93800000000E+00 0.  1.
         22    1    1    2    0    0  0.21960019047E+00  0.13613460415E-01  0.36918229148E+01  0.36983734268E+01  0.00000000000E+00 0.  1.
</event>
<event>
 5    1  0.3222854E+002  0.1599643E+01  0.7818608E-02  0.3353751E+00
         11   -1    0    0    0    0  0.00000000000E+00  0.00000000000E+00  0.39999999674E+01  0.40000000000E+01  0.51100000000E-03 0.  1.
    9000002   -1    0    0    0    0 -0.00000000000E+00 -0.00000000000E+00  0.00000000000E+00  0.93800000000E+00  0.93800000000E+00 0. -1.
         11    1    1    2    0    0 -0.19853913492E-01 -0.12482706404E-02  0.33543431047E+00  0.33602406733E+00  0.51100000000E-03 0.  1.
    9000002    1    1    2    0    0  0.22846007850E+00 -0.30946694325E-01  0.35283790953E-01  0.96656125065E+00  0.93800000000E+00 0. -1.
         22    1    1    2    0    0 -0.20860616501E+00  0.32194964966E-01  0.36292818659E+01  0.36354146820E+01  0.00000000000E+00 0.  1.
</event>
<event>
 5    1  0.3222854E+002  0.1565230E+01  0.7818608E-02  0.3391988E+00
         11   -1    0    0    0    0  0.00000000000E+00  0.00000000000E+00  0.39999999674E+01  0.40000000000E+01  0.51100000000E-03 0. -1.
    9000002   -1    0    0    0    0 -0.00000000000E+00 -0.00000000000E+00  0.00000000000E+00  0.93800000000E+00  0.93800000000E+00 0. -1.
         11    1    1    2    0    0 -0.11662442480E+00 -0.58992114435E-01  0.42273014466E+00  0.44247300748E+00  0.51100000000E-03 0. -1.
    9000002    1    1    2    0    0  0.73385083941E-01 -0.26230941202E+00  0.76457550516E-01  0.97973534958E+00  0.93800000000E+00 0. -1.
         22    1    1    2    0    0  0.43239340859E-01  0.32130152645E+00  0.35008122722E+01  0.35157916429E+01  0.00000000000E+00 0. -1.
</event>
<event>
 5    1  0.3222854E+002  0.1598387E+01  0.7818608E-02  0.3355116E+00
         11   -1    0    0    0    0  0.00000000000E+00  0.00000000000E+00  0.39999999674E+01  0.40000000000E+01  0.51100000000E-03 0.  1.
    9000002   -1    0    0    0    0 -0.00000000000E+00 -0.00000000000E+00  0.00000000000E+00  0.93800000000E+00  0.93800000000E+00 0. -1.
         11    1    1    2    0    0  0.83681432249E-01 -0.11224583275E-01  0.14593674186E+01  0.14618078181E+01  0.51100000000E-03 0.  1.
    9000002    1    1    2    0    0 -0.23883147098E+00  0.14258878325E+00  0.52514151696E-01  0.97978251095E+00  0.93800000000E+00 0. -1.
         22    1    1    2    0    0  0.15515003873E+00 -0.13136419998E+00  0.24881183971E+01  0.24964096710E+01  0.00000000000E+00 0.  1.
</event>
<event>
 5    1  0.3222854E+002  0.1599677E+01  0.7818608E-02  0.3353714E+00
         11   -1    0    0    0    0  0.00000000000E+00  0.00000000000E+00  0.39999999674E+01  0.40000000000E+01  0.51100000000E-03 0.  1.
    9000002   -1    0    0    0    0 -0.00000000000E+00 -0.00000000000E+00  0.00000000000E+00  0.93800000000E+00  0.93800000000E+00 0. -1.
         11    1    1    2    0    0 -0.40445121565E+00  0.82448093210E+00  0.23076890337E+01  0.24837025850E+01  0.51100000000E-03 0.  1.
    9000002    1    1    2    0    0  0.50019022944E+00 -0.10197081819E+01  0.11460521304E+01  0.18663532697E+01  0.93800000000E+00 0. -1.
         22    1    1    2    0    0 -0.95739013798E-01  0.19522724980E+00  0.54625880330E+00  0.58794414532E+00  0.00000000000E+00 0.  1.
</event>
<event>
 5    1  0.3222854E+002  0.1599671E+01  0.7818608E-02  0.3353720E+00
         11   -1    0    0    0    0  0.00000000000E+00  0.00000000000E+00  0.39999999674E+01  0.40000000000E+01  0.51100000000E-03 0.  1.
    9000002   -1    0    0    0    0 -0.00000000000E+00 -0.00000000000E+00  0.00000000000E+00  0.93800000000E+00  0.93800000000E+00 0.  1.
         11    1    1    2    0    0  0.36352314763E-01  0.21249868327E+00  0.17778102599E+01  0.17908340969E+01  0.51100000000E-03 0.  1.
    9000002    1    1    2    0    0 -0.72553180619E-01 -0.46029740789E+00  0.14783693214E+00  0.10577511173E+01  0.93800000000E+00 0.  1.
         22    1    1    2    0    0  0.36200865856E-01  0.24779872462E+00  0.20743527753E+01  0.20894147858E+01  0.00000000000E+00 0.  1.
</event>
<event>
 5    1  0.3222854E+002  0.1599675E+01  0.7818608E-02  0.3353717E+00
         11   -1    0    0    0    0  0.00000000000E+00  0.00000000000E+00  0.39999999674E+01  0.40000000000E+01  0.51100000000E-03 0.  1.
    9000002   -1    0    0    0    0 -0.00000000000E+00 -0.00000000000E+00  0.00000000000E+00  0.93800000000E+00  0.93800000000E+00 0. -1.
         11    1    1    2    0    0 -0.44432054598E-02 -0.76423105037E-02  0.12938243391E+00  0.12968508900E+00  0.51100000000E-03 0. -1.
    9000002    1    1    2    0    0  0.12288868821E+00  0.23006493564E+00  0.45232775825E-01  0.97463916826E+00  0.93800000000E+00 0. -1.
         22    1    1    2    0    0 -0.11844548275E+00 -0.22242262513E+00  0.38253847576E+01  0.38336757427E+01  0.00000000000E+00 0.  1.
</event>
<event>
 5    1  0.3222854E+002  0.1545979E+01  0.7818608E-02  0.3414167E+00
         11   -1    0    0    0    0  0.00000000000E+00  0.00000000000E+00  0.39999999674E+01  0.40000000000E+01  0.51100000000E-03 0.  1.
    9000002   -1    0    0    0    0 -0.00000000000E+00 -0.00000000000E+00  0.00000000000E+00  0.93800000000E+00  0.93800000000E+00 0.  1.
         11    1    1    2    0    0 -0.10779170661E+00  0.76813310260E-01  0.25970673335E+00  0.29149131225E+00  0.51100000000E-03 0.  1.
    9000002    1    1    2    0    0 -0.23871579891E-01  0.19544694483E+00  0.66994733934E-01  0.96078179362E+00  0.93800000000E+00 0.  1.
         22    1    1    2    0    0  0.13166328650E+00 -0.27226025509E+00  0.36732985001E+01  0.36857268941E+01  0.00000000000E+00 0.  1.
</event>
<event>
 5    1  0.3222854E+002  0.1597813E+01  0.7818608E-02  0.3355740E+00
         11   -1    0    0    0    0  0.00000000000E+00  0.00000000000E+00  0.39999999674E+01  0.40000000000E+01  0.51100000000E-03 0. -1.
    9000002   -1    0    0    0    0 -0.00000000000E+00 -0.00000000000E+00  0.00000000000E+00  0.93800000000E+00  0.93800000000E+00 0.  1.
         11    1    1    2    0    0  0.15381910529E-01  0.49861605187E-03  0.12853523545E+00  0.12945431496E+00  0.51100000000E-03 0. -1.
    9000002    1    1    2    0    0  0.53380361635E-01 -0.22458626711E+00  0.36763488413E-01  0.96668713060E+00  0.93800000000E+00 0.  1.
         22    1    1    2    0    0 -0.68762272164E-01  0.22408765106E+00  0.38347012435E+01  0.38418585544E+01  0.00000000000E+00 0. -1.
</event>
<event>
 5    1  0.3222854E+002  0.1599675E+01  0.7818608E-02  0.3353716E+00
         11   -1    0    0    0    0  0.00000000000E+00  0.00000000000E+00  0.39999999674E+01  0.40000000000E+01  0.51100000000E-03 0. -1.
    9000002   -1    0    0    0    0 -0.00000000000E+00 -0.00000000000E+00  0.00000000000E+00  0.93800000000E+00  0.93800000000E+00 0.  1.
         11    1    1    2    0    0 -0.30690531921E-02 -0.24025343522E-01  0.33884922294E+00  0.33971413457E+00  0.51100000000E-03 0.  1.
    9000002    1    1    2    0    0  0.43173304925E-01  0.27442739132E+00  0.51383272541E-01  0.97962164536E+00  0.93800000000E+00 0.  1.
         22    1    1    2    0    0 -0.40104251733E-01 -0.25040204780E+00  0.36097674719E+01  0.36186642201E+01  0.00000000000E+00 0. -1.
</event>
<event>
 5    1  0.3222854E+002  0.1599677E+01  0.7818608E-02  0.3353714E+00
         11   -1    0    0    0    0  0.00000000000E+00  0.00000000000E+00  0.39999999674E+01  0.40000000000E+01  0.51100000000E-03 0. -1.
    9000002   -1    0    0    0    0 -0.00000000000E+00 -0.00000000000E+00  0.00000000000E+00  0.93800000000E+00  0.93800000000E+00 0.  1.
         11    1    1    2    0    0  0.26046346889E-01 -0.72760467341E-01  0.86531829520E+00  0.86876263209E+00  0.51100000000E-03 0.  1.
    9000002    1    1    2    0    0 -0.11716900638E+00  0.32793057751E+00  0.81295202222E-01  0.10038525537E+01  0.93800000000E+00 0.  1.
         22    1    1    2    0    0  0.91122659490E-01 -0.25517011017E+00  0.30533864699E+01  0.30653848142E+01  0.00000000000E+00 0. -1.
</event>
<event>
 5    1  0.4423757E+002  0.1595120E+01  0.7818608E-02  0.3358678E+00
         11   -1    0    0    0    0  0.00000000000E+00  0.00000000000E+00  0.39999999674E+01  0.40000000000E+01  0.51100000000E-03 0.  1.
    9000002   -1    0    0    0    0 -0.00000000000E+00 -0.00000000000E+00  0.00000000000E+00  0.93800000000E+00  0.93800000000E+00 0. -1.
         11    1    1    2    0    0 -0.86533833480E-02 -0.28611638530E-01  0.35074843785E+00  0.35202021913E+00  0.51100000000E-03 0.  1.
    9000002    1    1    2    0    0 -0.66612060988E-01 -0.17134863703E+00  0.25758293256E-01  0.95619297830E+00  0.93800000000E+00 0. -1.
         22    1    1    2    0    0  0.75265444336E-01  0.19996027556E+00  0.36234932363E+01  0.36297868026E+01  0.00000000000E+00 0.  1.
</event>
<event>
 5    1  0.3222854E+002  0.1599233E+01  0.7818608E-02  0.3354196E+00
         11   -1    0    0    0    0  0.00000000000E+00  0.00000000000E+00  0.39999999674E+01  0.40000000000E+01  0.51100000000E-03 0. -1.
    9000002   -1    0    0    0    0 -0.00000000000E+00 -0.00000000000E+00  0.00000000000E+00  0.93800000000E+00  0.93800000000E+00 0.  1.
         11    1    1    2    0    0 -0.42554843058E-01 -0.63972567544E-01  0.96947996106E+00  0.97251995356E+00  0.51100000000E-03 0. -1.
    9000002    1    1    2    0    0  0.91709955206E-01  0.29563670287E+00  0.64324000549E-01  0.98984511567E+00  0.93800000000E+00 0.  1.
         22    1    1    2    0    0 -0.49155112148E-01 -0.23166413533E+00  0.29661960058E+01  0.29756349308E+01  0.00000000000E+00 0. -1.
</event>
<event>
 5    1  0.3222854E+002  0.1599651E+01  0.7818608E-02  0.3353742E+00
         11   -1    0    0    0    0  0.00000000000E+00  0.00000000000E+00  0.39999999674E+01  0.40000000000E+01  0.51100000000E-03 0.  1.
    9000002   -1    0    0    0    0 -0.00000000000E+00 -0.00000000000E+00  0.00000000000E+00  0.93800000000E+00  0.93800000000E+00 0.  1.
         11    1    1    2    0    0  0.16673217399E-01  0.24496566653E-01  0.41035007909E+00  0.41141891849E+00  0.51100000000E-03 0.  1.
    9000002    1    1    2    0    0 -0.12599348105E+00 -0.24480215543E+00  0.50477734614E-01  0.97887407477E+00  0.93800000000E+00 0.  1.
         22    1    1    2    0    0  0.10932026365E+00  0.22030558877E+00  0.35391721537E+01  0.35477070067E+01  0.00000000000E+00 0.  1.
</event>
<event>
 5    1  0.3222854E+002  0.1533190E+01  0.7818608E-02  0.3429230E+00
         11   -1    0    0    0    0  0.00000000000E+00  0.00000000000E+00  0.39999999674E+01  0.40000000000E+01  0.51100000000E-03 0. -1.
    9000002   -1    0    0    0    0 -0.00000000000E+00 -0.00000000000E+00  0.00000000000E+00  0.93800000000E+00  0.93800000000E+00 0. -1.
         11    1    1    2    0    0  0.14471416154E+00 -0.27240721672E+00  0.21515598034E+01  0.21735587705E+01  0.51100000000E-03 0. -1.
    9000002    1    1    2    0    0 -0.18684525320E+00 -0.61212087432E-01  0.77118039430E-01  0.96148284452E+00  0.93800000000E+00 0. -1.
         22    1    1    2    0    0  0.42131091659E-01  0.33361930415E+00  0.17713221245E+01  0.18029583850E+01  0.00000000000E+00 0. -1.
</event>
<event>
 5    1  0.3222854E+002  0.1537131E+01  0.7818608E-02  0.3424560E+00
         11   -1    0    0    0    0  0.00000000000E+00  0.00000000000E+00  0.39999999674E+01  0.40000000000E+01  0.51100000000E-03 0. -1.
    9000002   -1    0    0    0    0 -0.00000000000E+00 -0.00000000000E+00  0.00000000000E+00  0.93800000000E+00  0.93800000000E+00 0. -1.
         11    1    1    2    0    0  0.19337206946E+00  0.17946855570E+00  0.28544220466E+01  0.28665880767E+01  0.51100000000E-03 0. -1.
    9000002    1    1    2    0    0 -0.15806804356E+00  0.10751990819E+00  0.72460624046E-01  0.96002113471E+00  0.93800000000E+00 0. -1.
         22    1    1    2    0    0 -0.35304025904E-01 -0.28698846389E+00  0.10731172967E+01  0.11113907886E+01  0.00000000000E+00 0. -1.
</event>
<event>
 5    1  0.3222854E+002  0.1599676E+01  0.7818608E-02  0.3353715E+00
         11   -1    0    0    0    0  0.00000000000E+00  0.00000000000E+00  0.39999999674E+01  0.40000000000E+01  0.51100000000E-03 0. -1.
    9000002   -1    0    0    0    0 -0.00000000000E+00 -0.00000000000E+00  0.00000000000E+00  0.93800000000E+00  0.93800000000E+00 0. -1.
         11    1    1    2    0    0 -0.36479627729E+00  0.77069055088E-01  0.21349519906E+01  0.21672646877E+01  0.51100000000E-03 0. -1.
    9000002    1    1    2    0    0  0.63291601731E+00 -0.13157860763E+00  0.29463852945E+00  0.11766696554E+01  0.93800000000E+00 0. -1.
         22    1    1    2    0    0 -0.26811974002E+00  0.54509552546E-01  0.15704094473E+01  0.15940656569E+01  0.00000000000E+00 0. -1.
</event>
<event>
 5    1  0.3222854E+002  0.1576139E+01  0.7818608E-02  0.3379676E+00
         11   -1    0    0    0    0  0.00000000000E+00  0.00000000000E+00  0.39999999674E+01  0.40000000000E+01  0.51100000000E-03 0. -1.
    9000002   -1    0    0    0    0 -0.00000000000E+00 -0.00000000000E+00  0.00000000000E+00  0.93800000000E+00  0.93800000000E+00 0. -1.
         11    1    1    2    0    0  0.22932896090E+00 -0.61054799809E+00  0.13094282986E+01  0.14628613606E+01  0.51100000000E-03 0. -1.
    9000002    1    1    2    0    0 -0.48315610063E+00  0.95207759498E+00  0.10150901464E+01  0.17464660231E+01  0.93800000000E+00 0. -1.
         22    1    1    2    0    0  0.25382713973E+00 -0.34152959689E+00  0.16754815224E+01  0.17286726163E+01  0.00000000000E+00 0. -1.
</event>
<event>
 5    1  0.3222854E+002  0.1599676E+01  0.7818608E-02  0.3353715E+00
         11   -1    0    0    0    0  0.00000000000E+00  0.00000000000E+00  0.39999999674E+01  0.40000000000E+01  0.51100000000E-03 0. -1.
    9000002   -1    0    0    0    0 -0.00000000000E+00 -0.00000000000E+00  0.00000000000E+00  0.93800000000E+00  0.93800000000E+00 0. -1.
         11    1    1    2    0    0 -0.13841639323E-01 -0.49897943980E-01  0.62704314730E+00  0.62917784885E+00  0.51100000000E-03 0.  1.
    9000002    1    1    2    0    0  0.83091020122E-01  0.31453866237E+00  0.70781186997E-01  0.99533545309E+00  0.93800000000E+00 0. -1.
         22    1    1    2    0    0 -0.69249380798E-01 -0.26464071839E+00  0.33021756331E+01  0.33134866981E+01  0.00000000000E+00 0. -1.
</event>
<event>
 5    1  0.3222854E+002  0.1599605E+01  0.7818608E-02  0.3353793E+00
         11   -1    0    0    0    0  0.00000000000E+00  0.00000000000E+00  0.39999999674E+01  0.40000000000E+01  0.51100000000E-03 0.  1.
    9000002   -1    0    0    0    0 -0.00000000000E+00 -0.00000000000E+00  0.00000000000E+00  0.93800000000E+00  0.93800000000E+00 0. -1.
         11    1    1    2    0    0  0.10395915028E+00  0.23983236013E+00  0.17690628014E+01  0.17882702599E+01  0.51100000000E-03 0.  1.
    9000002    1    1    2    0    0 -0.20291609669E+00 -0.50548979258E+00  0.20479054393E+00  0.11038469276E+01  0.93800000000E+00 0. -1.
         22    1    1    2    0    0  0.98956946406E-01  0.26565743244E+00  0.20261466220E+01  0.20458828125E+01  0.00000000000E+00 0.  1.
</event>
<event>
 5    1  0.3222854E+002  0.1592933E+01  0.7818608E-02  0.3361070E+00
         11   -1    0    0    0    0  0.00000000000E+00  0.00000000000E+00  0.39999999674E+01  0.40000000000E+01  0.51100000000E-03 0.  1.
    9000002   -1    0    0    0    0 -0.00000000000E+00 -0.00000000000E+00  0.00000000000E+00  0.93800000000E+00  0.93800000000E+00 0. -1.
         11    1    1    2    0    0  0.20097593422E-01  0.14889141453E+00  0.12029053333E+01  0.12122516523E+01  0.51100000000E-03 0.  1.
    9000002    1    1    2    0    0 -0.21868174192E+00 -0.23077787334E+00  0.72897129890E-01  0.99309522334E+00  0.93800000000E+00 0. -1.
         22    1    1    2    0    0  0.19858414850E+00  0.81886458814E-01  0.27241975042E+01  0.27326531243E+01  0.00000000000E+00 0. -1.
</event>
<event>
 5    1  0.3222854E+002  0.1576972E+01  0.7818608E-02  0.3378743E+00
         11   -1    0    0    0    0  0.00000000000E+00  0.00000000000E+00  0.39999999674E+01  0.40000000000E+01  0.51100000000E-03 0. -1.
    9000002   -1    0    0    0    0 -0.00000000000E+00 -0.00000000000E+00  0.00000000000E+00  0.93800000000E+00  0.93800000000E+00 0. -1.
         11    1    1    2    0    0  0.14010246644E+00 -0.10526310719E+00  0.17607550574E+01  0.17694540560E+01  0.51100000000E-03 0. -1.
    9000002    1    1    2    0    0 -0.11876694726E+00 -0.11778281088E+00  0.35519518647E-01  0.95345897369E+00  0.93800000000E+00 0. -1.
         22    1    1    2    0    0 -0.21335519177E-01  0.22304591807E+00  0.22037253913E+01  0.22150869703E+01  0.00000000000E+00 0. -1.
</event>
<event>
 5    1  0.3222854E+002  0.1599676E+01  0.7818608E-02  0.3353715E+00
         11   -1    0    0    0    0  0.00000000000E+00  0.00000000000E+00  0.39999999674E+01  0.40000000000E+01  0.51100000000E-03 0. -1.
    9000002   -1    0    0    0    0 -0.00000000000E+00 -0.00000000000E+00  0.00000000000E+00  0.93800000000E+00  0.93800000000E+00 0. -1.
         11    1    1    2    0    0 -0.19633317875E+00  0.46942668323E+00  0.22370206302E+01  0.22941599092E+01  0.51100000000E-03 0. -1.
    9000002    1    1    2    0    0  0.30923099037E+00 -0.73860451826E+00  0.47240948531E+00  0.13206722385E+01  0.93800000000E+00 0. -1.
         22    1    1    2    0    0 -0.11289781162E+00  0.26917783503E+00  0.12905698518E+01  0.13231678522E+01  0.00000000000E+00 0.  1.
</event>
<event>
 5    1  0.3222854E+002  0.1596152E+01  0.7818608E-02  0.3357551E+00
         11   -1    0    0    0    0  0.00000000000E+00  0.00000000000E+00  0.39999999674E+01  0.40000000000E+01  0.51100000000E-03 0. -1.
    9000002   -1    0    0    0    0 -0.00000000000E+00 -0.00000000000E+00  0.00000000000E+00  0.93800000000E+00  0.93800000000E+00 0.  1.
         11    1    1    2    0    0  0.91365738413E-01  0.10702875113E-01  0.93700256654E+00  0.94150747236E+00  0.51100000000E-03 0. -1.
    9000002    1    1    2    0    0 -0.22783957661E+00 -0.24762635688E+00  0.78631873981E-01  0.99962825935E+00  0.93800000000E+00 0.  1.
         22    1    1    2    0    0  0.13647383820E+00  0.23692348177E+00  0.29843655268E+01  0.29968642683E+01  0.00000000000E+00 0. -1.
</event>
<event>
 5    1  0.3222854E+002  0.1599659E+01  0.7818608E-02  0.3353734E+00
         11   -1    0    0    0    0  0.00000000000E+00  0.00000000000E+00  0.39999999674E+01  0.40000000000E+01  0.51100000000E-03 0.  1.
    9000002   -1    0    0    0    0 -0.00000000000E+00 -0.00000000000E+00  0.00000000000E+00  0.93800000000E+00  0.93800000000E+00 0.  1.
         11    1    1    2    0    0 -0.23422059676E-01  0.60626300430E-02  0.44250990402E+00  0.44317110086E+00  0.51100000000E-03 0.  1.
    9000002    1    1    2    0    0  0.23817458244E+00 -0.56737961576E-01  0.39819974605E-01  0.97024530835E+00  0.93800000000E+00 0.  1.
         22    1    1    2    0    0 -0.21475252276E+00  0.50675331533E-01  0.35176700887E+01  0.35245835908E+01  0.00000000000E+00 0.  1.
</event>
<event>
 5    1  0.3222854E+002  0.1599675E+01  0.7818608E-02  0.3353717E+00
         11   -1    0    0    0    0  0.00000000000E+00  0.00000000000E+00  0.39999999674E+01  0.40000000000E+01  0.51100000000E-03 0. -1.
    9000002   -1    0    0    0    0 -0.00000000000E+00 -0.00000000000E+00  0.00000000000E+00  0.93800000000E+00  0.93800000000E+00 0. -1.
         11    1    1    2    0    0  0.89678989770E-02 -0.17667370220E-01  0.34228835240E+00  0.34286168711E+00  0.51100000000E-03 0. -1.
    9000002    1    1    2    0    0 -0.94837839859E-01  0.19849102636E+00  0.32079587763E-01  0.96398444145E+00  0.93800000000E+00 0. -1.
         22    1    1    2    0    0  0.85869940882E-01 -0.18082365614E+00  0.36256320272E+01  0.36311538714E+01  0.00000000000E+00 0. -1.
</event>
<event>
 5    1  0.3222854E+002  0.1587819E+01  0.7818608E-02  0.3366691E+00
         11   -1    0    0    0    0  0.00000000000E+00  0.00000000000E+00  0.39999999674E+01  0.40000000000E+01  0.51100000000E-03 0. -1.
    9000002   -1    0    0    0    0 -0.00000000000E+00 -0.00000000000E+00  0.00000000000E+00  0.93800000000E+00  0.93800000000E+00 0.  1.
         11    1    1    2    0    0 -0.47480393401E-01  0.27208258326E-01  0.17247057842E+00  0.18094484967E+00  0.51100000000E-03 0. -1.
    9000002    1    1    2    0    0 -0.79984590954E-01 -0.21027599347E+00  0.42583870551E-01  0.96554177240E+00  0.93800000000E+00 0.  1.
         22    1    1    2    0    0  0.12746498436E+00  0.18306773514E+00  0.37849455184E+01  0.37915133779E+01  0.00000000000E+00 0. -1.
</event>
<event>
 5    1  0.3222854E+002  0.1463340E+01  0.7818608E-02  0.3516501E+00
         11   -1    0    0    0    0  0.00000000000E+00  0.00000000000E+00  0.39999999674E+01  0.40000000000E+01  0.51100000000E-03 0.  1.
    9000002   -1    0    0    0    0 -0.00000000000E+00 -0.00000000000E+00  0.00000000000E+00  0.93800000000E+00  0.93800000000E+00 0.  1.
         11    1    1    2    0    0 -0.26538704202E+00 -0.29535421658E+00  0.10219130307E+01  0.10963443340E+01  0.51100000000E-03 0.  1.
    9000002    1    1    2    0    0  0.10496695402E+00 -0.72440694341E-01  0.11845976931E+00  0.95401385345E+00  0.93800000000E+00 0.  1.
         22    1    1    2    0    0  0.16042008801E+00  0.36779491092E+00  0.28596271674E+01  0.28876418125E+01  0.00000000000E+00 0.  1.
</event>
<event>
 5    1  0.3222854E+002  0.1593172E+01  0.7818608E-02  0.3360808E+00
         11   -1    0    0    0    0  0.00000000000E+00  0.00000000000E+00  0.39999999674E+01  0.40000000000E+01  0.51100000000E-03 0. -1.
    9000002   -1    0    0    0    0 -0.00000000000E+00 -0.00000000000E+00  0.00000000000E+00  0.93800000000E+00  0.93800000000E+00 0. -1.
         11    1    1    2    0    0  0.49348895084E-01 -0.78806773209E-01  0.58789015427E+00  0.59519821535E+00  0.51100000000E-03 0. -1.
    9000002    1    1    2    0    0 -0.36578859983E+00  0.63088556401E-01  0.97934788024E-01  0.10135169897E+01  0.93800000000E+00 0. -1.
         22    1    1    2    0    0  0.31643970474E+00  0.15718216808E-01  0.33141750251E+01  0.33292847949E+01  0.00000000000E+00 0. -1.
</event>
<event>
 5    1  0.3222854E+002  0.1599671E+01  0.7818608E-02  0.3353720E+00
         11   -1    0    0    0    0  0.00000000000E+00  0.00000000000E+00  0.39999999674E+01  0.40000000000E+01  0.51100000000E-03 0.  1.
    9000002   -1    0    0    0    0 -0.00000000000E+00 -0.00000000000E+00  0.00000000000E+00  0.93800000000E+00  0.93800000000E+00 0. -1.
         11    1    1    2    0    0  0.58617183742E-01 -0.50585150902E-01  0.94442677008E+00  0.94759538669E+00  0.51100000000E-03 0.  1.
    9000002    1    1    2    0    0 -0.25276310673E+00  0.20533757720E+00  0.70930740940E-01  0.99545360452E+00  0.93800000000E+00 0. -1.
         22    1    1    2    0    0  0.19414592298E+00 -0.15475242630E+00  0.29846424563E+01  0.29949510088E+01  0.00000000000E+00 0.  1.
</event>
<event>
 5    1  0.3222854E+002  0.1599671E+01  0.7818608E-02  0.3353720E+00
         11   -1    0    0    0    0  0.00000000000E+00  0.00000000000E+00  0.39999999674E+01  0.40000000000E+01  0.51100000000E-03 0. -1.
    9000002   -1    0    0    0    0 -0.00000000000E+00 -0.00000000000E+00  0.00000000000E+00  0.93800000000E+00  0.93800000000E+00 0.  1.
         11    1    1    2    0    0 -0.47671452818E-01 -0.92644855025E-01  0.13014953934E+01  0.13056592805E+01  0.51100000000E-03 0. -1.
    9000002    1    1    2    0    0  0.14613374462E+00  0.27214630471E+00  0.63713153736E-01  0.98960701718E+00  0.93800000000E+00 0.  1.
         22    1    1    2    0    0 -0.98462291806E-01 -0.17950144969E+00  0.26347914202E+01  0.26427337023E+01  0.00000000000E+00 0. -1.
</event>
<event>
 5    1  0.3222854E+002  0.1595458E+01  0.7818608E-02  0.3358308E+00
         11   -1    0    0    0    0  0.00000000000E+00  0.00000000000E+00  0.39999999674E+01  0.40000000000E+01  0.51100000000E-03 0.  1.
    9000002   -1    0    0    0    0 -0.00000000000E+00 -0.00000000000E+00  0.00000000000E+00  0.93800000000E+00  0.93800000000E+00 0.  1.
         11    1    1    2    0    0  0.21519636295E+00  0.13948622337E+00  0.20918239636E+01  0.21074851451E+01  0.51100000000E-03 0.  1.
    9000002    1    1    2    0    0 -0.44916415512E+00 -0.12361845189E+00  0.15145629372E+00  0.10582121568E+01  0.93800000000E+00 0.  1.
         22    1    1    2    0    0  0.23396779217E+00 -0.15867771479E-01  0.17567197101E+01  0.17723026981E+01  0.00000000000E+00 0. -1.
</event>
<event>
 5    1  0.3222854E+002  0.1599387E+01  0.7818608E-02  0.3354029E+00
         11   -1    0    0    0    0  0.00000000000E+00  0.00000000000E+00  0.39999999674E+01  0.40000000000E+01  0.51100000000E-03 0. -1.
    9000002   -1    0    0    0    0 -0.00000000000E+00 -0.00000000000E+00  0.00000000000E+00  0.93800000000E+00  0.93800000000E+00 0.  1.
         11    1    1    2    0    0 -0.97905512800E-01 -0.17498825679E+00  0.19884757200E+01  0.19985600640E+01  0.51100000000E-03 0. -1.
    9000002    1    1    2    0    0  0.23132045648E+00  0.34240309598E+00  0.11561632057E+00  0.10314844484E+01  0.93800000000E+00 0.  1.
         22    1    1    2    0    0 -0.13341494368E+00 -0.16741483919E+00  0.18959079268E+01  0.19079554876E+01  0.00000000000E+00 0. -1.
</event>
<event>
 5    1  0.3222854E+002  0.1595327E+01  0.7818608E-02  0.3358450E+00
         11   -1    0    0    0    0  0.00000000000E+00  0.00000000000E+00  0.39999999674E+01  0.40000000000E+01  0.51100000000E-03 0.  1.
    9000002   -1    0    0    0    0 -0.00000000000E+00 -0.00000000000E+00  0.00000000000E+00  0.93800000000E+00  0.93800000000E+00 0.  1.
         11    1    1    2    0    0 -0.10791155510E+00  0.50462350021E-01  0.55541740318E+00  0.56804938638E+00  0.51100000000E-03 0.  1.
    9000002    1    1    2    0    0  0.50630386669E+00 -0.38887308522E-01  0.18070570893E+00  0.10818291831E+01  0.93800000000E+00 0.  1.
         22    1    1    2    0    0 -0.39839231159E+00 -0.11575041499E-01  0.32638768553E+01  0.32881214305E+01  0.00000000000E+00 0.  1.
</event>
<event>
 5    1  0.3222854E+002  0.1599425E+01  0.7818608E-02  0.3353987E+00
         11   -1    0    0    0    0  0.00000000000E+00  0.00000000000E+00  0.39999999674E+01  0.40000000000E+01  0.51100000000E-03 0.  1.
    9000002   -1    0    0    0    0 -0.00000000000E+00 -0.00000000000E+00  0.00000000000E+00  0.93800000000E+00  0.93800000000E+00 0. -1.
         11    1    1    2    0    0 -0.77244317913E-02  0.26852127982E-02  0.22118442046E+00  0.22133613846E+00  0.51100000000E-03 0.  1.
    9000002    1    1    2    0    0  0.13964291036E+00 -0.20487808718E+00  0.41023148408E-01  0.97108293761E+00  0.93800000000E+00 0. -1.
         22    1    1    2    0    0 -0.13191847857E+00  0.20219287438E+00  0.37377923985E+01  0.37455809239E+01  0.00000000000E+00 0.  1.
</event>
<event>
 5    1  0.3222854E+002  0.1599673E+01  0.7818608E-02  0.3353719E+00
         11   -1    0    0    0    0  0.00000000000E+00  0.00000000000E+00  0.39999999674E+01  0.40000000000E+01  0.51100000000E-03 0.  1.
    9000002   -1    0    0    0    0 -0.00000000000E+00 -0.00000000000E+00  0.00000000000E+00  0.93800000000E+00  0.93800000000E+00 0. -1.
         11    1    1    2    0    0 -0.82718211391E-01  0.13885915589E+00  0.15210446295E+01  0.15296081830E+01  0.51100000000E-03 0.  1.
    9000002    1    1    2    0    0  0.21729731582E+00 -0.35354656045E+00  0.11639340463E+00  0.10322813175E+01  0.93800000000E+00 0. -1.
         22    1    1    2    0    0 -0.13457910443E+00  0.21468740457E+00  0.23625619333E+01  0.23761104994E+01  0.00000000000E+00 0.  1.
</event>
<event>
 5    1  0.3222854E+002  0.1596735E+01  0.7818608E-02  0.3356914E+00
         11   -1    0    0    0    0  0.00000000000E+00  0.00000000000E+00  0.39999999674E+01  0.40000000000E+01  0.51100000000E-03 0. -1.
    9000002   -1    0    0    0    0 -0.00000000000E+00 -0.00000000000E+00  0.00000000000E+00  0.93800000000E+00  0.93800000000E+00 0. -1.
         11    1    1    2    0    0 -0.35768471462E-02  0.85432824813E-01  0.53779127812E+00  0.54454685872E+00  0.51100000000E-03 0. -1.
    9000002    1    1    2    0    0  0.78850341908E-02 -0.29605726303E+00  0.60794441623E-01  0.98552120266E+00  0.93800000000E+00 0. -1.
         22    1    1    2    0    0 -0.43081870446E-02  0.21062443821E+00  0.34014142476E+01  0.34079319386E+01  0.00000000000E+00 0. -1.
</event>
<event>
 5    1  0.3222854E+002  0.1599526E+01  0.7818608E-02  0.3353878E+00
         11   -1    0    0    0    0  0.00000000000E+00  0.00000000000E+00  0.39999999674E+01  0.40000000000E+01  0.51100000000E-03 0.  1.
    9000002   -1    0    0    0    0 -0.00000000000E+00 -0.00000000000E+00  0.00000000000E+00  0.93800000000E+00  0.93800000000E+00 0. -1.
         11    1    1    2    0    0 -0.24793484339E-01 -0.15821235459E+00  0.14204544127E+01  0.14294533450E+01  0.51100000000E-03 0.  1.
    9000002    1    1    2    0    0  0.10634092060E+00  0.43103421703E+00  0.13387829486E+00  0.10463585836E+01  0.93800000000E+00 0. -1.
         22    1    1    2    0    0 -0.81547436263E-01 -0.27282186244E+00  0.24456672598E+01  0.24621880714E+01  0.00000000000E+00 0.  1.
</event>
<event>
 5    1  0.3222854E+002  0.1585736E+01  0.7818608E-02  0.3368992E+00
         11   -1    0    0    0    0  0.00000000000E+00  0.00000000000E+00  0.39999999674E+01  0.40000000000E+01  0.51100000000E-03 0.  1.
    9000002   -1    0    0    0    0 -0.00000000000E+00 -0.00000000000E+00  0.00000000000E+00  0.93800000000E+00  0.93800000000E+00 0. -1.
         11    1    1    2    0    0 -0.33323053959E-01  0.11063515696E-01  0.73701183266E-01  0.81639162419E-01  0.51100000000E-03 0.  1.
    9000002    1    1    2    0    0 -0.80825308658E-01  0.39269990168E+00  0.12013899452E+00  0.10271432818E+01  0.93800000000E+00 0. -1.
         22    1    1    2    0    0  0.11414836262E+00 -0.40376341737E+00  0.38061597896E+01  0.38292175558E+01  0.00000000000E+00 0.  1.
</event>
<event>
 5    1  0.3222854E+002  0.1599652E+01  0.7818608E-02  0.3353741E+00
         11   -1    0    0    0    0  0.00000000000E+00  0.00000000000E+00  0.39999999674E+01  0.40000000000E+01  0.51100000000E-03 0.  1.
    9000002   -1    0    0    0    0 -0.00000000000E+00 -0.00000000000E+00  0.00000000000E+00  0.93800000000E+00  0.93800000000E+00 0.  1.
         11    1    1    2    0    0 -0.16475656448E-01 -0.41940063387E-01  0.54543908421E+00  0.54729742543E+00  0.51100000000E-03 0.  1.
    9000002    1    1    2    0    0  0.91169784802E-01  0.29164866450E+00  0.62341056614E-01  0.98848433498E+00  0.93800000000E+00 0.  1.
         22    1    1    2    0    0 -0.74694128355E-01 -0.24970860111E+00  0.33922198265E+01  0.34022182396E+01  0.00000000000E+00 0. -1.
</event>
<event>
 5    1  0.3382601E+002  0.1560347E+01  0.7818608E-02  0.3397558E+00
         11   -1    0    0    0    0  0.00000000000E+00  0.00000000000E+00  0.39999999674E+01  0.40000000000E+01  0.51100000000E-03 0. -1.
    9000002   -1    0    0    0    0 -0.00000000000E+00 -0.00000000000E+00  0.00000000000E+00  0.93800000000E+00  0.93800000000E+00 0. -1.
         11    1    1    2    0    0 -0.20234777105E-01  0.88823603019E-01  0.15582088151E+00  0.18049788612E+00  0.51100000000E-03 0. -1.
    9000002    1    1    2    0    0  0.13075808049E-01  0.12264751516E+00  0.39453074108E-01  0.94689700326E+00  0.93800000000E+00 0. -1.
         22    1    1    2    0    0  0.71589690557E-02 -0.21147111817E+00  0.38047260117E+01  0.38106051106E+01  0.00000000000E+00 0. -1.
</event>
<event>
 5    1  0.3222854E+002  0.1514577E+01  0.7818608E-02  0.3451638E+00
         11   -1    0    0    0    0  0.00000000000E+00  0.00000000000E+00  0.39999999674E+01  0.40000000000E+01  0.51100000000E-03 0. -1.
    9000002   -1    0    0    0    0 -0.00000000000E+00 -0.00000000000E+00  0.00000000000E+00  0.93800000000E+00  0.93800000000E+00 0. -1.
         11    1    1    2    0    0  0.17955477556E-01  0.16553824442E-01  0.24698795058E+01  0.24700002961E+01  0.51100000000E-03 0. -1.
    9000002    1    1    2    0    0 -0.44258444197E-01  0.48985790214E+00  0.24592405104E+00  0.10873096215E+01  0.93800000000E+00 0. -1.
         22    1    1    2    0    0  0.26302966641E-01 -0.50641172658E+00  0.12841964105E+01  0.13806900824E+01  0.00000000000E+00 0. -1.
</event>
<event>
 5    1  0.3222854E+002  0.1599675E+01  0.7818608E-02  0.3353716E+00
         11   -1    0    0    0    0  0.00000000000E+00  0.00000000000E+00  0.39999999674E+01  0.40000000000E+01  0.51100000000E-03 0.  1.
    9000002   -1    0    0    0    0 -0.00000000000E+00 -0.00000000000E+00  0.00000000000E+00  0.93800000000E+00  0.93800000000E+00 0.  1.
         11    1    1    2    0    0 -0.13082808253E-01 -0.10350663566E+00  0.10360809623E+01  0.10413207023E+01  0.51100000000E-03 0.  1.
    9000002    1    1    2    0    0  0.43299505558E-01  0.39002137303E+00  0.10377229288E+00  0.10220588082E+01  0.93800000000E+00 0.  1.
         22    1    1    2    0    0 -0.30216697305E-01 -0.28651473737E+00  0.28601467122E+01  0.28746204896E+01  0.00000000000E+00 0.  1.
</event>
<event>
 5    1  0.3222854E+002  0.1599650E+01  0.7818608E-02  0.3353743E+00
         11   -1    0    0    0    0  0.00000000000E+00  0.00000000000E+00  0.39999999674E+01  0.40000000000E+01  0.51100000000E-03 0. -1.
    9000002   -1    0    0    0    0 -0.00000000000E+00 -0.00000000000E+00  0.00000000000E+00  0.93800000000E+00  0.93800000000E+00 0. -1.
         11    1    1    2    0    0 -0.34482644558E-02 -0.39032841161E-02  0.91613755419E-01  0.91763105100E-01  0.51100000000E-03 0. -1.
    9000002    1    1    2    0    0  0.78641791618E-01  0.20306528493E+00  0.31448583141E-01  0.96345890141E+00  0.93800000000E+00 0. -1.
         22    1    1    2    0    0 -0.75193527162E-01 -0.19916200081E+00  0.38769376288E+01  0.38827779935E+01  0.00000000000E+00 0. -1.
</event>
<event>
 5    1  0.3222854E+002  0.1588144E+01  0.7818608E-02  0.3366333E+00
         11   -1    0    0    0    0  0.00000000000E+00  0.00000000000E+00  0.39999999674E+01  0.40000000000E+01  0.51100000000E-03 0. -1.
    9000002   -1    0    0    0    0 -0.00000000000E+00 -0.00000000000E+00  0.00000000000E+00  0.93800000000E+00  0.93800000000E+00 0. -1.
         11    1    1    2    0    0 -0.13285963886E+00 -0.21032727896E+00  0.13575763179E+01  0.13801822228E+01  0.51100000000E-03 0. -1.
    9000002    1    1    2    0    0  0.61157470651E-01  0.44276866116E+00  0.14563542290E+00  0.10492082729E+01  0.93800000000E+00 0. -1.
         22    1    1    2    0    0  0.71702168204E-01 -0.23244138220E+00  0.24967882265E+01  0.25086095043E+01  0.00000000000E+00 0. -1.
</event>
<event>
 5    1  0.3222854E+002  0.1583958E+01  0.7818608E-02  0.3370961E+00
         11   -1    0    0    0    0  0.00000000000E+00  0.00000000000E+00  0.39999999674E+01  0.40000000000E+01  0.51100000000E-03 0.  1.
    9000002   -1    0    0    0    0 -0.00000000000E+00 -0.00000000000E+00  0.00000000000E+00  0.93800000000E+00  0.93800000000E+00 0. -1.
         11    1    1    2    0    0 -0.43785809322E+00  0.83755769920E-01  0.14649453189E+01  0.15312739099E+01  0.51100000000E-03 0.  1.
    9000002    1    1    2    0    0  0.76623743482E+00  0.13209649145E-01  0.44749704402E+00  0.12912753021E+01  0.93800000000E+00 0. -1.
         22    1    1    2    0    0 -0.32837934160E+00 -0.96965419065E-01  0.20875576045E+01  0.21154507880E+01  0.00000000000E+00 0. -1.
</event>
<event>
 5    1  0.3222854E+002  0.1599675E+01  0.7818608E-02  0.3353716E+00
         11   -1    0    0    0    0  0.00000000000E+00  0.00000000000E+00  0.39999999674E+01  0.40000000000E+01  0.51100000000E-03 0.  1.
    9000002   -1    0    0    0    0 -0.00000000000E+00 -0.00000000000E+00  0.00000000000E+00  0.93800000000E+00  0.93800000000E+00 0. -1.
         11    1    1    2    0    0 -0.41075393770E-01  0.48754548324E-01  0.74761055714E+00  0.75032393020E+00  0.51100000000E-03 0.  1.
    9000002    1    1    2    0    0  0.20945343229E+00 -0.25674514008E+00  0.73469072555E-01  0.99751216127E+00  0.93800000000E+00 0. -1.
         22    1    1    2    0    0 -0.16837803852E+00  0.20799059176E+00  0.31789203377E+01  0.31901639085E+01  0.00000000000E+00 0.  1.
</event>
<event>
 5    1  0.3222854E+002  0.1599676E+01  0.7818608E-02  0.3353715E+00
         11   -1    0    0    0    0  0.00000000000E+00  0.00000000000E+00  0.39999999674E+01  0.40000000000E+01  0.51100000000E-03 0.  1.
    9000002   -1    0    0    0    0 -0.00000000000E+00 -0.00000000000E+00  0.00000000000E+00  0.93800000000E+00  0.93800000000E+00 0. -1.
         11    1    1    2    0    0  0.17838002235E+00  0.74226002837E-01  0.19185584923E+01  0.19282623995E+01  0.51100000000E-03 0.  1.
    9000002    1    1    2    0    0 -0.36259125185E+00 -0.15344292491E+00  0.10447973701E+00  0.10226324670E+01  0.93800000000E+00 0. -1.
         22    1    1    2    0    0  0.18421122949E+00  0.79216922077E-01  0.19769617381E+01  0.19871051335E+01  0.00000000000E+00 0. -1.
</event>
<event>
 5    1  0.3222854E+002  0.1599673E+01  0.7818608E-02  0.3353719E+00
         11   -1    0    0    0    0  0.00000000000E+00  0.00000000000E+00  0.39999999674E+01  0.40000000000E+01  0.51100000000E-03 0.  1.
    9000002   -1    0    0    0    0 -0.00000000000E+00 -0.00000000000E+00  0.00000000000E+00  0.93800000000E+00  0.93800000000E+00 0. -1.
         11    1    1    2    0    0  0.34759022408E-01 -0.30604481381E-01  0.73130552643E+00  0.73277067220E+00  0.51100000000E-03 0.  1.
    9000002    1    1    2    0    0 -0.18383529265E+00  0.17515410217E+00  0.42846015134E-01  0.97270455707E+00  0.93800000000E+00 0. -1.
         22    1    1    2    0    0  0.14907627024E+00 -0.14454962079E+00  0.32258484258E+01  0.32325247707E+01  0.00000000000E+00 0.  1.
</event>
<event>
 5    1  0.3222854E+002  0.1599676E+01  0.7818608E-02  0.3353715E+00
         11   -1    0    0    0    0  0.00000000000E+00  0.00000000000E+00  0.39999999674E+01  0.40000000000E+01  0.51100000000E-03 0. -1.
    9000002   -1    0    0    0    0 -0.00000000000E+00 -0.00000000000E+00  0.00000000000E+00  0.93800000000E+00  0.93800000000E+00 0. -1.
         11    1    1    2    0    0 -0.74208069202E-01 -0.90753042825E-01  0.12495503050E+01  0.12550375206E+01  0.51100000000E-03 0. -1.
    9000002    1    1    2    0    0  0.23437734234E+00  0.28261375371E+00  0.90563342795E-01  0.10113599712E+01  0.93800000000E+00 0. -1.
         22    1    1    2    0    0 -0.16016927314E+00 -0.19186071088E+00  0.26598863195E+01  0.26716025081E+01  0.00000000000E+00 0.  1.
</event>
<event>
 5    1  0.3222854E+002  0.1597654E+01  0.7818608E-02  0.3355913E+00
         11   -1    0    0    0    0  0.00000000000E+00  0.00000000000E+00  0.39999999674E+01  0.40000000000E+01  0.51100000000E-03 0.  1.
    9000002   -1    0    0    0    0 -0.00000000000E+00 -0.00000000000E+00  0.00000000000E+00  0.93800000000E+00  0.93800000000E+00 0.  1.
         11    1    1    2    0    0 -0.82374131008E-01 -0.58358982431E-01  0.12100142712E+01  0.12142182942E+01  0.51100000000E-03 0.  1.
    9000002    1    1    2    0    0  0.24000674113E+00  0.34633204438E+00  0.12181065378E+00  0.10354858551E+01  0.93800000000E+00 0.  1.
         22    1    1    2    0    0 -0.15763261012E+00 -0.28797306195E+00  0.26681750423E+01  0.26882958507E+01  0.00000000000E+00 0.  1.
</event>
<event>
 5    1  0.3222854E+002  0.1599641E+01  0.7818608E-02  0.3353753E+00
         11   -1    0    0    0    0  0.00000000000E+00  0.00000000000E+00  0.39999999674E+01  0.40000000000E+01  0.51100000000E-03 0.  1.
    9000002   -1    0    0    0    0 -0.00000000000E+00 -0.00000000000E+00  0.00000000000E+00  0.93800000000E+00  0.93800000000E+00 0. -1.
         11    1    1    2    0    0 -0.36821053044E-01  0.41297668032E-01  0.55669096622E+00  0.55943398210E+00  0.51100000000E-03 0.  1.
    9000002    1    1    2    0    0  0.22990738793E+00 -0.27008147076E+00  0.84424135787E-01  0.10063661573E+01  0.93800000000E+00 0. -1.
         22    1    1    2    0    0 -0.19308633489E+00  0.22878380272E+00  0.33588848653E+01  0.33721998606E+01  0.00000000000E+00 0.  1.
</event>
<event>
 5    1  0.3222854E+002  0.1586518E+01  0.7818608E-02  0.3368128E+00
         11   -1    0    0    0    0  0.00000000000E+00  0.00000000000E+00  0.39999999674E+01  0.40000000000E+01  0.51100000000E-03 0.  1.
    9000002   -1    0    0    0    0 -0.00000000000E+00 -0.00000000000E+00  0.00000000000E+00  0.93800000000E+00  0.93800000000E+00 0.  1.
         11    1    1    2    0    0 -0.42814517714E-01  0.60709290279E-01  0.17327208860E+00  0.18852633413E+00  0.51100000000E-03 0.  1.
    9000002    1    1    2    0    0  0.37504639459E-01 -0.41934122298E+00  0.13109493212E+00  0.10364765026E+01  0.93800000000E+00 0.  1.
         22    1    1    2    0    0  0.53098782554E-02  0.35863193270E+00  0.36956329466E+01  0.37129971632E+01  0.00000000000E+00 0.  1.
</event>
<event>
 5    1  0.3222854E+002  0.1599661E+01  0.7818608E-02  0.3353731E+00
         11   -1    0    0    0    0  0.00000000000E+00  0.00000000000E+00  0.39999999674E+01  0.40000000000E+01  0.51100000000E-03 0. -1.
    9000002   -1    0    0    0    0 -0.00000000000E+00 -0.00000000000E+00  0.00000000000E+00  0.93800000000E+00  0.93800000000E+00 0.  1.
         11    1    1    2    0    0 -0.27926008130E-01  0.29026781695E-01  0.57690597061E+00  0.57831062245E+00  0.51100000000E-03 0. -1.
    9000002    1    1    2    0    0  0.19195000321E+00 -0.22156501901E+00  0.57305292927E-01  0.98441036056E+00  0.93800000000E+00 0.  1.
         22    1    1    2    0    0 -0.16402399508E+00  0.19253823732E+00  0.33657887038E+01  0.33752790170E+01  0.00000000000E+00 0. -1.
</event>
<event>
 5    1  0.3222854E+002  0.1599667E+01  0.7818608E-02  0.3353725E+00
         11   -1    0    0    0    0  0.00000000000E+00  0.00000000000E+00  0.39999999674E+01  0.40000000000E+01  0.51100000000E-03 0. -1.
    9000002   -1    0    0    0    0 -0.00000000000E+00 -0.00000000000E+00  0.00000000000E+00  0.93800000000E+00  0.93800000000E+00 0. -1.
         11    1    1    2    0    0  0.16102377550E-01 -0.69174783850E-01  0.88353621875E+00  0.88638645537E+00  0.51100000000E-03 0. -1.
    9000002    1    1    2    0    0 -0.81305151387E-01  0.31774216247E+00  0.71966278086E-01  0.99628999525E+00  0.93800000000E+00 0. -1.
         22    1    1    2    0    0  0.65202773837E-01 -0.24856737862E+00  0.30444974705E+01  0.30553235494E+01  0.00000000000E+00 0. -1.
</event>
<event>
 5    1  0.3222854E+002  0.1599628E+01  0.7818608E-02  0.3353767E+00
         11   -1    0    0    0    0  0.00000000000E+00  0.00000000000E+00  0.39999999674E+01  0.40000000000E+01  0.51100000000E-03 0.  1.
    9000002   -1    0    0    0    0 -0.00000000000E+00 -0.00000000000E+00  0.00000000000E+00  0.93800000000E+00  0.93800000000E+00 0.  1.
         11    1    1    2    0    0 -0.16643208073E-01 -0.22647563518E-01  0.54279875195E+00  0.54352613070E+00  0.51100000000E-03 0.  1.
    9000002    1    1    2    0    0  0.11989286384E+00  0.20739618831E+00  0.38129215705E-01  0.96885773714E+00  0.93800000000E+00 0.  1.
         22    1    1    2    0    0 -0.10324965577E+00 -0.18474862480E+00  0.34190719997E+01  0.34256161322E+01  0.00000000000E+00 0.  1.
</event>
<event>
 5    1  0.3222854E+002  0.1599677E+01  0.7818608E-02  0.3353714E+00
         11   -1    0    0    0    0  0.00000000000E+00  0.00000000000E+00  0.39999999674E+01  0.40000000000E+01  0.51100000000E-03 0.  1.
    9000002   -1    0    0    0    0 -0.00000000000E+00 -0.00000000000E+00  0.00000000000E+00  0.93800000000E+00  0.93800000000E+00 0.  1.
         11    1    1    2    0    0 -0.28088669460E+00  0.14256341223E+00  0.19760806768E+01  0.20010289263E+01  0.51100000000E-03 0.  1.
    9000002    1    1    2    0    0  0.53209012388E+00 -0.27076059816E+00  0.24852395715E+00  0.11393153026E+01  0.93800000000E+00 0.  1.
         22    1    1    2    0    0 -0.25120342928E+00  0.12819718593E+00  0.17753953334E+01  0.17976557711E+01  0.00000000000E+00 0.  1.
</event>
<event>
 5    1  0.3222854E+002  0.1599547E+01  0.7818608E-02  0.3353855E+00
         11   -1    0    0    0    0  0.00000000000E+00  0.00000000000E+00  0.39999999674E+01  0.40000000000E+01  0.51100000000E-03 0. -1.
    9000002   -1    0    0    0    0 -0.00000000000E+00 -0.00000000000E+00  0.00000000000E+00  0.93800000000E+00  0.93800000000E+00 0.  1.
         11    1    1    2    0    0  0.28344695019E-02  0.43267906775E-02  0.10752786710E+00  0.10765341917E+00  0.51100000000E-03 0. -1.
    9000002    1    1    2    0    0  0.54167714996E-01 -0.19850334997E+00  0.28135851925E-01  0.96071501886E+00  0.93800000000E+00 0.  1.
         22    1    1    2    0    0 -0.57002184498E-01  0.19417655929E+00  0.38643362483E+01  0.38696315620E+01  0.00000000000E+00 0. -1.
</event>
<event>
 5    1  0.3222854E+002  0.1599310E+01  0.7818608E-02  0.3354113E+00
         11   -1    0    0    0    0  0.00000000000E+00  0.00000000000E+00  0.39999999674E+01  0.40000000000E+01  0.51100000000E-03 0.  1.
    9000002   -1    0    0    0    0 -0.00000000000E+00 -0.00000000000E+00  0.00000000000E+00  0.93800000000E+00  0.93800000000E+00 0.  1.
         11    1    1    2    0    0 -0.12502971985E-02 -0.15874051125E-02  0.15461465122E-01  0.15601317983E-01  0.51100000000E-03 0.  1.
    9000002    1    1    2    0    0  0.19022088234E+00 -0.30815509758E+00  0.88351101617E-01  0.10093529935E+01  0.93800000000E+00 0.  1.
         22    1    1    2    0    0 -0.18897058514E+00  0.30974250269E+00  0.38961874006E+01  0.39130456886E+01  0.00000000000E+00 0.  1.
</event>
<event>
 5    1  0.3222854E+002  0.1596013E+01  0.7818608E-02  0.3357702E+00
         11   -1    0    0    0    0  0.00000000000E+00  0.00000000000E+00  0.39999999674E+01  0.40000000000E+01  0.51100000000E-03 0. -1.
    9000002   -1    0    0    0    0 -0.00000000000E+00 -0.00000000000E+00  0.00000000000E+00  0.93800000000E+00  0.93800000000E+00 0.  1.
         11    1    1    2    0    0 -0.22881296349E-03 -0.76985724535E-02  0.65094882296E-02  0.10097273454E-01  0.51100000000E-03 0. -1.
    9000002    1    1    2    0    0  0.32701067174E+00  0.43425959369E+00  0.20731296704E+00  0.11037844176E+01  0.93800000000E+00 0.  1.
         22    1    1    2    0    0 -0.32678185878E+00 -0.42656102124E+00  0.37861775121E+01  0.38241183090E+01  0.00000000000E+00 0. -1.
</event>
<event>
 5    1  0.3222854E+002  0.1599663E+01  0.7818608E-02  0.3353729E+00
         11   -1    0    0    0    0  0.00000000000E+00  0.00000000000E+00  0.39999999674E+01  0.40000000000E+01  0.51100000000E-03 0.  1.
    9000002   -1    0    0    0    0 -0.00000000000E+00 -0.00000000000E+00  0.00000000000E+00  0.93800000000E+00  0.93800000000E+00 0. -1.
         11    1    1    2    0    0  0.83696403152E-01  0.63095744136E-01  0.10786786839E+01  0.10837592560E+01  0.51100000000E-03 0.  1.
    9000002    1    1    2    0    0 -0.29319001121E+00 -0.23898127579E+00  0.96255789368E-01  0.10159633900E+01  0.93800000000E+00 0. -1.
         22    1    1    2    0    0  0.20949360805E+00  0.17588553165E+00  0.28250654941E+01  0.28382773539E+01  0.00000000000E+00 0.  1.
</event>
<event>
 5    1  0.3222854E+002  0.1599677E+01  0.7818608E-02  0.3353714E+00
         11   -1    0    0    0    0  0.00000000000E+00  0.00000000000E+00  0.39999999674E+01  0.40000000000E+01  0.51100000000E-03 0. -1.
    9000002   -1    0    0    0    0 -0.00000000000E+00 -0.00000000000E+00  0.00000000000E+00  0.93800000000E+00  0.93800000000E+00 0.  1.
         11    1    1    2    0    0  0.56776287812E-02 -0.82340793894E-01  0.10446709621E+01  0.10479264869E+01  0.51100000000E-03 0. -1.
    9000002    1    1    2    0    0 -0.20029037418E-01  0.30947796826E+00  0.64223118515E-01  0.99002342605E+00  0.93800000000E+00 0.  1.
         22    1    1    2    0    0  0.14351408637E-01 -0.22713717437E+00  0.28911058867E+01  0.29000500870E+01  0.00000000000E+00 0. -1.
</event>
<event>
 5    1  0.3222854E+002  0.1453426E+01  0.7818608E-02  0.3529625E+00
         11   -1    0    0    0    0  0.00000000000E+00  0.00000000000E+00  0.39999999674E+01  0.40000000000E+01  0.51100000000E-03 0.  1.
    9000002   -1    0    0    0    0 -0.00000000000E+00 -0.00000000000E+00  0.00000000000E+00  0.93800000000E+00  0.93800000000E+00 0. -1.
         11    1    1    2    0    0 -0.64905671737E+00 -0.81017840895E-01  0.25066650894E+01  0.25906000549E+01  0.51100000000E-03 0.  1.
    9000002    1    1    2    0    0  0.35427181545E+00  0.31731031069E+00  0.29698197167E+00  0.10928113488E+01  0.93800000000E+00 0. -1.
         22    1    1    2    0    0  0.29478490192E+00 -0.23629246980E+00  0.11963529063E+01  0.12545885963E+01  0.00000000000E+00 0. -1.
</event>
<event>
 5    1  0.3222854E+002  0.1599676E+01  0.7818608E-02  0.3353716E+00
         11   -1    0    0    0    0  0.00000000000E+00  0.00000000000E+00  0.39999999674E+01  0.40000000000E+01  0.51100000000E-03 0. -1.
    9000002   -1    0    0    0    0 -0.00000000000E+00 -0.00000000000E+00  0.00000000000E+00  0.93800000000E+00  0.93800000000E+00 0. -1.
         11    1    1    2    0    0  0.14090282666E-01  0.30590311852E-02  0.25418807921E+00  0.25459720044E+00  0.51100000000E-03 0.  1.
    9000002    1    1    2    0    0 -0.22673732937E+00 -0.43061208787E-01  0.35333966627E-01  0.96662121507E+00  0.93800000000E+00 0. -1.
         22    1    1    2    0    0  0.21264704671E+00  0.40002177602E-01  0.37104779215E+01  0.37167815845E+01  0.00000000000E+00 0. -1.
</event>
<event>
 5    1  0.3222854E+002  0.1599535E+01  0.7818608E-02  0.3353868E+00
         11   -1    0    0    0    0  0.00000000000E+00  0.00000000000E+00  0.39999999674E+01  0.40000000000E+01  0.51100000000E-03 0.  1.
    9000002   -1    0    0    0    0 -0.00000000000E+00 -0.00000000000E+00  0.00000000000E+00  0.93800000000E+00  0.93800000000E+00 0. -1.
         11    1    1    2    0    0  0.23449857148E+00  0.15839503278E+00  0.13525620711E+01  0.13818476703E+01  0.51100000000E-03 0.  1.
    9000002    1    1    2    0    0 -0.59136881702E+00 -0.41617709721E+00  0.37627791875E+00  0.12427186030E+01  0.93800000000E+00 0. -1.
         22    1    1    2    0    0  0.35687024555E+00  0.25778206443E+00  0.22711599775E+01  0.23134337268E+01  0.00000000000E+00 0.  1.
</event>
<event>
 5    1  0.3222854E+002  0.1599670E+01  0.7818608E-02  0.3353722E+00
         11   -1    0    0    0    0  0.00000000000E+00  0.00000000000E+00  0.39999999674E+01  0.40000000000E+01  0.51100000000E-03 0. -1.
    9000002   -1    0    0    0    0 -0.00000000000E+00 -0.00000000000E+00  0.00000000000E+00  0.93800000000E+00  0.93800000000E+00 0. -1.
         11    1    1    2    0    0 -0.36891430703E+00 -0.17037421710E+00  0.22881142740E+01  0.23239174537E+01  0.51100000000E-03 0. -1.
    9000002    1    1    2    0    0  0.59944746344E+00  0.27185140926E+00  0.30633160605E+00  0.11861380624E+01  0.93800000000E+00 0. -1.
         22    1    1    2    0    0 -0.23053315641E+00 -0.10147719216E+00  0.14055540873E+01  0.14279444839E+01  0.00000000000E+00 0. -1.
</event>
<event>
 5    1  0.3222854E+002  0.1599557E+01  0.7818608E-02  0.3353845E+00
         11   -1    0    0    0    0  0.00000000000E+00  0.00000000000E+00  0.39999999674E+01  0.40000000000E+01  0.51100000000E-03 0. -1.
    9000002   -1    0    0    0    0 -0.00000000000E+00 -0.00000000000E+00  0.00000000000E+00  0.93800000000E+00  0.93800000000E+00 0. -1.
         11    1    1    2    0    0 -0.37920120726E+00  0.43385359676E+00  0.20335321700E+01  0.21135931128E+01  0.51100000000E-03 0. -1.
    9000002    1    1    2    0    0  0.63283186482E+00 -0.69227391185E+00  0.68529279007E+00  0.14930470677E+01  0.93800000000E+00 0. -1.
         22    1    1    2    0    0 -0.25363065756E+00  0.25842031509E+00  0.12811750073E+01  0.13313598195E+01  0.00000000000E+00 0.  1.
</event>
<event>
 5    1  0.3222854E+002  0.1599677E+01  0.7818608E-02  0.3353714E+00
         11   -1    0    0    0    0  0.00000000000E+00  0.00000000000E+00  0.39999999674E+01  0.40000000000E+01  0.51100000000E-03 0.  1.
    9000002   -1    0    0    0    0 -0.00000000000E+00 -0.00000000000E+00  0.00000000000E+00  0.93800000000E+00  0.93800000000E+00 0.  1.
         11    1    1    2    0    0 -0.72642276224E-01 -0.11231307708E+00  0.15574659335E+01  0.15631991309E+01  0.51100000000E-03 0.  1.
    9000002    1    1    2    0    0  0.18256955554E+00  0.28341598466E+00  0.76101840658E-01  0.99964581384E+00  0.93800000000E+00 0.  1.
         22    1    1    2    0    0 -0.10992727931E+00 -0.17110290759E+00  0.23664321932E+01  0.23751550553E+01  0.00000000000E+00 0.  1.
</event>
<event>
 5    1  0.3222854E+002  0.1590949E+01  0.7818608E-02  0.3363246E+00
         11   -1    0    0    0    0  0.00000000000E+00  0.00000000000E+00  0.39999999674E+01  0.40000000000E+01  0.51100000000E-03 0.  1.
    9000002   -1    0    0    0    0 -0.00000000000E+00 -0.00000000000E+00  0.00000000000E+00  0.93800000000E+00  0.93800000000E+00 0. -1.
         11    1    1    2    0    0  0.40285359523E+00 -0.45637150345E+00  0.16749761747E+01  0.17821648114E+01  0.51100000000E-03 0.  1.
    9000002    1    1    2    0    0 -0.62362220115E+00  0.72756790187E+00  0.73772213600E+00  0.15304697487E+01  0.93800000000E+00 0. -1.
         22    1    1    2    0    0  0.22076860592E+00 -0.27119639841E+00  0.15873016567E+01  0.16253654399E+01  0.00000000000E+00 0. -1.
</event>
<event>
 5    1  0.3222854E+002  0.1591804E+01  0.7818608E-02  0.3362307E+00
         11   -1    0    0    0    0  0.00000000000E+00  0.00000000000E+00  0.39999999674E+01  0.40000000000E+01  0.51100000000E-03 0. -1.
    9000002   -1    0    0    0    0 -0.00000000000E+00 -0.00000000000E+00  0.00000000000E+00  0.93800000000E+00  0.93800000000E+00 0.  1.
         11    1    1    2    0    0  0.45924516737E-01  0.65836738221E-01  0.81597938544E+00  0.81991838370E+00  0.51100000000E-03 0. -1.
    9000002    1    1    2    0    0 -0.25778707380E+00  0.98315796325E-01  0.56784598834E-01  0.97938177535E+00  0.93800000000E+00 0.  1.
         22    1    1    2    0    0  0.21186255707E+00 -0.16415253455E+00  0.31272359831E+01  0.31386998410E+01  0.00000000000E+00 0. -1.
</event>
<event>
 5    1  0.3222854E+002  0.1598792E+01  0.7818608E-02  0.3354675E+00
         11   -1    0    0    0    0  0.00000000000E+00  0.00000000000E+00  0.39999999674E+01  0.40000000000E+01  0.51100000000E-03 0. -1.
    9000002   -1    0    0    0    0 -0.00000000000E+00 -0.00000000000E+00  0.00000000000E+00  0.93800000000E+00  0.93800000000E+00 0. -1.
         11    1    1    2    0    0  0.17837477732E-01  0.16965733806E-01  0.80056031124E+00  0.80093887706E+00  0.51100000000E-03 0. -1.
    9000002    1    1    2    0    0 -0.14775203864E+00 -0.21294744042E+00  0.45336281673E-01  0.97420565372E+00  0.93800000000E+00 0. -1.
         22    1    1    2    0    0  0.12991456091E+00  0.19598170661E+00  0.31541033744E+01  0.31628554692E+01  0.00000000000E+00 0. -1.
</event>
<event>
 5    1  0.3222854E+002  0.1599672E+01  0.7818608E-02  0.3353719E+00
         11   -1    0    0    0    0  0.00000000000E+00  0.00000000000E+00  0.39999999674E+01  0.40000000000E+01  0.51100000000E-03 0.  1.
    9000002   -1    0    0    0    0 -0.00000000000E+00 -0.00000000000E+00  0.00000000000E+00  0.93800000000E+00  0.93800000000E+00 0. -1.
         11    1    1    2    0    0  0.67022200448E-01  0.15249269608E+00  0.11392549763E+01  0.11513679515E+01  0.51100000000E-03 0.  1.
    9000002    1    1    2    0    0 -0.22805105537E+00 -0.51213135272E+00  0.21752542795E+00  0.11142024583E+01  0.93800000000E+00 0. -1.
         22    1    1    2    0    0  0.16102885492E+00  0.35963865664E+00  0.26432195632E+01  0.26724295902E+01  0.00000000000E+00 0.  1.
</event>
<event>
 5    1  0.3222854E+002  0.1599576E+01  0.7818608E-02  0.3353824E+00
         11   -1    0    0    0    0  0.00000000000E+00  0.00000000000E+00  0.39999999674E+01  0.40000000000E+01  0.51100000000E-03 0.  1.
    9000002   -1    0    0    0    0 -0.00000000000E+00 -0.00000000000E+00  0.00000000000E+00  0.93800000000E+00  0.93800000000E+00 0. -1.
         11    1    1    2    0    0 -0.12284298018E+00 -0.14137284622E-01  0.12797094512E+01  0.12856697870E+01  0.51100000000E-03 0.  1.
    9000002    1    1    2    0    0  0.34633720550E+00  0.61449698382E-01  0.83056633393E-01  0.10052203389E+01  0.93800000000E+00 0. -1.
         22    1    1    2    0    0 -0.22349422532E+00 -0.47312413760E-01  0.26372338828E+01  0.26471098741E+01  0.00000000000E+00 0. -1.
</event>
<event>
 5    1  0.3222854E+002  0.1599676E+01  0.7818608E-02  0.3353715E+00
         11   -1    0    0    0    0  0.00000000000E+00  0.00000000000E+00  0.39999999674E+01  0.40000000000E+01  0.51100000000E-03 0. -1.
    9000002   -1    0    0    0    0 -0.00000000000E+00 -0.00000000000E+00  0.00000000000E+00  0.93800000000E+00  0.93800000000E+00 0. -1.
         11    1    1    2    0    0 -0.55147633898E-01 -0.40420852213E-01  0.90065155593E+00  0.90324337425E+00  0.51100000000E-03 0. -1.
    9000002    1    1    2    0    0  0.23819827810E+00  0.17713952320E+00  0.58767083128E-01  0.98560357164E+00  0.93800000000E+00 0. -1.
         22    1    1    2    0    0 -0.18305064420E+00 -0.13671867099E+00  0.30405813283E+01  0.30491530541E+01  0.00000000000E+00 0. -1.
</event>
<event>
 5    1  0.3222854E+002  0.1515974E+01  0.7818608E-02  0.3449936E+00
         11   -1    0    0    0    0  0.00000000000E+00  0.00000000000E+00  0.39999999674E+01  0.40000000000E+01  0.51100000000E-03 0. -1.
    9000002   -1    0    0    0    0 -0.00000000000E+00 -0.00000000000E+00  0.00000000000E+00  0.93800000000E+00  0.93800000000E+00 0.  1.
         11    1    1    2    0    0  0.11595428727E+00  0.27761883529E+00  0.10589055867E+01  0.11008173859E+01  0.51100000000E-03 0. -1.
    9000002    1    1    2    0    0 -0.16999700475E+00  0.91278184622E-01  0.90051268489E-01  0.96186481356E+00  0.93800000000E+00 0.  1.
         22    1    1    2    0    0  0.54042717475E-01 -0.36889701991E+00  0.28510431121E+01  0.28753178005E+01  0.00000000000E+00 0. -1.
</event>
<event>
 5    1  0.3222854E+002  0.1451083E+01  0.7818608E-02  0.3532754E+00
         11   -1    0    0    0    0  0.00000000000E+00  0.00000000000E+00  0.39999999674E+01  0.40000000000E+01  0.51100000000E-03 0. -1.
    9000002   -1    0    0    0    0 -0.00000000000E+00 -0.00000000000E+00  0.00000000000E+00  0.93800000000E+00  0.93800000000E+00 0.  1.
         11    1    1    2    0    0 -0.24377298111E+00 -0.68663360867E-01  0.36190140978E+01  0.36278648299E+01  0.51100000000E-03 0. -1.
    9000002    1    1    2    0    0  0.36914885471E-01 -0.73036114051E-01  0.12161808358E+00  0.94938503305E+00  0.93800000000E+00 0.  1.
         22    1    1    2    0    0  0.20685809564E+00  0.14169947492E+00  0.25936778602E+00  0.36075013701E+00  0.00000000000E+00 0. -1.
</event>
<event>
 5    1  0.3222854E+002  0.1598612E+01  0.7818608E-02  0.3354871E+00
         11   -1    0    0    0    0  0.00000000000E+00  0.00000000000E+00  0.39999999674E+01  0.40000000000E+01  0.51100000000E-03 0. -1.
    9000002   -1    0    0    0    0 -0.00000000000E+00 -0.00000000000E+00  0.00000000000E+00  0.93800000000E+00  0.93800000000E+00 0. -1.
         11    1    1    2    0    0  0.93776166321E-01 -0.17045703734E+00  0.16908376619E+01  0.17019934874E+01  0.51100000000E-03 0. -1.
    9000002    1    1    2    0    0 -0.28685640985E+00  0.43139110063E+00  0.18527072618E+00  0.10874530443E+01  0.93800000000E+00 0. -1.
         22    1    1    2    0    0  0.19308024353E+00 -0.26093406330E+00  0.21238915793E+01  0.21485534683E+01  0.00000000000E+00 0. -1.
</event>
<event>
 5    1  0.3222854E+002  0.1599553E+01  0.7818608E-02  0.3353849E+00
         11   -1    0    0    0    0  0.00000000000E+00  0.00000000000E+00  0.39999999674E+01  0.40000000000E+01  0.51100000000E-03 0. -1.
    9000002   -1    0    0    0    0 -0.00000000000E+00 -0.00000000000E+00  0.00000000000E+00  0.93800000000E+00  0.93800000000E+00 0.  1.
         11    1    1    2    0    0 -0.25007748877E-01 -0.25235927797E-01  0.35841932276E+00  0.36017622299E+00  0.51100000000E-03 0. -1.
    9000002    1    1    2    0    0  0.22591760057E+00  0.20767813170E+00  0.62959511286E-01  0.98892713012E+00  0.93800000000E+00 0.  1.
         22    1    1    2    0    0 -0.20090985169E+00 -0.18244220390E+00  0.35786211333E+01  0.35888966469E+01  0.00000000000E+00 0. -1.
</event>
<event>
 5    1  0.3222854E+002  0.1599677E+01  0.7818608E-02  0.3353714E+00
         11   -1    0    0    0    0  0.00000000000E+00  0.00000000000E+00  0.39999999674E+01  0.40000000000E+01  0.51100000000E-03 0. -1.
    9000002   -1    0    0    0    0 -0.00000000000E+00 -0.00000000000E+00  0.00000000000E+00  0.93800000000E+00  0.93800000000E+00 0.  1.
         11    1    1    2    0    0 -0.31549279590E-01 -0.34546241731E-01  0.67566000714E+00  0.67727801251E+00  0.51100000000E-03 0.  1.
    9000002    1    1    2    0    0  0.18313971591E+00  0.20420818156E+00  0.50080158960E-01  0.97856689055E+00  0.93800000000E+00 0.  1.
         22    1    1    2    0    0 -0.15159043632E+00 -0.16966193983E+00  0.32742598013E+01  0.32821550969E+01  0.00000000000E+00 0. -1.
</event>
<event>
 5    1  0.3222854E+002  0.1565964E+01  0.7818608E-02  0.3391154E+00
         11   -1    0    0    0    0  0.00000000000E+00  0.00000000000E+00  0.39999999674E+01  0.40000000000E+01  0.51100000000E-03 0. -1.
    9000002   -1    0    0    0    0 -0.00000000000E+00 -0.00000000000E+00  0.00000000000E+00  0.93800000000E+00  0.93800000000E+00 0.  1.
         11    1    1    2    0    0 -0.88000161179E-01 -0.12549340503E+00  0.92732723399E+00  0.93990886957E+00  0.51100000000E-03 0. -1.
    9000002    1    1    2    0    0 -0.13195710557E+00 -0.81681927142E-01  0.41249808781E-01  0.95164602750E+00  0.93800000000E+00 0.  1.
         22    1    1    2    0    0  0.21995726675E+00  0.20717533217E+00  0.30314229246E+01  0.30464451029E+01  0.00000000000E+00 0.  1.
</event>
<event>
 5    1  0.3222854E+002  0.1599659E+01  0.7818608E-02  0.3353733E+00
         11   -1    0    0    0    0  0.00000000000E+00  0.00000000000E+00  0.39999999674E+01  0.40000000000E+01  0.51100000000E-03 0. -1.
    9000002   -1    0    0    0    0 -0.00000000000E+00 -0.00000000000E+00  0.00000000000E+00  0.93800000000E+00  0.93800000000E+00 0. -1.
         11    1    1    2    0    0 -0.16400806847E+00  0.47456024722E-02  0.10416882609E+01  0.10545311096E+01  0.51100000000E-03 0. -1.
    9000002    1    1    2    0    0  0.59992379296E+00 -0.39466748961E-02  0.25113269165E+00  0.11414183118E+01  0.93800000000E+00 0. -1.
         22    1    1    2    0    0 -0.43591572450E+00 -0.79892757610E-03  0.27071790148E+01  0.27420505786E+01  0.00000000000E+00 0. -1.
</event>
<event>
 5    1  0.3222854E+002  0.1599666E+01  0.7818608E-02  0.3353726E+00
         11   -1    0    0    0    0  0.00000000000E+00  0.00000000000E+00  0.39999999674E+01  0.40000000000E+01  0.51100000000E-03 0. -1.
    9000002   -1    0    0    0    0 -0.00000000000E+00 -0.00000000000E+00  0.00000000000E+00  0.93800000000E+00  0.93800000000E+00 0.  1.
         11    1    1    2    0    0 -0.14639943352E+00 -0.33007058823E+00  0.13555677655E+01  0.14028341367E+01  0.51100000000E-03 0. -1.
    9000002    1    1    2    0    0  0.37401830570E+00  0.82240917575E+00  0.62572973820E+00  0.14448627100E+01  0.93800000000E+00 0.  1.
         22    1    1    2    0    0 -0.22761887218E+00 -0.49233858752E+00  0.20187024637E+01  0.20903031533E+01  0.00000000000E+00 0. -1.
</event>
<event>
 5    1  0.3222854E+002  0.1599346E+01  0.7818608E-02  0.3354073E+00
         11   -1    0    0    0    0  0.00000000000E+00  0.00000000000E+00  0.39999999674E+01  0.40000000000E+01  0.51100000000E-03 0.  1.
    9000002   -1    0    0    0    0 -0.00000000000E+00 -0.00000000000E+00  0.00000000000E+00  0.93800000000E+00  0.93800000000E+00 0. -1.
         11    1    1    2    0    0 -0.11538816669E+00  0.49321523063E-01  0.12063385947E+01  0.12128479327E+01  0.51100000000E-03 0.  1.
    9000002    1    1    2    0    0  0.42862145044E+00 -0.13044688145E+00  0.13658034125E+00  0.10484421425E+01  0.93800000000E+00 0. -1.
         22    1    1    2    0    0 -0.31323328375E+00  0.81125358391E-01  0.26570810314E+01  0.26767099248E+01  0.00000000000E+00 0.  1.
</event>
<event>
 5    1  0.3222854E+002  0.1599482E+01  0.7818608E-02  0.3353925E+00
         11   -1    0    0    0    0  0.00000000000E+00  0.00000000000E+00  0.39999999674E+01  0.40000000000E+01  0.51100000000E-03 0.  1.
    9000002   -1    0    0    0    0 -0.00000000000E+00 -0.00000000000E+00  0.00000000000E+00  0.93800000000E+00  0.93800000000E+00 0. -1.
         11    1    1    2    0    0  0.35809706189E-03  0.36983026945E-01  0.79499990146E+00  0.79585989782E+00  0.51100000000E-03 0.  1.
    9000002    1    1    2    0    0  0.45047356930E-01 -0.23232939185E+00  0.37315322049E-01  0.96811292933E+00  0.93800000000E+00 0. -1.
         22    1    1    2    0    0 -0.45405453992E-01  0.19534636491E+00  0.31676847439E+01  0.31740271728E+01  0.00000000000E+00 0.  1.
</event>
<event>
 5    1  0.3222854E+002  0.1586059E+01  0.7818608E-02  0.3368635E+00
         11   -1    0    0    0    0  0.00000000000E+00  0.00000000000E+00  0.39999999674E+01  0.40000000000E+01  0.51100000000E-03 0. -1.
    9000002   -1    0    0    0    0 -0.00000000000E+00 -0.00000000000E+00  0.00000000000E+00  0.93800000000E+00  0.93800000000E+00 0.  1.
         11    1    1    2    0    0  0.31840100139E+00 -0.18859553039E+00  0.18611914917E+01  0.18976252269E+01  0.51100000000E-03 0. -1.
    9000002    1    1    2    0    0 -0.36644397073E+00  0.44744776008E+00  0.24567428716E+00  0.11290219383E+01  0.93800000000E+00 0.  1.
         22    1    1    2    0    0  0.48042969335E-01 -0.25885222970E+00  0.18931341885E+01  0.19113528348E+01  0.00000000000E+00 0. -1.
</event>
<event>
 5    1  0.3222854E+002  0.1598109E+01  0.7818608E-02  0.3355418E+00
         11   -1    0    0    0    0  0.00000000000E+00  0.00000000000E+00  0.39999999674E+01  0.40000000000E+01  0.51100000000E-03 0.  1.
    9000002   -1    0    0    0    0 -0.00000000000E+00 -0.00000000000E+00  0.00000000000E+00  0.93800000000E+00  0.93800000000E+00 0.  1.
         11    1    1    2    0    0  0.70903411943E-01 -0.12436652150E+00  0.17329514497E+01  0.17388545982E+01  0.51100000000E-03 0.  1.
    9000002    1    1    2    0    0 -0.24904607789E+00  0.22114878448E+00  0.75496060457E-01  0.99823563798E+00  0.93800000000E+00 0.  1.
         22    1    1    2    0    0  0.17814266595E+00 -0.96782262982E-01  0.21915524572E+01  0.22009097638E+01  0.00000000000E+00 0.  1.
</event>
<event>
 5    1  0.3222854E+002  0.1486220E+01  0.7818608E-02  0.3486939E+00
         11   -1    0    0    0    0  0.00000000000E+00  0.00000000000E+00  0.39999999674E+01  0.40000000000E+01  0.51100000000E-03 0. -1.
    9000002   -1    0    0    0    0 -0.00000000000E+00 -0.00000000000E+00  0.00000000000E+00  0.93800000000E+00  0.93800000000E+00 0. -1.
         11    1    1    2    0    0  0.29130487047E+00  0.61754826465E-01  0.20795641515E+00  0.36320561377E+00  0.51100000000E-03 0. -1.
    9000002    1    1    2    0    0 -0.20682184005E+00 -0.37663284630E+00  0.30968375422E+00  0.10772073162E+01  0.93800000000E+00 0. -1.
         22    1    1    2    0    0 -0.84483030419E-01  0.31487801984E+00  0.34823597980E+01  0.34975870700E+01  0.00000000000E+00 0. -1.
</event>
<event>
 5    1  0.3222854E+002  0.1599256E+01  0.7818608E-02  0.3354172E+00
         11   -1    0    0    0    0  0.00000000000E+00  0.00000000000E+00  0.39999999674E+01  0.40000000000E+01  0.51100000000E-03 0.  1.
    9000002   -1    0    0    0    0 -0.00000000000E+00 -0.00000000000E+00  0.00000000000E+00  0.93800000000E+00  0.93800000000E+00 0. -1.
         11    1    1    2    0    0 -0.18787811483E+00 -0.42601807899E-01  0.17013867867E+01  0.17122588470E+01  0.51100000000E-03 0.  1.
    9000002    1    1    2    0    0  0.46944421555E+00  0.12810814442E+00  0.16211313255E+00  0.10690716702E+01  0.93800000000E+00 0. -1.
         22    1    1    2    0    0 -0.28156610071E+00 -0.85506336523E-01  0.21365000481E+01  0.21566694829E+01  0.00000000000E+00 0. -1.
</event>
<event>
 5    1  0.3222854E+002  0.1599408E+01  0.7818608E-02  0.3354006E+00
         11   -1    0    0    0    0  0.00000000000E+00  0.00000000000E+00  0.39999999674E+01  0.40000000000E+01  0.51100000000E-03 0. -1.
    9000002   -1    0    0    0    0 -0.00000000000E+00 -0.00000000000E+00  0.00000000000E+00  0.93800000000E+00  0.93800000000E+00 0. -1.
         11    1    1    2    0    0  0.56856856145E-01 -0.31067111157E-01  0.61178638798E+00  0.61520786172E+00  0.51100000000E-03 0. -1.
    9000002    1    1    2    0    0 -0.33607179541E+00  0.28444782888E+00  0.13170761291E+00  0.10445313372E+01  0.93800000000E+00 0. -1.
         22    1    1    2    0    0  0.27921493926E+00 -0.25338071773E+00  0.32565059665E+01  0.32782608011E+01  0.00000000000E+00 0. -1.
</event>
<event>
 5    1  0.3222854E+002  0.1599676E+01  0.7818608E-02  0.3353715E+00
         11   -1    0    0    0    0  0.00000000000E+00  0.00000000000E+00  0.39999999674E+01  0.40000000000E+01  0.51100000000E-03 0.  1.
    9000002   -1    0    0    0    0 -0.00000000000E+00 -0.00000000000E+00  0.00000000000E+00  0.93800000000E+00  0.93800000000E+00 0. -1.
         11    1    1    2    0    0 -0.11294344701E-01 -0.51018462642E-01  0.70422891212E+00  0.70616504271E+00  0.51100000000E-03 0.  1.
    9000002    1    1    2    0    0  0.66840103230E-01  0.28749917009E+00  0.58095726645E-01  0.98505963558E+00  0.93800000000E+00 0. -1.
         22    1    1    2    0    0 -0.55545758529E-01 -0.23648070744E+00  0.32376753286E+01  0.32467753217E+01  0.00000000000E+00 0.  1.
</event>
<event>
 5    1  0.3222854E+002  0.1599673E+01  0.7818608E-02  0.3353719E+00
         11   -1    0    0    0    0  0.00000000000E+00  0.00000000000E+00  0.39999999674E+01  0.40000000000E+01  0.51100000000E-03 0.  1.
    9000002   -1    0    0    0    0 -0.00000000000E+00 -0.00000000000E+00  0.00000000000E+00  0.93800000000E+00  0.93800000000E+00 0.  1.
         11    1    1    2    0    0 -0.49778101046E+00  0.29821094055E+00  0.16600896274E+01  0.17585828191E+01  0.51100000000E-03 0.  1.
    9000002    1    1    2    0    0  0.91125928844E+00 -0.55122447419E+00  0.95103230670E+00  0.17083759423E+01  0.93800000000E+00 0.  1.
         22    1    1    2    0    0 -0.41347827798E+00  0.25301353364E+00  0.13888780332E+01  0.14710412386E+01  0.00000000000E+00 0.  1.
</event>
<event>
 5    1  0.3222854E+002  0.1598828E+01  0.7818608E-02  0.3354637E+00
         11   -1    0    0    0    0  0.00000000000E+00  0.00000000000E+00  0.39999999674E+01  0.40000000000E+01  0.51100000000E-03 0. -1.
    9000002   -1    0    0    0    0 -0.00000000000E+00 -0.00000000000E+00  0.00000000000E+00  0.93800000000E+00  0.93800000000E+00 0.  1.
         11    1    1    2    0    0  0.58027203802E-01  0.33656190878E-02  0.12256503607E+01  0.12270279344E+01  0.51100000000E-03 0. -1.
    9000002    1    1    2    0    0 -0.28955757946E+00  0.84946850403E-02  0.56590078433E-01  0.98334235568E+00  0.93800000000E+00 0.  1.
         22    1    1    2    0    0  0.23153037566E+00 -0.11860304128E-01  0.27177595282E+01  0.27276297100E+01  0.00000000000E+00 0. -1.
</event>
<event>
 5    1  0.3222854E+002  0.1587932E+01  0.7818608E-02  0.3366566E+00
         11   -1    0    0    0    0  0.00000000000E+00  0.00000000000E+00  0.39999999674E+01  0.40000000000E+01  0.51100000000E-03 0. -1.
    9000002   -1    0    0    0    0 -0.00000000000E+00 -0.00000000000E+00  0.00000000000E+00  0.93800000000E+00  0.93800000000E+00 0.  1.
         11    1    1    2    0    0  0.11881813814E+00 -0.13914864406E-01  0.98215616040E+00  0.98941515955E+00  0.51100000000E-03 0. -1.
    9000002    1    1    2    0    0 -0.11640633413E+00 -0.21794306484E+00  0.49563760101E-01  0.97126215846E+00  0.93800000000E+00 0.  1.
         22    1    1    2    0    0 -0.24118040142E-02  0.23185792925E+00  0.29682800469E+01  0.29773226820E+01  0.00000000000E+00 0. -1.
</event>
<event>
 5    1  0.3222854E+002  0.1599606E+01  0.7818608E-02  0.3353791E+00
         11   -1    0    0    0    0  0.00000000000E+00  0.00000000000E+00  0.39999999674E+01  0.40000000000E+01  0.51100000000E-03 0. -1.
    9000002   -1    0    0    0    0 -0.00000000000E+00 -0.00000000000E+00  0.00000000000E+00  0.93800000000E+00  0.93800000000E+00 0. -1.
         11    1    1    2    0    0 -0.31929960383E+00 -0.24493352290E+00  0.19641494691E+01  0.20049508886E+01  0.51100000000E-03 0. -1.
    9000002    1    1    2    0    0  0.56965996930E+00  0.45077838469E+00  0.38000107617E+00  0.12457762442E+01  0.93800000000E+00 0. -1.
         22    1    1    2    0    0 -0.25036036547E+00 -0.20584486179E+00  0.16558494221E+01  0.16872728672E+01  0.00000000000E+00 0. -1.
</event>
<event>
 5    1  0.3222854E+002  0.1567544E+01  0.7818608E-02  0.3389361E+00
         11   -1    0    0    0    0  0.00000000000E+00  0.00000000000E+00  0.39999999674E+01  0.40000000000E+01  0.51100000000E-03 0. -1.
    9000002   -1    0    0    0    0 -0.00000000000E+00 -0.00000000000E+00  0.00000000000E+00  0.93800000000E+00  0.93800000000E+00 0. -1.
         11    1    1    2    0    0 -0.37593381672E-01  0.94944856831E-01  0.15938999615E+00  0.18929664597E+00  0.51100000000E-03 0. -1.
    9000002    1    1    2    0    0  0.16186807729E+00 -0.25909195496E+00  0.87959590739E-01  0.99040941291E+00  0.93800000000E+00 0. -1.
         22    1    1    2    0    0 -0.12427469562E+00  0.16414709813E+00  0.37526503805E+01  0.37582939411E+01  0.00000000000E+00 0. -1.
</event>
<event>
 5    1  0.3222854E+002  0.1599675E+01  0.7818608E-02  0.3353716E+00
         11   -1    0    0    0    0  0.00000000000E+00  0.00000000000E+00  0.39999999674E+01  0.40000000000E+01  0.51100000000E-03 0. -1.
    9000002   -1    0    0    0    0 -0.00000000000E+00 -0.00000000000E+00  0.00000000000E+00  0.93800000000E+00  0.93800000000E+00 0. -1.
         11    1    1    2    0    0 -0.43611447660E-01  0.12081773117E-01  0.49046624430E+00  0.49254982035E+00  0.51100000000E-03 0. -1.
    9000002    1    1    2    0    0  0.35354258863E+00 -0.10074379223E+00  0.90796400174E-01  0.10115481501E+01  0.93800000000E+00 0. -1.
         22    1    1    2    0    0 -0.30993114097E+00  0.88662019109E-01  0.34187373229E+01  0.34339020296E+01  0.00000000000E+00 0. -1.
</event>
<event>
 5    1  0.3222854E+002  0.1599654E+01  0.7818608E-02  0.3353739E+00
         11   -1    0    0    0    0  0.00000000000E+00  0.00000000000E+00  0.39999999674E+01  0.40000000000E+01  0.51100000000E-03 0.  1.
    9000002   -1    0    0    0    0 -0.00000000000E+00 -0.00000000000E+00  0.00000000000E+00  0.93800000000E+00  0.93800000000E+00 0. -1.
         11    1    1    2    0    0  0.36491855191E-02 -0.15784896997E-02  0.49557582627E-01  0.49719445909E-01  0.51100000000E-03 0.  1.
    9000002    1    1    2    0    0 -0.19978517084E+00  0.14806294698E+00  0.41090859380E-01  0.97127195444E+00  0.93800000000E+00 0. -1.
         22    1    1    2    0    0  0.19613598532E+00 -0.14648445728E+00  0.39093515254E+01  0.39170085997E+01  0.00000000000E+00 0.  1.
</event>
<event>
 5    1  0.3222854E+002  0.1579437E+01  0.7818608E-02  0.3375988E+00
         11   -1    0    0    0    0  0.00000000000E+00  0.00000000000E+00  0.39999999674E+01  0.40000000000E+01  0.51100000000E-03 0.  1.
    9000002   -1    0    0    0    0 -0.00000000000E+00 -0.00000000000E+00  0.00000000000E+00  0.93800000000E+00  0.93800000000E+00 0. -1.
         11    1    1    2    0    0 -0.33125357835E-01 -0.11047825905E+00  0.17853945950E+01  0.17891162220E+01  0.51100000000E-03 0.  1.
    9000002    1    1    2    0    0  0.91300881472E-01 -0.13269885397E+00  0.32275420866E-01  0.95227650375E+00  0.93800000000E+00 0. -1.
         22    1    1    2    0    0 -0.58175523637E-01  0.24317711302E+00  0.21823299515E+01  0.21966072742E+01  0.00000000000E+00 0.  1.
</event>
<event>
 5    1  0.3222854E+002  0.1599612E+01  0.7818608E-02  0.3353784E+00
         11   -1    0    0    0    0  0.00000000000E+00  0.00000000000E+00  0.39999999674E+01  0.40000000000E+01  0.51100000000E-03 0. -1.
    9000002   -1    0    0    0    0 -0.00000000000E+00 -0.00000000000E+00  0.00000000000E+00  0.93800000000E+00  0.93800000000E+00 0. -1.
         11    1    1    2    0    0  0.65486536877E-01 -0.23371218077E+00  0.19579522164E+01  0.19729386743E+01  0.51100000000E-03 0. -1.
    9000002    1    1    2    0    0 -0.10970374204E+00  0.46063542113E+00  0.15288954421E+00  0.10618093590E+01  0.93800000000E+00 0. -1.
         22    1    1    2    0    0  0.44217205160E-01 -0.22692324036E+00  0.18891582068E+01  0.19032519666E+01  0.00000000000E+00 0. -1.
</event>
<event>
 5    1  0.3222854E+002  0.1595422E+01  0.7818608E-02  0.3358347E+00
         11   -1    0    0    0    0  0.00000000000E+00  0.00000000000E+00  0.39999999674E+01  0.40000000000E+01  0.51100000000E-03 0. -1.
    9000002   -1    0    0    0    0 -0.00000000000E+00 -0.00000000000E+00  0.00000000000E+00  0.93800000000E+00  0.93800000000E+00 0. -1.
         11    1    1    2    0    0 -0.11403255524E+00  0.72714479458E-01  0.93414099208E+00  0.94388053979E+00  0.51100000000E-03 0. -1.
    9000002    1    1    2    0    0  0.43889380814E+00 -0.24511383348E-01  0.13469293336E+00  0.10446122577E+01  0.93800000000E+00 0. -1.
         22    1    1    2    0    0 -0.32486125291E+00 -0.48203096110E-01  0.29311660419E+01  0.29495072025E+01  0.00000000000E+00 0. -1.
</event>
<event>
 5    1  0.3222854E+002  0.1559058E+01  0.7818608E-02  0.3399035E+00
         11   -1    0    0    0    0  0.00000000000E+00  0.00000000000E+00  0.39999999674E+01  0.40000000000E+01  0.51100000000E-03 0.  1.
    9000002   -1    0    0    0    0 -0.00000000000E+00 -0.00000000000E+00  0.00000000000E+00  0.93800000000E+00  0.93800000000E+00 0.  1.
         11    1    1    2    0    0  0.90493572453E-01  0.21373849865E+00  0.19238906800E+01  0.19378412841E+01  0.51100000000E-03 0.  1.
    9000002    1    1    2    0    0 -0.18595063758E+00  0.58842661859E-01  0.56203557591E-01  0.95970981987E+00  0.93800000000E+00 0.  1.
         22    1    1    2    0    0  0.95457065126E-01 -0.27258116051E+00  0.20199057298E+01  0.20404488961E+01  0.00000000000E+00 0. -1.
</event>
<event>
 5    1  0.3222854E+002  0.1590165E+01  0.7818608E-02  0.3364108E+00
         11   -1    0    0    0    0  0.00000000000E+00  0.00000000000E+00  0.39999999674E+01  0.40000000000E+01  0.51100000000E-03 0.  1.
    9000002   -1    0    0    0    0 -0.00000000000E+00 -0.00000000000E+00  0.00000000000E+00  0.93800000000E+00  0.93800000000E+00 0. -1.
         11    1    1    2    0    0  0.19923537888E+00 -0.18892134629E+00  0.18544471003E+01  0.18746627217E+01  0.51100000000E-03 0.  1.
    9000002    1    1    2    0    0 -0.41008942081E+00  0.14909917677E+00  0.13723765321E+00  0.10435909501E+01  0.93800000000E+00 0. -1.
         22    1    1    2    0    0  0.21085404193E+00  0.39822169526E-01  0.20083152139E+01  0.20197463282E+01  0.00000000000E+00 0. -1.
</event>
<event>
 5    1  0.3222854E+002  0.1599479E+01  0.7818608E-02  0.3353930E+00
         11   -1    0    0    0    0  0.00000000000E+00  0.00000000000E+00  0.39999999674E+01  0.40000000000E+01  0.51100000000E-03 0. -1.
    9000002   -1    0    0    0    0 -0.00000000000E+00 -0.00000000000E+00  0.00000000000E+00  0.93800000000E+00  0.93800000000E+00 0.  1.
         11    1    1    2    0    0 -0.18046541764E+00  0.48775174625E-01  0.16228949550E+01  0.16336263590E+01  0.51100000000E-03 0. -1.
    9000002    1    1    2    0    0  0.45147483042E+00 -0.14758552715E+00  0.15399121733E+00  0.10626233130E+01  0.93800000000E+00 0.  1.
         22    1    1    2    0    0 -0.27100941277E+00  0.98810352523E-01  0.22231137950E+01  0.22417503280E+01  0.00000000000E+00 0. -1.
</event>
<event>
 5    1  0.3222854E+002  0.1599587E+01  0.7818608E-02  0.3353811E+00
         11   -1    0    0    0    0  0.00000000000E+00  0.00000000000E+00  0.39999999674E+01  0.40000000000E+01  0.51100000000E-03 0.  1.
    9000002   -1    0    0    0    0 -0.00000000000E+00 -0.00000000000E+00  0.00000000000E+00  0.93800000000E+00  0.93800000000E+00 0. -1.
         11    1    1    2    0    0  0.38583724306E-01 -0.78461410581E-01  0.10655497650E+01  0.10691311704E+01  0.51100000000E-03 0.  1.
    9000002    1    1    2    0    0 -0.11494362483E+00  0.26532858564E+00  0.55792634880E-01  0.98314195992E+00  0.93800000000E+00 0. -1.
         22    1    1    2    0    0  0.76359900527E-01 -0.18686717506E+00  0.28786575675E+01  0.28857268696E+01  0.00000000000E+00 0.  1.
</event>
<event>
 5    1  0.3222854E+002  0.1593955E+01  0.7818608E-02  0.3359951E+00
         11   -1    0    0    0    0  0.00000000000E+00  0.00000000000E+00  0.39999999674E+01  0.40000000000E+01  0.51100000000E-03 0.  1.
    9000002   -1    0    0    0    0 -0.00000000000E+00 -0.00000000000E+00  0.00000000000E+00  0.93800000000E+00  0.93800000000E+00 0. -1.
         11    1    1    2    0    0 -0.32464113629E-01  0.93376541120E-01  0.12043801581E+01  0.12084307690E+01  0.51100000000E-03 0.  1.
    9000002    1    1    2    0    0  0.24702247997E+00 -0.70052116730E-01  0.48216866136E-01  0.97370235229E+00  0.93800000000E+00 0. -1.
         22    1    1    2    0    0 -0.21455836634E+00 -0.23324424390E-01  0.27474029431E+01  0.27558668787E+01  0.00000000000E+00 0.  1.
</event>
<event>
 5    1  0.3222854E+002  0.1599677E+01  0.7818608E-02  0.3353714E+00
         11   -1    0    0    0    0  0.00000000000E+00  0.00000000000E+00  0.39999999674E+01  0.40000000000E+01  0.51100000000E-03 0. -1.
    9000002   -1    0    0    0    0 -0.00000000000E+00 -0.00000000000E+00  0.00000000000E+00  0.93800000000E+00  0.93800000000E+00 0.  1.
         11    1    1    2    0    0 -0.15489563840E-01 -0.15096431973E+00  0.14130114684E+01  0.14211375104E+01  0.51100000000E-03 0. -1.
    9000002    1    1    2    0    0  0.41923022333E-01  0.41550922641E+00  0.11791323458E+00  0.10335148707E+01  0.93800000000E+00 0.  1.
         22    1    1    2    0    0 -0.26433458493E-01 -0.26454490668E+00  0.24690752643E+01  0.24833476189E+01  0.00000000000E+00 0. -1.
</event>
<event>
 5    1  0.3222854E+002  0.1598979E+01  0.7818608E-02  0.3354472E+00
         11   -1    0    0    0    0  0.00000000000E+00  0.00000000000E+00  0.39999999674E+01  0.40000000000E+01  0.51100000000E-03 0. -1.
    9000002   -1    0    0    0    0 -0.00000000000E+00 -0.00000000000E+00  0.00000000000E+00  0.93800000000E+00  0.93800000000E+00 0. -1.
         11    1    1    2    0    0 -0.25656217500E-02  0.36346313070E-02  0.23950016722E+00  0.23954203008E+00  0.51100000000E-03 0. -1.
    9000002    1    1    2    0    0  0.15836454001E+00  0.16215759615E+00  0.34597994771E-01  0.96561660858E+00  0.93800000000E+00 0. -1.
         22    1    1    2    0    0 -0.15579891826E+00 -0.16579222745E+00  0.37259018054E+01  0.37328413613E+01  0.00000000000E+00 0. -1.
</event>
<event>
 5    1  0.3222854E+002  0.1599671E+01  0.7818608E-02  0.3353721E+00
         11   -1    0    0    0    0  0.00000000000E+00  0.00000000000E+00  0.39999999674E+01  0.40000000000E+01  0.51100000000E-03 0.  1.
    9000002   -1    0    0    0    0 -0.00000000000E+00 -0.00000000000E+00  0.00000000000E+00  0.93800000000E+00  0.93800000000E+00 0.  1.
         11    1    1    2    0    0  0.70081548487E-01  0.14194363856E+00  0.15409271135E+01  0.15490371365E+01  0.51100000000E-03 0.  1.
    9000002    1    1    2    0    0 -0.17012464651E+00 -0.35634751799E+00  0.10511164765E+00  0.10231414406E+01  0.93800000000E+00 0.  1.
         22    1    1    2    0    0  0.10004309802E+00  0.21440387943E+00  0.23539612062E+01  0.23658214230E+01  0.00000000000E+00 0.  1.
</event>
<event>
 5    1  0.3222854E+002  0.1599658E+01  0.7818608E-02  0.3353735E+00
         11   -1    0    0    0    0  0.00000000000E+00  0.00000000000E+00  0.39999999674E+01  0.40000000000E+01  0.51100000000E-03 0. -1.
    9000002   -1    0    0    0    0 -0.00000000000E+00 -0.00000000000E+00  0.00000000000E+00  0.93800000000E+00  0.93800000000E+00 0.  1.
         11    1    1    2    0    0 -0.58760874831E-01 -0.12894594927E+00  0.15338457087E+01  0.15403774918E+01  0.51100000000E-03 0. -1.
    9000002    1    1    2    0    0  0.15890953620E+00  0.33761276355E+00  0.93621161006E-01  0.10138261886E+01  0.93800000000E+00 0.  1.
         22    1    1    2    0    0 -0.10014866137E+00 -0.20866681428E+00  0.23725330977E+01  0.23837963196E+01  0.00000000000E+00 0.  1.
</event>
<event>
 5    1  0.3222854E+002  0.1597828E+01  0.7818608E-02  0.3355724E+00
         11   -1    0    0    0    0  0.00000000000E+00  0.00000000000E+00  0.39999999674E+01  0.40000000000E+01  0.51100000000E-03 0. -1.
    9000002   -1    0    0    0    0 -0.00000000000E+00 -0.00000000000E+00  0.00000000000E+00  0.93800000000E+00  0.93800000000E+00 0. -1.
         11    1    1    2    0    0  0.34344734527E-01 -0.45621591498E-02  0.19236098081E+00  0.19545685494E+00  0.51100000000E-03 0. -1.
    9000002    1    1    2    0    0 -0.59344568869E+00 -0.34833705908E+00  0.33938769720E+00  0.12118351790E+01  0.93800000000E+00 0. -1.
         22    1    1    2    0    0  0.55910095416E+00  0.35289921823E+00  0.34682512894E+01  0.35307079660E+01  0.00000000000E+00 0. -1.
</event>
<event>
 5    1  0.3222854E+002  0.1599665E+01  0.7818608E-02  0.3353727E+00
         11   -1    0    0    0    0  0.00000000000E+00  0.00000000000E+00  0.39999999674E+01  0.40000000000E+01  0.51100000000E-03 0. -1.
    9000002   -1    0    0    0    0 -0.00000000000E+00 -0.00000000000E+00  0.00000000000E+00  0.93800000000E+00  0.93800000000E+00 0. -1.
         11    1    1    2    0    0 -0.11022710316E+00 -0.25574216992E+00  0.15323079373E+01  0.15574087285E+01  0.51100000000E-03 0. -1.
    9000002    1    1    2    0    0  0.26583961165E+00  0.60573925198E+00  0.30966359662E+00  0.11888340017E+01  0.93800000000E+00 0. -1.
         22    1    1    2    0    0 -0.15561250850E+00 -0.34999708207E+00  0.21580284334E+01  0.21917572698E+01  0.00000000000E+00 0. -1.
</event>
<event>
 5    1  0.3222854E+002  0.1500880E+01  0.7818608E-02  0.3468510E+00
         11   -1    0    0    0    0  0.00000000000E+00  0.00000000000E+00  0.39999999674E+01  0.40000000000E+01  0.51100000000E-03 0. -1.
    9000002   -1    0    0    0    0 -0.00000000000E+00 -0.00000000000E+00  0.00000000000E+00  0.93800000000E+00  0.93800000000E+00 0. -1.
         11    1    1    2    0    0  0.25698318477E+00  0.22543743446E+00  0.22661078547E+01  0.22917476878E+01  0.51100000000E-03 0. -1.
    9000002    1    1    2    0    0 -0.76872768781E-01  0.14151980899E+00  0.94201838307E-01  0.95637611077E+00  0.93800000000E+00 0. -1.
         22    1    1    2    0    0 -0.18011041599E+00 -0.36695724345E+00  0.16396902743E+01  0.16898762014E+01  0.00000000000E+00 0. -1.
</event>
<event>
 5    1  0.3222854E+002  0.1592907E+01  0.7818608E-02  0.3361098E+00
         11   -1    0    0    0    0  0.00000000000E+00  0.00000000000E+00  0.39999999674E+01  0.40000000000E+01  0.51100000000E-03 0. -1.
    9000002   -1    0    0    0    0 -0.00000000000E+00 -0.00000000000E+00  0.00000000000E+00  0.93800000000E+00  0.93800000000E+00 0.  1.
         11    1    1    2    0    0 -0.11536467871E+00  0.12023270480E+00  0.83674958998E+00  0.85317937730E+00  0.51100000000E-03 0. -1.
    9000002    1    1    2    0    0  0.15907993889E+00 -0.63764953911E+00  0.31252525382E+00  0.11871897051E+01  0.93800000000E+00 0.  1.
         22    1    1    2    0    0 -0.43715260181E-01  0.51741683431E+00  0.28507251236E+01  0.28976309176E+01  0.00000000000E+00 0. -1.
</event>
<event>
 5    1  0.3222854E+002  0.1599676E+01  0.7818608E-02  0.3353715E+00
         11   -1    0    0    0    0  0.00000000000E+00  0.00000000000E+00  0.39999999674E+01  0.40000000000E+01  0.51100000000E-03 0. -1.
    9000002   -1    0    0    0    0 -0.00000000000E+00 -0.00000000000E+00  0.00000000000E+00  0.93800000000E+00  0.93800000000E+00 0.  1.
         11    1    1    2    0    0 -0.75599521504E-01  0.10106441981E+00  0.12644237836E+01  0.12707073110E+01  0.51100000000E-03 0. -1.
    9000002    1    1    2    0    0  0.22937184215E+00 -0.31094364096E+00  0.10053276704E+00  0.10194352491E+01  0.93800000000E+00 0.  1.
         22    1    1    2    0    0 -0.15377232064E+00  0.20987922115E+00  0.26350434167E+01  0.26478574399E+01  0.00000000000E+00 0. -1.
</event>
<event>
 5    1  0.3222854E+002  0.1599565E+01  0.7818608E-02  0.3353835E+00
         11   -1    0    0    0    0  0.00000000000E+00  0.00000000000E+00  0.39999999674E+01  0.40000000000E+01  0.51100000000E-03 0.  1.
    9000002   -1    0    0    0    0 -0.00000000000E+00 -0.00000000000E+00  0.00000000000E+00  0.93800000000E+00  0.93800000000E+00 0. -1.
         11    1    1    2    0    0  0.12955025631E+00 -0.12092435670E+00  0.17144532469E+01  0.17235881659E+01  0.51100000000E-03 0.  1.
    9000002    1    1    2    0    0 -0.30049992687E+00  0.30119641818E+00  0.12261067998E+00  0.10372544853E+01  0.93800000000E+00 0. -1.
         22    1    1    2    0    0  0.17094967056E+00 -0.18027206149E+00  0.21629360405E+01  0.21771573488E+01  0.00000000000E+00 0.  1.
</event>
<event>
 5    1  0.3222854E+002  0.1599621E+01  0.7818608E-02  0.3353775E+00
         11   -1    0    0    0    0  0.00000000000E+00  0.00000000000E+00  0.39999999674E+01  0.40000000000E+01  0.51100000000E-03 0.  1.
    9000002   -1    0    0    0    0 -0.00000000000E+00 -0.00000000000E+00  0.00000000000E+00  0.93800000000E+00  0.93800000000E+00 0. -1.
         11    1    1    2    0    0 -0.26365784561E-01  0.25385438670E-01  0.56041604618E+00  0.56161016820E+00  0.51100000000E-03 0.  1.
    9000002    1    1    2    0    0  0.18127416993E+00 -0.22280886883E+00  0.55019364638E-01  0.98253511245E+00  0.93800000000E+00 0. -1.
         22    1    1    2    0    0 -0.15490838537E+00  0.19742343016E+00  0.33845645565E+01  0.33938547193E+01  0.00000000000E+00 0.  1.
</event>
<event>
 5    1  0.3222854E+002  0.1599519E+01  0.7818608E-02  0.3353885E+00
         11   -1    0    0    0    0  0.00000000000E+00  0.00000000000E+00  0.39999999674E+01  0.40000000000E+01  0.51100000000E-03 0. -1.
    9000002   -1    0    0    0    0 -0.00000000000E+00 -0.00000000000E+00  0.00000000000E+00  0.93800000000E+00  0.93800000000E+00 0.  1.
         11    1    1    2    0    0  0.18860338341E-01 -0.10239236649E+00  0.10880566110E+01  0.10930266963E+01  0.51100000000E-03 0. -1.
    9000002    1    1    2    0    0 -0.32946919091E-01  0.33517294515E+00  0.76071201597E-01  0.99952850402E+00  0.93800000000E+00 0.  1.
         22    1    1    2    0    0  0.14086580750E-01 -0.23278057866E+00  0.28358721548E+01  0.28454447996E+01  0.00000000000E+00 0.  1.
</event>
<event>
 5    1  0.3222854E+002  0.1599677E+01  0.7818608E-02  0.3353714E+00
         11   -1    0    0    0    0  0.00000000000E+00  0.00000000000E+00  0.39999999674E+01  0.40000000000E+01  0.51100000000E-03 0. -1.
    9000002   -1    0    0    0    0 -0.00000000000E+00 -0.00000000000E+00  0.00000000000E+00  0.93800000000E+00  0.93800000000E+00 0.  1.
         11    1    1    2    0    0 -0.41117503542E-01 -0.23988977115E+00  0.20450871544E+01  0.20595192356E+01  0.51100000000E-03 0. -1.
    9000002    1    1    2    0    0  0.77304288281E-01  0.45143500550E+00  0.14264243155E+00  0.10535465725E+01  0.93800000000E+00 0.  1.
         22    1    1    2    0    0 -0.36186784738E-01 -0.21154523435E+00  0.18122703814E+01  0.18249341919E+01  0.00000000000E+00 0. -1.
</event>
<event>
 5    1  0.3222854E+002  0.1580637E+01  0.7818608E-02  0.3374652E+00
         11   -1    0    0    0    0  0.00000000000E+00  0.00000000000E+00  0.39999999674E+01  0.40000000000E+01  0.51100000000E-03 0. -1.
    9000002   -1    0    0    0    0 -0.00000000000E+00 -0.00000000000E+00  0.00000000000E+00  0.93800000000E+00  0.93800000000E+00 0.  1.
         11    1    1    2    0    0 -0.30041265606E-02 -0.24846872270E-01  0.14608903228E-01  0.28984013051E-01  0.51100000000E-03 0. -1.
    9000002    1    1    2    0    0  0.20148229713E+00  0.68130177350E-01  0.44444846673E-01  0.96283756757E+00  0.93800000000E+00 0.  1.
         22    1    1    2    0    0 -0.19847817057E+00 -0.43283305080E-01  0.39409462175E+01  0.39461784194E+01  0.00000000000E+00 0. -1.
</event>
<event>
 5    1  0.3222854E+002  0.1596678E+01  0.7818608E-02  0.3356977E+00
         11   -1    0    0    0    0  0.00000000000E+00  0.00000000000E+00  0.39999999674E+01  0.40000000000E+01  0.51100000000E-03 0.  1.
    9000002   -1    0    0    0    0 -0.00000000000E+00 -0.00000000000E+00  0.00000000000E+00  0.93800000000E+00  0.93800000000E+00 0. -1.
         11    1    1    2    0    0  0.38105131247E-01 -0.73829718424E-02  0.11206912326E+01  0.11213632815E+01  0.51100000000E-03 0.  1.
    9000002    1    1    2    0    0 -0.98082871701E-01  0.23260029567E+00  0.44636115082E-01  0.97239885337E+00  0.93800000000E+00 0. -1.
         22    1    1    2    0    0  0.59977740454E-01 -0.22521732383E+00  0.28346726197E+01  0.28442378651E+01  0.00000000000E+00 0.  1.
</event>
<event>
 5    1  0.3222854E+002  0.1599674E+01  0.7818608E-02  0.3353717E+00
         11   -1    0    0    0    0  0.00000000000E+00  0.00000000000E+00  0.39999999674E+01  0.40000000000E+01  0.51100000000E-03 0. -1.
    9000002   -1    0    0    0    0 -0.00000000000E+00 -0.00000000000E+00  0.00000000000E+00  0.93800000000E+00  0.93800000000E+00 0.  1.
         11    1    1    2    0    0 -0.29612492273E-02  0.72439382171E-02  0.11546687664E+00  0.11573290094E+00  0.51100000000E-03 0.  1.
    9000002    1    1    2    0    0  0.89111937712E-01 -0.23771664074E+00  0.42828520596E-01  0.97269132869E+00  0.93800000000E+00 0.  1.
         22    1    1    2    0    0 -0.86150688485E-01  0.23047270252E+00  0.38417045701E+01  0.38495757704E+01  0.00000000000E+00 0. -1.
</event>
<event>
 5    1  0.3222854E+002  0.1599667E+01  0.7818608E-02  0.3353724E+00
         11   -1    0    0    0    0  0.00000000000E+00  0.00000000000E+00  0.39999999674E+01  0.40000000000E+01  0.51100000000E-03 0.  1.
    9000002   -1    0    0    0    0 -0.00000000000E+00 -0.00000000000E+00  0.00000000000E+00  0.93800000000E+00  0.93800000000E+00 0. -1.
         11    1    1    2    0    0  0.24702752770E-01  0.84529616263E-02  0.31861426044E+00  0.31968263424E+00  0.51100000000E-03 0. -1.
    9000002    1    1    2    0    0 -0.28097571006E+00 -0.10593643655E+00  0.60162453191E-01  0.98672863494E+00  0.93800000000E+00 0. -1.
         22    1    1    2    0    0  0.25627295729E+00  0.97483474921E-01  0.36212232537E+01  0.36315887308E+01  0.00000000000E+00 0.  1.
</event>
<event>
 5    1  0.3222854E+002  0.1577243E+01  0.7818608E-02  0.3378440E+00
         11   -1    0    0    0    0  0.00000000000E+00  0.00000000000E+00  0.39999999674E+01  0.40000000000E+01  0.51100000000E-03 0. -1.
    9000002   -1    0    0    0    0 -0.00000000000E+00 -0.00000000000E+00  0.00000000000E+00  0.93800000000E+00  0.93800000000E+00 0.  1.
         11    1    1    2    0    0  0.23600431543E-01  0.88258366781E-01  0.36698313896E+00  0.37818435330E+00  0.51100000000E-03 0. -1.
    9000002    1    1    2    0    0  0.12973457290E+00  0.11233884510E+00  0.36313531027E-01  0.95426083859E+00  0.93800000000E+00 0.  1.
         22    1    1    2    0    0 -0.15333500444E+00 -0.20059721188E+00  0.35967032974E+01  0.36055548081E+01  0.00000000000E+00 0. -1.
</event>
<event>
 5    1  0.3222854E+002  0.1599676E+01  0.7818608E-02  0.3353715E+00
         11   -1    0    0    0    0  0.00000000000E+00  0.00000000000E+00  0.39999999674E+01  0.40000000000E+01  0.51100000000E-03 0. -1.
    9000002   -1    0    0    0    0 -0.00000000000E+00 -0.00000000000E+00  0.00000000000E+00  0.93800000000E+00  0.93800000000E+00 0. -1.
         11    1    1    2    0    0 -0.14980622632E-01 -0.21615330998E-01  0.34668626548E+00  0.34768271367E+00  0.51100000000E-03 0. -1.
    9000002    1    1    2    0    0  0.16992711625E+00  0.24906531230E+00  0.60655337307E-01  0.98713313417E+00  0.93800000000E+00 0. -1.
         22    1    1    2    0    0 -0.15494649362E+00 -0.22744998130E+00  0.35926583646E+01  0.36031841522E+01  0.00000000000E+00 0. -1.
</event>
<event>
 5    1  0.3222854E+002  0.1599664E+01  0.7818608E-02  0.3353728E+00
         11   -1    0    0    0    0  0.00000000000E+00  0.00000000000E+00  0.39999999674E+01  0.40000000000E+01  0.51100000000E-03 0.  1.
    9000002   -1    0    0    0    0 -0.00000000000E+00 -0.00000000000E+00  0.00000000000E+00  0.93800000000E+00  0.93800000000E+00 0.  1.
         11    1    1    2    0    0 -0.21774144022E+00  0.66277991855E-01  0.18631649804E+01  0.18770157465E+01  0.51100000000E-03 0.  1.
    9000002    1    1    2    0    0  0.45763613429E+00 -0.14007469515E+00  0.15626286743E+00  0.10645721372E+01  0.93800000000E+00 0.  1.
         22    1    1    2    0    0 -0.23989469408E+00  0.73796703296E-01  0.19805721195E+01  0.19964121163E+01  0.00000000000E+00 0. -1.
</event>
<event>
 5    1  0.3222854E+002  0.1382237E+01  0.7818608E-02  0.3635775E+00
         11   -1    0    0    0    0  0.00000000000E+00  0.00000000000E+00  0.39999999674E+01  0.40000000000E+01  0.51100000000E-03 0.  1.
    9000002   -1    0    0    0    0 -0.00000000000E+00 -0.00000000000E+00  0.00000000000E+00  0.93800000000E+00  0.93800000000E+00 0.  1.
         11    1    1    2    0    0  0.33891444341E+00 -0.73963705442E-01  0.20068677845E+01  0.20366276526E+01  0.51100000000E-03 0.  1.
    9000002    1    1    2    0    0  0.34205331311E+00 -0.23485512886E+00  0.32927943232E+00  0.10772308690E+01  0.93800000000E+00 0.  1.
         22    1    1    2    0    0 -0.68096775652E+00  0.30881883430E+00  0.16638527505E+01  0.18241414784E+01  0.00000000000E+00 0.  1.
</event>
<event>
 5    1  0.3222854E+002  0.1599661E+01  0.7818608E-02  0.3353732E+00
         11   -1    0    0    0    0  0.00000000000E+00  0.00000000000E+00  0.39999999674E+01  0.40000000000E+01  0.51100000000E-03 0.  1.
    9000002   -1    0    0    0    0 -0.00000000000E+00 -0.00000000000E+00  0.00000000000E+00  0.93800000000E+00  0.93800000000E+00 0. -1.
         11    1    1    2    0    0  0.65777329517E-02 -0.22209269054E-02  0.93370592835E-01  0.93629737875E-01  0.51100000000E-03 0.  1.
    9000002    1    1    2    0    0 -0.22024899450E+00  0.10180864594E+00  0.39100619538E-01  0.96966359033E+00  0.93800000000E+00 0. -1.
         22    1    1    2    0    0  0.21367126155E+00 -0.99587719035E-01  0.38675287550E+01  0.38747066718E+01  0.00000000000E+00 0.  1.
</event>
<event>
 5    1  0.3222854E+002  0.1599597E+01  0.7818608E-02  0.3353801E+00
         11   -1    0    0    0    0  0.00000000000E+00  0.00000000000E+00  0.39999999674E+01  0.40000000000E+01  0.51100000000E-03 0.  1.
    9000002   -1    0    0    0    0 -0.00000000000E+00 -0.00000000000E+00  0.00000000000E+00  0.93800000000E+00  0.93800000000E+00 0.  1.
         11    1    1    2    0    0  0.19845446936E+00  0.19482086256E-01  0.17680949904E+01  0.17793043259E+01  0.51100000000E-03 0.  1.
    9000002    1    1    2    0    0 -0.45613741182E+00 -0.46527584767E-01  0.14303314259E+00  0.10538162242E+01  0.93800000000E+00 0.  1.
         22    1    1    2    0    0  0.25768294246E+00  0.27045498511E-01  0.20888718344E+01  0.21048794498E+01  0.00000000000E+00 0.  1.
</event>
<event>
 5    1  0.3222854E+002  0.1596682E+01  0.7818608E-02  0.3356973E+00
         11   -1    0    0    0    0  0.00000000000E+00  0.00000000000E+00  0.39999999674E+01  0.40000000000E+01  0.51100000000E-03 0. -1.
    9000002   -1    0    0    0    0 -0.00000000000E+00 -0.00000000000E+00  0.00000000000E+00  0.93800000000E+00  0.93800000000E+00 0. -1.
         11    1    1    2    0    0  0.18573910877E+00  0.11300449534E+00  0.12976627864E+01  0.13157499766E+01  0.51100000000E-03 0. -1.
    9000002    1    1    2    0    0 -0.56486819329E+00 -0.14791369452E+00  0.24001432401E+00  0.11306659155E+01  0.93800000000E+00 0. -1.
         22    1    1    2    0    0  0.37912908452E+00  0.34909199178E-01  0.24623228569E+01  0.24915841079E+01  0.00000000000E+00 0. -1.
</event>
<event>
 5    1  0.3222854E+002  0.1592455E+01  0.7818608E-02  0.3361593E+00
         11   -1    0    0    0    0  0.00000000000E+00  0.00000000000E+00  0.39999999674E+01  0.40000000000E+01  0.51100000000E-03 0. -1.
    9000002   -1    0    0    0    0 -0.00000000000E+00 -0.00000000000E+00  0.00000000000E+00  0.93800000000E+00  0.93800000000E+00 0. -1.
         11    1    1    2    0    0 -0.42283364038E+00 -0.94867039915E-01  0.30039863426E+01  0.30350819182E+01  0.51100000000E-03 0. -1.
    9000002    1    1    2    0    0  0.62348686651E+00  0.11597205911E+00  0.29024403927E+00  0.11688759530E+01  0.93800000000E+00 0. -1.
         22    1    1    2    0    0 -0.20065322613E+00 -0.21105019196E-01  0.70576958550E+00  0.73404212877E+00  0.00000000000E+00 0. -1.
</event>
<event>
 5    1  0.3222854E+002  0.1599652E+01  0.7818608E-02  0.3353741E+00
         11   -1    0    0    0    0  0.00000000000E+00  0.00000000000E+00  0.39999999674E+01  0.40000000000E+01  0.51100000000E-03 0. -1.
    9000002   -1    0    0    0    0 -0.00000000000E+00 -0.00000000000E+00  0.00000000000E+00  0.93800000000E+00  0.93800000000E+00 0.  1.
         11    1    1    2    0    0 -0.21748386935E-01 -0.10481435840E-02  0.25018023425E+00  0.25112646549E+00  0.51100000000E-03 0. -1.
    9000002    1    1    2    0    0  0.36475475986E+00 -0.21397551234E-01  0.89691517924E-01  0.10106396284E+01  0.93800000000E+00 0.  1.
         22    1    1    2    0    0 -0.34300637292E+00  0.22445694818E-01  0.36601282152E+01  0.36762339061E+01  0.00000000000E+00 0. -1.
</event>
<event>
 5    1  0.3222854E+002  0.1591198E+01  0.7818608E-02  0.3362972E+00
         11   -1    0    0    0    0  0.00000000000E+00  0.00000000000E+00  0.39999999674E+01  0.40000000000E+01  0.51100000000E-03 0. -1.
    9000002   -1    0    0    0    0 -0.00000000000E+00 -0.00000000000E+00  0.00000000000E+00  0.93800000000E+00  0.93800000000E+00 0. -1.
         11    1    1    2    0    0  0.10949445879E-01 -0.24679735579E-01  0.76636581733E-01  0.81255193644E-01  0.51100000000E-03 0. -1.
    9000002    1    1    2    0    0  0.15667322334E+00 -0.14432482379E+00  0.36475338865E-01  0.96257498618E+00  0.93800000000E+00 0. -1.
         22    1    1    2    0    0 -0.16762266922E+00  0.16900455937E+00  0.38868880468E+01  0.38941698202E+01  0.00000000000E+00 0. -1.
</event>
<event>
 5    1  0.3222854E+002  0.1520460E+01  0.7818608E-02  0.3444492E+00
         11   -1    0    0    0    0  0.00000000000E+00  0.00000000000E+00  0.39999999674E+01  0.40000000000E+01  0.51100000000E-03 0. -1.
    9000002   -1    0    0    0    0 -0.00000000000E+00 -0.00000000000E+00  0.00000000000E+00  0.93800000000E+00  0.93800000000E+00 0. -1.
         11    1    1    2    0    0  0.60347582932E-01  0.36836546049E+00  0.11616479621E+01  0.12201480207E+01  0.51100000000E-03 0. -1.
    9000002    1    1    2    0    0  0.44069460015E+00 -0.39113817968E+00  0.32424188954E+00  0.11541999866E+01  0.93800000000E+00 0. -1.
         22    1    1    2    0    0 -0.50104218309E+00  0.22772719192E-01  0.25141101157E+01  0.25636519927E+01  0.00000000000E+00 0. -1.
</event>
<event>
 5    1  0.3222854E+002  0.1598361E+01  0.7818608E-02  0.3355145E+00
         11   -1    0    0    0    0  0.00000000000E+00  0.00000000000E+00  0.39999999674E+01  0.40000000000E+01  0.51100000000E-03 0. -1.
    9000002   -1    0    0    0    0 -0.00000000000E+00 -0.00000000000E+00  0.00000000000E+00  0.93800000000E+00  0.93800000000E+00 0.  1.
         11    1    1    2    0    0  0.21062405566E+00  0.15700572972E+00  0.14054501475E+01  0.14297914778E+01  0.51100000000E-03 0. -1.
    9000002    1    1    2    0    0 -0.45706639569E+00 -0.37591310993E+00  0.24522206754E+00  0.11358689267E+01  0.93800000000E+00 0.  1.
         22    1    1    2    0    0  0.24644234003E+00  0.21890738022E+00  0.23493277524E+01  0.23723395954E+01  0.00000000000E+00 0. -1.
</event>
<event>
 5    1  0.3222854E+002  0.1599671E+01  0.7818608E-02  0.3353721E+00
         11   -1    0    0    0    0  0.00000000000E+00  0.00000000000E+00  0.39999999674E+01  0.40000000000E+01  0.51100000000E-03 0. -1.
    9000002   -1    0    0    0    0 -0.00000000000E+00 -0.00000000000E+00  0.00000000000E+00  0.93800000000E+00  0.93800000000E+00 0. -1.
         11    1    1    2    0    0 -0.91393488181E-01 -0.75802285427E-01  0.14374686555E+01  0.14423644313E+01  0.51100000000E-03 0. -1.
    9000002    1    1    2    0    0  0.25616513623E+00  0.21122613597E+00  0.73777584756E-01  0.99775958505E+00  0.93800000000E+00 0. -1.
         22    1    1    2    0    0 -0.16477164805E+00 -0.13542385055E+00  0.24887537271E+01  0.24978759836E+01  0.00000000000E+00 0. -1.
</event>
<event>
 5    1  0.3222854E+002  0.1599425E+01  0.7818608E-02  0.3353987E+00
         11   -1    0    0    0    0  0.00000000000E+00  0.00000000000E+00  0.39999999674E+01  0.40000000000E+01  0.51100000000E-03 0. -1.
    9000002   -1    0    0    0    0 -0.00000000000E+00 -0.00000000000E+00  0.00000000000E+00  0.93800000000E+00  0.93800000000E+00 0.  1.
         11    1    1    2    0    0 -0.64308621104E-02  0.32635297948E+00  0.23363503923E+01  0.23590423989E+01  0.51100000000E-03 0. -1.
    9000002    1    1    2    0    0 -0.14379467218E-01 -0.54714463457E+00  0.20704869531E+00  0.11055709758E+01  0.93800000000E+00 0.  1.
         22    1    1    2    0    0  0.20810329328E-01  0.22079165509E+00  0.14566008798E+01  0.14733866254E+01  0.00000000000E+00 0.  1.
</event>
<event>
 5    1  0.3222854E+002  0.1577411E+01  0.7818608E-02  0.3378252E+00
         11   -1    0    0    0    0  0.00000000000E+00  0.00000000000E+00  0.39999999674E+01  0.40000000000E+01  0.51100000000E-03 0. -1.
    9000002   -1    0    0    0    0 -0.00000000000E+00 -0.00000000000E+00  0.00000000000E+00  0.93800000000E+00  0.93800000000E+00 0.  1.
         11    1    1    2    0    0  0.83009129594E-01 -0.10971148604E+00  0.42501829713E+00  0.44673027632E+00  0.51100000000E-03 0. -1.
    9000002    1    1    2    0    0 -0.31105899244E+00  0.71197984077E-01  0.85876573890E-01  0.99450773534E+00  0.93800000000E+00 0.  1.
         22    1    1    2    0    0  0.22804986284E+00  0.38513501963E-01  0.34891050963E+01  0.34967619883E+01  0.00000000000E+00 0. -1.
</event>
<event>
 5    1  0.3222854E+002  0.1591822E+01  0.7818608E-02  0.3362288E+00
         11   -1    0    0    0    0  0.00000000000E+00  0.00000000000E+00  0.39999999674E+01  0.40000000000E+01  0.51100000000E-03 0. -1.
    9000002   -1    0    0    0    0 -0.00000000000E+00 -0.00000000000E+00  0.00000000000E+00  0.93800000000E+00  0.93800000000E+00 0.  1.
         11    1    1    2    0    0  0.18032226367E-01  0.99953116841E-01  0.55128540986E+00  0.56056369041E+00  0.51100000000E-03 0. -1.
    9000002    1    1    2    0    0  0.13806529765E+00 -0.25494691420E+00  0.62167484516E-01  0.98375238328E+00  0.93800000000E+00 0.  1.
         22    1    1    2    0    0 -0.15609752401E+00  0.15499379736E+00  0.33865470730E+01  0.33936839263E+01  0.00000000000E+00 0. -1.
</event>
<event>
 5    1  0.3222854E+002  0.1599650E+01  0.7818608E-02  0.3353743E+00
         11   -1    0    0    0    0  0.00000000000E+00  0.00000000000E+00  0.39999999674E+01  0.40000000000E+01  0.51100000000E-03 0. -1.
    9000002   -1    0    0    0    0 -0.00000000000E+00 -0.00000000000E+00  0.00000000000E+00  0.93800000000E+00  0.93800000000E+00 0.  1.
         11    1    1    2    0    0 -0.17252660517E+00  0.22827910313E+00  0.17289657169E+01  0.17524838058E+01  0.51100000000E-03 0. -1.
    9000002    1    1    2    0    0  0.36249122807E+00 -0.50175687212E+00  0.26846945521E+00  0.11554564888E+01  0.93800000000E+00 0.  1.
         22    1    1    2    0    0 -0.18996462290E+00  0.27347776899E+00  0.20025647953E+01  0.20300597054E+01  0.00000000000E+00 0. -1.
</event>
<event>
 5    1  0.3222854E+002  0.1576142E+01  0.7818608E-02  0.3379672E+00
         11   -1    0    0    0    0  0.00000000000E+00  0.00000000000E+00  0.39999999674E+01  0.40000000000E+01  0.51100000000E-03 0. -1.
    9000002   -1    0    0    0    0 -0.00000000000E+00 -0.00000000000E+00  0.00000000000E+00  0.93800000000E+00  0.93800000000E+00 0. -1.
         11    1    1    2    0    0  0.13425441586E+00  0.46088303185E-01  0.72600938220E+00  0.73975554343E+00  0.51100000000E-03 0. -1.
    9000002    1    1    2    0    0  0.43654808856E-01 -0.16426122044E+00  0.36766965348E-01  0.95398286180E+00  0.93800000000E+00 0. -1.
         22    1    1    2    0    0 -0.17790922472E+00  0.11817291725E+00  0.32372236198E+01  0.32442615948E+01  0.00000000000E+00 0. -1.
</event>
<event>
 5    1  0.3222854E+002  0.1599650E+01  0.7818608E-02  0.3353744E+00
         11   -1    0    0    0    0  0.00000000000E+00  0.00000000000E+00  0.39999999674E+01  0.40000000000E+01  0.51100000000E-03 0. -1.
    9000002   -1    0    0    0    0 -0.00000000000E+00 -0.00000000000E+00  0.00000000000E+00  0.93800000000E+00  0.93800000000E+00 0. -1.
         11    1    1    2    0    0 -0.12377648422E+00 -0.24684646095E+00  0.10350547036E+01  0.10712573425E+01  0.51100000000E-03 0. -1.
    9000002    1    1    2    0    0  0.39709477982E+00  0.79376884375E+00  0.59981088243E+00  0.14238575547E+01  0.93800000000E+00 0. -1.
         22    1    1    2    0    0 -0.27331829560E+00 -0.54692238280E+00  0.23651343813E+01  0.24428851028E+01  0.00000000000E+00 0. -1.
</event>
<event>
 5    1  0.3222854E+002  0.1599605E+01  0.7818608E-02  0.3353792E+00
         11   -1    0    0    0    0  0.00000000000E+00  0.00000000000E+00  0.39999999674E+01  0.40000000000E+01  0.51100000000E-03 0. -1.
    9000002   -1    0    0    0    0 -0.00000000000E+00 -0.00000000000E+00  0.00000000000E+00  0.93800000000E+00  0.93800000000E+00 0. -1.
         11    1    1    2    0    0 -0.29118240560E+00 -0.24548163113E-01  0.11442226133E+01  0.11809468471E+01  0.51100000000E-03 0. -1.
    9000002    1    1    2    0    0  0.88479211651E+00  0.93623846758E-01  0.60337671502E+00  0.14267200056E+01  0.93800000000E+00 0. -1.
         22    1    1    2    0    0 -0.59360971091E+00 -0.69075683645E-01  0.22524006390E+01  0.23303331473E+01  0.00000000000E+00 0. -1.
</event>
<event>
 5    1  0.3222854E+002  0.1599677E+01  0.7818608E-02  0.3353714E+00
         11   -1    0    0    0    0  0.00000000000E+00  0.00000000000E+00  0.39999999674E+01  0.40000000000E+01  0.51100000000E-03 0.  1.
    9000002   -1    0    0    0    0 -0.00000000000E+00 -0.00000000000E+00  0.00000000000E+00  0.93800000000E+00  0.93800000000E+00 0. -1.
         11    1    1    2    0    0 -0.13592084810E+00 -0.94431370708E-01  0.16818725599E+01  0.16899962513E+01  0.51100000000E-03 0.  1.
    9000002    1    1    2    0    0  0.31391676873E+00  0.22005844543E+00  0.98927748365E-01  0.10181356277E+01  0.93800000000E+00 0. -1.
         22    1    1    2    0    0 -0.17799592063E+00 -0.12562707472E+00  0.22191996591E+01  0.22298681209E+01  0.00000000000E+00 0.  1.
</event>
<event>
 5    1  0.3222854E+002  0.1305629E+01  0.7818608E-02  0.3771222E+00
         11   -1    0    0    0    0  0.00000000000E+00  0.00000000000E+00  0.39999999674E+01  0.40000000000E+01  0.51100000000E-03 0. -1.
    9000002   -1    0    0    0    0 -0.00000000000E+00 -0.00000000000E+00  0.00000000000E+00  0.93800000000E+00  0.93800000000E+00 0.  1.
         11    1    1    2    0    0  0.89952113447E-01 -0.43553646407E+00  0.34390512678E+01  0.34676875981E+01  0.51100000000E-03 0. -1.
    9000002    1    1    2    0    0  0.67240721881E-02  0.55155403984E-01  0.25772411708E+00  0.97434750077E+00  0.93800000000E+00 0. -1.
         22    1    1    2    0    0 -0.96676185635E-01  0.38038106009E+00  0.30322458248E+00  0.49596490114E+00  0.00000000000E+00 0.  1.
</event>
<event>
 5    1  0.3222854E+002  0.1599566E+01  0.7818608E-02  0.3353834E+00
         11   -1    0    0    0    0  0.00000000000E+00  0.00000000000E+00  0.39999999674E+01  0.40000000000E+01  0.51100000000E-03 0. -1.
    9000002   -1    0    0    0    0 -0.00000000000E+00 -0.00000000000E+00  0.00000000000E+00  0.93800000000E+00  0.93800000000E+00 0. -1.
         11    1    1    2    0    0 -0.45573762600E-02 -0.55913269142E-01  0.32903034437E+00  0.33377880697E+00  0.51100000000E-03 0. -1.
    9000002    1    1    2    0    0 -0.28213112873E-01  0.61913224821E+00  0.26927448102E+00  0.11560594564E+01  0.93800000000E+00 0. -1.
         22    1    1    2    0    0  0.32770489133E-01 -0.56321897906E+00  0.34016951420E+01  0.34481617367E+01  0.00000000000E+00 0. -1.
</event>
<event>
 5    1  0.3222854E+002  0.1599675E+01  0.7818608E-02  0.3353717E+00
         11   -1    0    0    0    0  0.00000000000E+00  0.00000000000E+00  0.39999999674E+01  0.40000000000E+01  0.51100000000E-03 0. -1.
    9000002   -1    0    0    0    0 -0.00000000000E+00 -0.00000000000E+00  0.00000000000E+00  0.93800000000E+00  0.93800000000E+00 0. -1.
         11    1    1    2    0    0 -0.15680414965E+00 -0.58063817059E-01  0.17725543229E+01  0.17804235555E+01  0.51100000000E-03 0. -1.
    9000002    1    1    2    0    0  0.34855250866E+00  0.13076512600E+00  0.93163592683E-01  0.10134652557E+01  0.93800000000E+00 0. -1.
         22    1    1    2    0    0 -0.19174835901E+00 -0.72701308945E-01  0.21342820518E+01  0.21441111889E+01  0.00000000000E+00 0. -1.
</event>
<event>
 5    1  0.3222854E+002  0.1599657E+01  0.7818608E-02  0.3353736E+00
         11   -1    0    0    0    0  0.00000000000E+00  0.00000000000E+00  0.39999999674E+01  0.40000000000E+01  0.51100000000E-03 0.  1.
    9000002   -1    0    0    0    0 -0.00000000000E+00 -0.00000000000E+00  0.00000000000E+00  0.93800000000E+00  0.93800000000E+00 0.  1.
         11    1    1    2    0    0  0.48338605429E-01  0.20021689395E+00  0.14257559886E+01  0.14405567762E+01  0.51100000000E-03 0.  1.
    9000002    1    1    2    0    0 -0.14148072092E+00 -0.52768698791E+00  0.20602923553E+00  0.11048811689E+01  0.93800000000E+00 0.  1.
         22    1    1    2    0    0  0.93142115495E-01  0.32747009396E+00  0.23682147433E+01  0.23925620549E+01  0.00000000000E+00 0. -1.
</event>
<event>
 5    1  0.3222854E+002  0.1599468E+01  0.7818608E-02  0.3353941E+00
         11   -1    0    0    0    0  0.00000000000E+00  0.00000000000E+00  0.39999999674E+01  0.40000000000E+01  0.51100000000E-03 0. -1.
    9000002   -1    0    0    0    0 -0.00000000000E+00 -0.00000000000E+00  0.00000000000E+00  0.93800000000E+00  0.93800000000E+00 0. -1.
         11    1    1    2    0    0  0.81674915972E-02  0.16458575250E-02  0.19689944878E+00  0.19707630709E+00  0.51100000000E-03 0. -1.
    9000002    1    1    2    0    0 -0.30963129601E+00 -0.71378304966E-01  0.67635945068E-01  0.99266561487E+00  0.93800000000E+00 0. -1.
         22    1    1    2    0    0  0.30146380441E+00  0.69732447441E-01  0.37354645735E+01  0.37482580780E+01  0.00000000000E+00 0. -1.
</event>
<event>
 5    1  0.3222854E+002  0.1599674E+01  0.7818608E-02  0.3353717E+00
         11   -1    0    0    0    0  0.00000000000E+00  0.00000000000E+00  0.39999999674E+01  0.40000000000E+01  0.51100000000E-03 0. -1.
    9000002   -1    0    0    0    0 -0.00000000000E+00 -0.00000000000E+00  0.00000000000E+00  0.93800000000E+00  0.93800000000E+00 0.  1.
         11    1    1    2    0    0  0.19038573088E-01 -0.40634130737E-01  0.65575805464E+00  0.65729178239E+00  0.51100000000E-03 0. -1.
    9000002    1    1    2    0    0 -0.12182253987E+00  0.23993175674E+00  0.48175212757E-01  0.97702243077E+00  0.93800000000E+00 0.  1.
         22    1    1    2    0    0  0.10278396678E+00 -0.19929762600E+00  0.32960667000E+01  0.33036857868E+01  0.00000000000E+00 0. -1.
</event>
<event>
 5    1  0.3222854E+002  0.1599676E+01  0.7818608E-02  0.3353715E+00
         11   -1    0    0    0    0  0.00000000000E+00  0.00000000000E+00  0.39999999674E+01  0.40000000000E+01  0.51100000000E-03 0. -1.
    9000002   -1    0    0    0    0 -0.00000000000E+00 -0.00000000000E+00  0.00000000000E+00  0.93800000000E+00  0.93800000000E+00 0. -1.
         11    1    1    2    0    0 -0.15640346051E+00 -0.77210453427E-01  0.16507251780E+01  0.16599148686E+01  0.51100000000E-03 0. -1.
    9000002    1    1    2    0    0  0.36642820872E+00  0.18344104632E+00  0.11341050572E+00  0.10298670751E+01  0.93800000000E+00 0. -1.
         22    1    1    2    0    0 -0.21002474820E+00 -0.10623059290E+00  0.22358642836E+01  0.22482180562E+01  0.00000000000E+00 0. -1.
</event>
<event>
 5    1  0.3222854E+002  0.1599635E+01  0.7818608E-02  0.3353760E+00
         11   -1    0    0    0    0  0.00000000000E+00  0.00000000000E+00  0.39999999674E+01  0.40000000000E+01  0.51100000000E-03 0. -1.
    9000002   -1    0    0    0    0 -0.00000000000E+00 -0.00000000000E+00  0.00000000000E+00  0.93800000000E+00  0.93800000000E+00 0. -1.
         11    1    1    2    0    0  0.47643547415E-01 -0.14040771258E+00  0.11584639472E+01  0.11679140429E+01  0.51100000000E-03 0. -1.
    9000002    1    1    2    0    0 -0.17375962673E+00  0.44776691482E+00  0.15744746222E+00  0.10655145805E+01  0.93800000000E+00 0. -1.
         22    1    1    2    0    0  0.12611607932E+00 -0.30735920223E+00  0.26840885579E+01  0.27045713766E+01  0.00000000000E+00 0. -1.
</event>
<event>
 5    1  0.3222854E+002  0.1599677E+01  0.7818608E-02  0.3353714E+00
         11   -1    0    0    0    0  0.00000000000E+00  0.00000000000E+00  0.39999999674E+01  0.40000000000E+01  0.51100000000E-03 0. -1.
    9000002   -1    0    0    0    0 -0.00000000000E+00 -0.00000000000E+00  0.00000000000E+00  0.93800000000E+00  0.93800000000E+00 0. -1.
         11    1    1    2    0    0 -0.13013270878E+00 -0.79837181700E-01  0.16275951076E+01  0.16347399160E+01  0.51100000000E-03 0. -1.
    9000002    1    1    2    0    0  0.31347759694E+00  0.19224026789E+00  0.90852058337E-01  0.10115940989E+01  0.93800000000E+00 0. -1.
         22    1    1    2    0    0 -0.18334488816E+00 -0.11240308619E+00  0.22815528014E+01  0.22916659852E+01  0.00000000000E+00 0. -1.
</event>
<event>
 5    1  0.3222854E+002  0.1599676E+01  0.7818608E-02  0.3353715E+00
         11   -1    0    0    0    0  0.00000000000E+00  0.00000000000E+00  0.39999999674E+01  0.40000000000E+01  0.51100000000E-03 0.  1.
    9000002   -1    0    0    0    0 -0.00000000000E+00 -0.00000000000E+00  0.00000000000E+00  0.93800000000E+00  0.93800000000E+00 0. -1.
         11    1    1    2    0    0 -0.32922026867E-01 -0.32213659039E+00  0.17327268709E+01  0.17627247411E+01  0.51100000000E-03 0.  1.
    9000002    1    1    2    0    0  0.68162088442E-01  0.68274416190E+00  0.33522658810E+00  0.12095480670E+01  0.93800000000E+00 0. -1.
         22    1    1    2    0    0 -0.35240061575E-01 -0.36060757151E+00  0.19320465084E+01  0.19657271919E+01  0.00000000000E+00 0.  1.
</event>
<event>
 5    1  0.3222854E+002  0.1599659E+01  0.7818608E-02  0.3353734E+00
         11   -1    0    0    0    0  0.00000000000E+00  0.00000000000E+00  0.39999999674E+01  0.40000000000E+01  0.51100000000E-03 0.  1.
    9000002   -1    0    0    0    0 -0.00000000000E+00 -0.00000000000E+00  0.00000000000E+00  0.93800000000E+00  0.93800000000E+00 0. -1.
         11    1    1    2    0    0  0.80798314165E-02  0.18190213475E-03  0.17960611006E+00  0.17978857766E+00  0.51100000000E-03 0.  1.
    9000002    1    1    2    0    0 -0.22188000705E+00  0.12043837102E-01  0.32748072122E-01  0.96451657724E+00  0.93800000000E+00 0. -1.
         22    1    1    2    0    0  0.21380017563E+00 -0.12225739236E-01  0.37876457852E+01  0.37936948451E+01  0.00000000000E+00 0.  1.
</event>
<event>
 5    1  0.3222854E+002  0.1597520E+01  0.7818608E-02  0.3356060E+00
         11   -1    0    0    0    0  0.00000000000E+00  0.00000000000E+00  0.39999999674E+01  0.40000000000E+01  0.51100000000E-03 0. -1.
    9000002   -1    0    0    0    0 -0.00000000000E+00 -0.00000000000E+00  0.00000000000E+00  0.93800000000E+00  0.93800000000E+00 0.  1.
         11    1    1    2    0    0  0.21951192775E-01  0.83999732135E-02  0.70675853688E+00  0.70714942197E+00  0.51100000000E-03 0. -1.
    9000002    1    1    2    0    0 -0.13832235390E+00 -0.28521110267E+00  0.68845591324E-01  0.99250297839E+00  0.93800000000E+00 0.  1.
         22    1    1    2    0    0  0.11637116112E+00  0.27681112946E+00  0.32243958392E+01  0.32383475996E+01  0.00000000000E+00 0. -1.
</event>
<event>
 5    1  0.3222854E+002  0.1599654E+01  0.7818608E-02  0.3353739E+00
         11   -1    0    0    0    0  0.00000000000E+00  0.00000000000E+00  0.39999999674E+01  0.40000000000E+01  0.51100000000E-03 0. -1.
    9000002   -1    0    0    0    0 -0.00000000000E+00 -0.00000000000E+00  0.00000000000E+00  0.93800000000E+00  0.93800000000E+00 0.  1.
         11    1    1    2    0    0  0.18867020833E+00 -0.46505155040E+00  0.20097681994E+01  0.20714820464E+01  0.51100000000E-03 0. -1.
    9000002    1    1    2    0    0 -0.31576669655E+00  0.79333819820E+00  0.54766728994E+00  0.13816213533E+01  0.93800000000E+00 0.  1.
         22    1    1    2    0    0  0.12709648822E+00 -0.32828664780E+00  0.14425644780E+01  0.14848966003E+01  0.00000000000E+00 0. -1.
</event>
<event>
 5    1  0.3222854E+002  0.1594159E+01  0.7818608E-02  0.3359727E+00
         11   -1    0    0    0    0  0.00000000000E+00  0.00000000000E+00  0.39999999674E+01  0.40000000000E+01  0.51100000000E-03 0. -1.
    9000002   -1    0    0    0    0 -0.00000000000E+00 -0.00000000000E+00  0.00000000000E+00  0.93800000000E+00  0.93800000000E+00 0. -1.
         11    1    1    2    0    0  0.41346636749E-02  0.11286884424E-01  0.16576011977E+01  0.16576448597E+01  0.51100000000E-03 0. -1.
    9000002    1    1    2    0    0  0.33060373979E-01 -0.23344853036E+00  0.41092933096E-01  0.96805156567E+00  0.93800000000E+00 0. -1.
         22    1    1    2    0    0 -0.37195037654E-01  0.22216164594E+00  0.23013058366E+01  0.23123035746E+01  0.00000000000E+00 0. -1.
</event>
<event>
 5    1  0.3222854E+002  0.1275142E+01  0.7818608E-02  0.3830627E+00
         11   -1    0    0    0    0  0.00000000000E+00  0.00000000000E+00  0.39999999674E+01  0.40000000000E+01  0.51100000000E-03 0.  1.
    9000002   -1    0    0    0    0 -0.00000000000E+00 -0.00000000000E+00  0.00000000000E+00  0.93800000000E+00  0.93800000000E+00 0.  1.
         11    1    1    2    0    0 -0.29498447056E+00 -0.57342860835E+00  0.94877722851E+00  0.11471768378E+01  0.51100000000E-03 0.  1.
    9000002    1    1    2    0    0 -0.39429479869E+00  0.34897719822E+00  0.59376700797E+00  0.12286808914E+01  0.93800000000E+00 0.  1.
         22    1    1    2    0    0  0.68927926925E+00  0.22445141014E+00  0.24574557309E+01  0.25621422708E+01  0.00000000000E+00 0. -1.
</event>
<event>
 5    1  0.3222854E+002  0.1599389E+01  0.7818608E-02  0.3354027E+00
         11   -1    0    0    0    0  0.00000000000E+00  0.00000000000E+00  0.39999999674E+01  0.40000000000E+01  0.51100000000E-03 0. -1.
    9000002   -1    0    0    0    0 -0.00000000000E+00 -0.00000000000E+00  0.00000000000E+00  0.93800000000E+00  0.93800000000E+00 0. -1.
         11    1    1    2    0    0 -0.71541599868E-01  0.19792337866E+00  0.14591186490E+01  0.14742182190E+01  0.51100000000E-03 0. -1.
    9000002    1    1    2    0    0  0.15147217899E+00 -0.48091761222E+00  0.17441600413E+00  0.10791156163E+01  0.93800000000E+00 0. -1.
         22    1    1    2    0    0 -0.79930579126E-01  0.28299423356E+00  0.23664653142E+01  0.23846661647E+01  0.00000000000E+00 0.  1.
</event>
<event>
 5    1  0.3222854E+002  0.1596815E+01  0.7818608E-02  0.3356827E+00
         11   -1    0    0    0    0  0.00000000000E+00  0.00000000000E+00  0.39999999674E+01  0.40000000000E+01  0.51100000000E-03 0.  1.
    9000002   -1    0    0    0    0 -0.00000000000E+00 -0.00000000000E+00  0.00000000000E+00  0.93800000000E+00  0.93800000000E+00 0. -1.
         11    1    1    2    0    0  0.80677338797E-02  0.15355799986E-02  0.10351448908E+00  0.10384101745E+00  0.51100000000E-03 0.  1.
    9000002    1    1    2    0    0 -0.47448236585E-01  0.66497251778E+00  0.31797872098E+00  0.11938987610E+01  0.93800000000E+00 0. -1.
         22    1    1    2    0    0  0.39380502706E-01 -0.66650809778E+00  0.35785067573E+01  0.36402602215E+01  0.00000000000E+00 0.  1.
</event>
<event>
 5    1  0.3222854E+002  0.1598800E+01  0.7818608E-02  0.3354667E+00
         11   -1    0    0    0    0  0.00000000000E+00  0.00000000000E+00  0.39999999674E+01  0.40000000000E+01  0.51100000000E-03 0.  1.
    9000002   -1    0    0    0    0 -0.00000000000E+00 -0.00000000000E+00  0.00000000000E+00  0.93800000000E+00  0.93800000000E+00 0.  1.
         11    1    1    2    0    0 -0.29092541963E-01  0.10204948161E-01  0.22642718915E+00  0.22851706735E+00  0.51100000000E-03 0.  1.
    9000002    1    1    2    0    0  0.24107107959E+00 -0.64728423808E-01  0.42058051966E-01  0.97155438036E+00  0.93800000000E+00 0.  1.
         22    1    1    2    0    0 -0.21197853763E+00  0.54523475647E-01  0.37315147262E+01  0.37379285523E+01  0.00000000000E+00 0.  1.
</event>
<event>
 5    1  0.3222854E+002  0.1593842E+01  0.7818608E-02  0.3360075E+00
         11   -1    0    0    0    0  0.00000000000E+00  0.00000000000E+00  0.39999999674E+01  0.40000000000E+01  0.51100000000E-03 0.  1.
    9000002   -1    0    0    0    0 -0.00000000000E+00 -0.00000000000E+00  0.00000000000E+00  0.93800000000E+00  0.93800000000E+00 0.  1.
         11    1    1    2    0    0 -0.35174383860E-01  0.14834667154E-01  0.21613847024E+00  0.21948440507E+00  0.51100000000E-03 0.  1.
    9000002    1    1    2    0    0 -0.12337156915E+00 -0.29621107478E+00  0.73459128221E-01  0.99408339108E+00  0.93800000000E+00 0.  1.
         22    1    1    2    0    0  0.15854595301E+00  0.28137640763E+00  0.37104023689E+01  0.37244322039E+01  0.00000000000E+00 0.  1.
</event>
<event>
 5    1  0.3222854E+002  0.1599676E+01  0.7818608E-02  0.3353715E+00
         11   -1    0    0    0    0  0.00000000000E+00  0.00000000000E+00  0.39999999674E+01  0.40000000000E+01  0.51100000000E-03 0.  1.
    9000002   -1    0    0    0    0 -0.00000000000E+00 -0.00000000000E+00  0.00000000000E+00  0.93800000000E+00  0.93800000000E+00 0. -1.
         11    1    1    2    0    0 -0.12284340487E+00 -0.70751032919E-01  0.15102947863E+01  0.15169333583E+01  0.51100000000E-03 0.  1.
    9000002    1    1    2    0    0  0.31677961652E+00  0.18639307684E+00  0.90761874950E-01  0.10115203520E+01  0.93800000000E+00 0. -1.
         22    1    1    2    0    0 -0.19393621164E+00 -0.11564204392E+00  0.23989433061E+01  0.24095462897E+01  0.00000000000E+00 0.  1.
</event>
<event>
 5    1  0.3222854E+002  0.1598200E+01  0.7818608E-02  0.3355320E+00
         11   -1    0    0    0    0  0.00000000000E+00  0.00000000000E+00  0.39999999674E+01  0.40000000000E+01  0.51100000000E-03 0.  1.
    9000002   -1    0    0    0    0 -0.00000000000E+00 -0.00000000000E+00  0.00000000000E+00  0.93800000000E+00  0.93800000000E+00 0.  1.
         11    1    1    2    0    0 -0.28425680128E+00 -0.14640828118E+00  0.20105068543E+01  0.20357739035E+01  0.51100000000E-03 0.  1.
    9000002    1    1    2    0    0  0.45184147615E+00  0.29770951272E+00  0.20327724405E+00  0.11017973096E+01  0.93800000000E+00 0.  1.
         22    1    1    2    0    0 -0.16758467486E+00 -0.15130123154E+00  0.17862158690E+01  0.18004287869E+01  0.00000000000E+00 0.  1.
</event>
<event>
 5    1  0.3277075E+002  0.1556228E+01  0.7818608E-02  0.3402287E+00
         11   -1    0    0    0    0  0.00000000000E+00  0.00000000000E+00  0.39999999674E+01  0.40000000000E+01  0.51100000000E-03 0. -1.
    9000002   -1    0    0    0    0 -0.00000000000E+00 -0.00000000000E+00  0.00000000000E+00  0.93800000000E+00  0.93800000000E+00 0.  1.
         11    1    1    2    0    0  0.78928403053E-01  0.10261765112E+00  0.28863264962E+00  0.31633707130E+00  0.51100000000E-03 0. -1.
    9000002    1    1    2    0    0  0.11311708972E+00 -0.32616410359E-01  0.41669503323E-01  0.94627673210E+00  0.93800000000E+00 0.  1.
         22    1    1    2    0    0 -0.19204549278E+00 -0.70001240763E-01  0.36696978144E+01  0.36753861966E+01  0.00000000000E+00 0. -1.
</event>
<event>
 5    1  0.3222854E+002  0.1598803E+01  0.7818608E-02  0.3354664E+00
         11   -1    0    0    0    0  0.00000000000E+00  0.00000000000E+00  0.39999999674E+01  0.40000000000E+01  0.51100000000E-03 0.  1.
    9000002   -1    0    0    0    0 -0.00000000000E+00 -0.00000000000E+00  0.00000000000E+00  0.93800000000E+00  0.93800000000E+00 0. -1.
         11    1    1    2    0    0  0.14319392044E+00 -0.19299559328E+00  0.23536634928E+01  0.23659002296E+01  0.51100000000E-03 0.  1.
    9000002    1    1    2    0    0 -0.28397089666E+00  0.34661191551E+00  0.13708191590E+00  0.10485298001E+01  0.93800000000E+00 0. -1.
         22    1    1    2    0    0  0.14077697623E+00 -0.15361632223E+00  0.15092545587E+01  0.15235699703E+01  0.00000000000E+00 0. -1.
</event>
<event>
 5    1  0.3222854E+002  0.1596275E+01  0.7818608E-02  0.3357416E+00
         11   -1    0    0    0    0  0.00000000000E+00  0.00000000000E+00  0.39999999674E+01  0.40000000000E+01  0.51100000000E-03 0. -1.
    9000002   -1    0    0    0    0 -0.00000000000E+00 -0.00000000000E+00  0.00000000000E+00  0.93800000000E+00  0.93800000000E+00 0.  1.
         11    1    1    2    0    0 -0.24955656750E-01  0.38675275482E-01  0.10474382488E+01  0.10484491919E+01  0.51100000000E-03 0. -1.
    9000002    1    1    2    0    0  0.29969446390E+00 -0.35620233594E-01  0.63444135347E-01  0.98739795981E+00  0.93800000000E+00 0.  1.
         22    1    1    2    0    0 -0.27473880715E+00 -0.30550418878E-02  0.28891175832E+01  0.29021528483E+01  0.00000000000E+00 0. -1.
</event>
<event>
 5    1  0.3222854E+002  0.1577601E+01  0.7818608E-02  0.3378040E+00
         11   -1    0    0    0    0  0.00000000000E+00  0.00000000000E+00  0.39999999674E+01  0.40000000000E+01  0.51100000000E-03 0.  1.
    9000002   -1    0    0    0    0 -0.00000000000E+00 -0.00000000000E+00  0.00000000000E+00  0.93800000000E+00  0.93800000000E+00 0. -1.
         11    1    1    2    0    0  0.12330224200E+00 -0.10164953515E+00  0.16027257392E+01  0.16106725698E+01  0.51100000000E-03 0.  1.
    9000002    1    1    2    0    0  0.10731471859E+00  0.11584704856E+00  0.32981352374E-01  0.95177137858E+00  0.93800000000E+00 0. -1.
         22    1    1    2    0    0 -0.23061696059E+00 -0.14197513413E-01  0.23642928758E+01  0.23755560516E+01  0.00000000000E+00 0.  1.
</event>
<event>
 5    1  0.3222854E+002  0.1591384E+01  0.7818608E-02  0.3362769E+00
         11   -1    0    0    0    0  0.00000000000E+00  0.00000000000E+00  0.39999999674E+01  0.40000000000E+01  0.51100000000E-03 0. -1.
    9000002   -1    0    0    0    0 -0.00000000000E+00 -0.00000000000E+00  0.00000000000E+00  0.93800000000E+00  0.93800000000E+00 0.  1.
         11    1    1    2    0    0  0.26266646563E-01 -0.62482617350E-01  0.10498626567E+01  0.10520484177E+01  0.51100000000E-03 0. -1.
    9000002    1    1    2    0    0  0.21113384823E+00  0.43502519164E-01  0.37070544961E-01  0.96316571593E+00  0.93800000000E+00 0.  1.
         22    1    1    2    0    0 -0.23740049479E+00  0.18980098186E-01  0.29130667657E+01  0.29227858664E+01  0.00000000000E+00 0. -1.
</event>
<event>
 5    1  0.3222854E+002  0.1599676E+01  0.7818608E-02  0.3353715E+00
         11   -1    0    0    0    0  0.00000000000E+00  0.00000000000E+00  0.39999999674E+01  0.40000000000E+01  0.51100000000E-03 0.  1.
    9000002   -1    0    0    0    0 -0.00000000000E+00 -0.00000000000E+00  0.00000000000E+00  0.93800000000E+00  0.93800000000E+00 0.  1.
         11    1    1    2    0    0 -0.14302098273E-02  0.12420540288E+00  0.71510967586E+00  0.72581756470E+00  0.51100000000E-03 0.  1.
    9000002    1    1    2    0    0  0.11857093897E-01 -0.64170795271E+00  0.29011417938E+00  0.11730046566E+01  0.93800000000E+00 0.  1.
         22    1    1    2    0    0 -0.10426884069E-01  0.51750254983E+00  0.29947761121E+01  0.30391777787E+01  0.00000000000E+00 0.  1.
</event>
<event>
 5    1  0.3222854E+002  0.1599675E+01  0.7818608E-02  0.3353717E+00
         11   -1    0    0    0    0  0.00000000000E+00  0.00000000000E+00  0.39999999674E+01  0.40000000000E+01  0.51100000000E-03 0. -1.
    9000002   -1    0    0    0    0 -0.00000000000E+00 -0.00000000000E+00  0.00000000000E+00  0.93800000000E+00  0.93800000000E+00 0. -1.
         11    1    1    2    0    0 -0.12558992225E-01  0.17210418968E-01  0.23518540558E+00  0.23614902694E+00  0.51100000000E-03 0. -1.
    9000002    1    1    2    0    0  0.21057734445E+00 -0.27400292181E+00  0.80035787215E-01  0.10028310657E+01  0.93800000000E+00 0. -1.
         22    1    1    2    0    0 -0.19801835222E+00  0.25679250284E+00  0.36847787746E+01  0.36990199073E+01  0.00000000000E+00 0. -1.
</event>
<event>
 5    1  0.3222854E+002  0.1599638E+01  0.7818608E-02  0.3353756E+00
         11   -1    0    0    0    0  0.00000000000E+00  0.00000000000E+00  0.39999999674E+01  0.40000000000E+01  0.51100000000E-03 0.  1.
    9000002   -1    0    0    0    0 -0.00000000000E+00 -0.00000000000E+00  0.00000000000E+00  0.93800000000E+00  0.93800000000E+00 0. -1.
         11    1    1    2    0    0 -0.45516257837E-01 -0.43396202147E-01  0.74751391312E+00  0.75015483169E+00  0.51100000000E-03 0.  1.
    9000002    1    1    2    0    0  0.20883120583E+00  0.23190774725E+00  0.65076436220E-01  0.99069198963E+00  0.93800000000E+00 0. -1.
         22    1    1    2    0    0 -0.16331494799E+00 -0.18851154510E+00  0.31874096180E+01  0.31971531787E+01  0.00000000000E+00 0.  1.
</event>
<event>
 5    1  0.3222854E+002  0.1597602E+01  0.7818608E-02  0.3355971E+00
         11   -1    0    0    0    0  0.00000000000E+00  0.00000000000E+00  0.39999999674E+01  0.40000000000E+01  0.51100000000E-03 0.  1.
    9000002   -1    0    0    0    0 -0.00000000000E+00 -0.00000000000E+00  0.00000000000E+00  0.93800000000E+00  0.93800000000E+00 0. -1.
         11    1    1    2    0    0 -0.19225163232E-01 -0.10785363354E-01  0.14491318475E+00  0.14658111474E+00  0.51100000000E-03 0.  1.
    9000002    1    1    2    0    0 -0.33759629737E-01  0.22583686993E+00  0.36156101936E-01  0.96607104714E+00  0.93800000000E+00 0. -1.
         22    1    1    2    0    0  0.52984792969E-01 -0.21505150658E+00  0.38189306807E+01  0.38253478381E+01  0.00000000000E+00 0.  1.
</event>
<event>
 5    1  0.3222854E+002  0.1595871E+01  0.7818608E-02  0.3357857E+00
         11   -1    0    0    0    0  0.00000000000E+00  0.00000000000E+00  0.39999999674E+01  0.40000000000E+01  0.51100000000E-03 0. -1.
    9000002   -1    0    0    0    0 -0.00000000000E+00 -0.00000000000E+00  0.00000000000E+00  0.93800000000E+00  0.93800000000E+00 0. -1.
         11    1    1    2    0    0  0.35978661667E-01  0.64624080423E-01  0.68988159544E+00  0.69383543634E+00  0.51100000000E-03 0. -1.
    9000002    1    1    2    0    0 -0.40014667650E+00 -0.11288226718E+00  0.12004800823E+00  0.10330127266E+01  0.93800000000E+00 0. -1.
         22    1    1    2    0    0  0.36416801484E+00  0.48258186759E-01  0.31900703637E+01  0.32111518371E+01  0.00000000000E+00 0. -1.
</event>
<event>
 5    1  0.3222854E+002  0.1599368E+01  0.7818608E-02  0.3354050E+00
         11   -1    0    0    0    0  0.00000000000E+00  0.00000000000E+00  0.39999999674E+01  0.40000000000E+01  0.51100000000E-03 0. -1.
    9000002   -1    0    0    0    0 -0.00000000000E+00 -0.00000000000E+00  0.00000000000E+00  0.93800000000E+00  0.93800000000E+00 0.  1.
         11    1    1    2    0    0  0.23002384263E+00  0.89735827588E-01  0.10159905346E+01  0.10455622958E+01  0.51100000000E-03 0. -1.
    9000002    1    1    2    0    0 -0.77170854014E+00 -0.24770068166E+00  0.48603084439E+00  0.13315253209E+01  0.93800000000E+00 0.  1.
         22    1    1    2    0    0  0.54168469751E+00  0.15796485407E+00  0.24979785884E+01  0.25609123832E+01  0.00000000000E+00 0. -1.
</event>
<event>
 5    1  0.3222854E+002  0.1595286E+01  0.7818608E-02  0.3358496E+00
         11   -1    0    0    0    0  0.00000000000E+00  0.00000000000E+00  0.39999999674E+01  0.40000000000E+01  0.51100000000E-03 0. -1.
    9000002   -1    0    0    0    0 -0.00000000000E+00 -0.00000000000E+00  0.00000000000E+00  0.93800000000E+00  0.93800000000E+00 0. -1.
         11    1    1    2    0    0  0.10102096663E+00  0.46699655952E-01  0.76243313864E+00  0.77051323517E+00  0.51100000000E-03 0. -1.
    9000002    1    1    2    0    0 -0.19519190851E+00 -0.23091147244E+00  0.64449814039E-01  0.98763240519E+00  0.93800000000E+00 0. -1.
         22    1    1    2    0    0  0.94170941884E-01  0.18421181649E+00  0.31731170147E+01  0.31798543596E+01  0.00000000000E+00 0. -1.
</event>
<event>
 5    1  0.3222854E+002  0.1599676E+01  0.7818608E-02  0.3353715E+00
         11   -1    0    0    0    0  0.00000000000E+00  0.00000000000E+00  0.39999999674E+01  0.40000000000E+01  0.51100000000E-03 0. -1.
    9000002   -1    0    0    0    0 -0.00000000000E+00 -0.00000000000E+00  0.00000000000E+00  0.93800000000E+00  0.93800000000E+00 0. -1.
         11    1    1    2    0    0 -0.30288040294E-01  0.89979435570E-01  0.10771699363E+01  0.10813459192E+01  0.51100000000E-03 0. -1.
    9000002    1    1    2    0    0  0.11032164171E+00 -0.33086148934E+00  0.81550650088E-01  0.10040591110E+01  0.93800000000E+00 0. -1.
         22    1    1    2    0    0 -0.80033601415E-01  0.24088205377E+00  0.28412793809E+01  0.28525949698E+01  0.00000000000E+00 0. -1.
</event>
<event>
 5    1  0.3222854E+002  0.1599630E+01  0.7818608E-02  0.3353765E+00
         11   -1    0    0    0    0  0.00000000000E+00  0.00000000000E+00  0.39999999674E+01  0.40000000000E+01  0.51100000000E-03 0. -1.
    9000002   -1    0    0    0    0 -0.00000000000E+00 -0.00000000000E+00  0.00000000000E+00  0.93800000000E+00  0.93800000000E+00 0.  1.
         11    1    1    2    0    0  0.89234535582E-01 -0.64803757583E-01  0.82766877756E+00  0.83498394943E+00  0.51100000000E-03 0. -1.
    9000002    1    1    2    0    0 -0.43344364113E+00  0.27625619450E+00  0.18132962696E+00  0.10848572757E+01  0.93800000000E+00 0.  1.
         22    1    1    2    0    0  0.34420910554E+00 -0.21145243691E+00  0.29910015628E+01  0.30181587749E+01  0.00000000000E+00 0. -1.
</event>
<event>
 5    1  0.3222854E+002  0.1599626E+01  0.7818608E-02  0.3353770E+00
         11   -1    0    0    0    0  0.00000000000E+00  0.00000000000E+00  0.39999999674E+01  0.40000000000E+01  0.51100000000E-03 0.  1.
    9000002   -1    0    0    0    0 -0.00000000000E+00 -0.00000000000E+00  0.00000000000E+00  0.93800000000E+00  0.93800000000E+00 0. -1.
         11    1    1    2    0    0  0.10305239182E-01 -0.25078453054E+00  0.21371161265E+01  0.21518049814E+01  0.51100000000E-03 0.  1.
    9000002    1    1    2    0    0 -0.28502375070E-01  0.46403772955E+00  0.14717565423E+00  0.10571887594E+01  0.93800000000E+00 0. -1.
         22    1    1    2    0    0  0.18197135888E-01 -0.21325319901E+00  0.17157081866E+01  0.17290062591E+01  0.00000000000E+00 0.  1.
</event>
<event>
 5    1  0.3222854E+002  0.1599675E+01  0.7818608E-02  0.3353716E+00
         11   -1    0    0    0    0  0.00000000000E+00  0.00000000000E+00  0.39999999674E+01  0.40000000000E+01  0.51100000000E-03 0. -1.
    9000002   -1    0    0    0    0 -0.00000000000E+00 -0.00000000000E+00  0.00000000000E+00  0.93800000000E+00  0.93800000000E+00 0. -1.
         11    1    1    2    0    0 -0.27359385547E-01  0.16058552743E-01  0.40835694041E+00  0.40958767681E+00  0.51100000000E-03 0. -1.
    9000002    1    1    2    0    0  0.26909063555E+00 -0.14837673257E+00  0.63036985974E-01  0.98906172027E+00  0.93800000000E+00 0. -1.
         22    1    1    2    0    0 -0.24173125000E+00  0.13231817983E+00  0.35286060410E+01  0.35393506029E+01  0.00000000000E+00 0. -1.
</event>
<event>
 5    1  0.3222854E+002  0.1599672E+01  0.7818608E-02  0.3353720E+00
         11   -1    0    0    0    0  0.00000000000E+00  0.00000000000E+00  0.39999999674E+01  0.40000000000E+01  0.51100000000E-03 0. -1.
    9000002   -1    0    0    0    0 -0.00000000000E+00 -0.00000000000E+00  0.00000000000E+00  0.93800000000E+00  0.93800000000E+00 0.  1.
         11    1    1    2    0    0 -0.12105885296E-01 -0.80925444551E-02  0.19420979507E+00  0.19475560930E+00  0.51100000000E-03 0. -1.
    9000002    1    1    2    0    0  0.26503903463E+00  0.15388722630E+00  0.62702082943E-01  0.98878840987E+00  0.93800000000E+00 0.  1.
         22    1    1    2    0    0 -0.25293314934E+00 -0.14579468185E+00  0.37430880894E+01  0.37544559808E+01  0.00000000000E+00 0. -1.
</event>
<event>
 5    1  0.3222854E+002  0.1599616E+01  0.7818608E-02  0.3353780E+00
         11   -1    0    0    0    0  0.00000000000E+00  0.00000000000E+00  0.39999999674E+01  0.40000000000E+01  0.51100000000E-03 0.  1.
    9000002   -1    0    0    0    0 -0.00000000000E+00 -0.00000000000E+00  0.00000000000E+00  0.93800000000E+00  0.93800000000E+00 0.  1.
         11    1    1    2    0    0  0.63756908032E-01 -0.92925748105E-01  0.12660342934E+01  0.12710402162E+01  0.51100000000E-03 0.  1.
    9000002    1    1    2    0    0 -0.18201160353E+00  0.26621028363E+00  0.69576807053E-01  0.99432442946E+00  0.93800000000E+00 0.  1.
         22    1    1    2    0    0  0.11825469549E+00 -0.17328453553E+00  0.26643888669E+01  0.26726353543E+01  0.00000000000E+00 0.  1.
</event>
<event>
 5    1  0.3222854E+002  0.1595184E+01  0.7818608E-02  0.3358607E+00
         11   -1    0    0    0    0  0.00000000000E+00  0.00000000000E+00  0.39999999674E+01  0.40000000000E+01  0.51100000000E-03 0. -1.
    9000002   -1    0    0    0    0 -0.00000000000E+00 -0.00000000000E+00  0.00000000000E+00  0.93800000000E+00  0.93800000000E+00 0.  1.
         11    1    1    2    0    0 -0.23878215679E+00 -0.41584186756E+00  0.17633391063E+01  0.18273769294E+01  0.51100000000E-03 0. -1.
    9000002    1    1    2    0    0  0.36431697130E+00  0.71089395628E+00  0.47567775575E+00  0.13206855795E+01  0.93800000000E+00 0.  1.
         22    1    1    2    0    0 -0.12553481452E+00 -0.29505208872E+00  0.17609831053E+01  0.17899374911E+01  0.00000000000E+00 0.  1.
</event>
<event>
 5    1  0.3222854E+002  0.1599610E+01  0.7818608E-02  0.3353786E+00
         11   -1    0    0    0    0  0.00000000000E+00  0.00000000000E+00  0.39999999674E+01  0.40000000000E+01  0.51100000000E-03 0.  1.
    9000002   -1    0    0    0    0 -0.00000000000E+00 -0.00000000000E+00  0.00000000000E+00  0.93800000000E+00  0.93800000000E+00 0.  1.
         11    1    1    2    0    0 -0.74048047892E-01  0.55098041821E-01  0.12955813775E+01  0.12988649947E+01  0.51100000000E-03 0.  1.
    9000002    1    1    2    0    0  0.25277507205E+00 -0.17215045423E+00  0.62482234249E-01  0.98857424887E+00  0.93800000000E+00 0.  1.
         22    1    1    2    0    0 -0.17872702416E+00  0.11705241241E+00  0.26419363556E+01  0.26505607564E+01  0.00000000000E+00 0.  1.
</event>
<event>
 5    1  0.3222854E+002  0.1599677E+01  0.7818608E-02  0.3353715E+00
         11   -1    0    0    0    0  0.00000000000E+00  0.00000000000E+00  0.39999999674E+01  0.40000000000E+01  0.51100000000E-03 0.  1.
    9000002   -1    0    0    0    0 -0.00000000000E+00 -0.00000000000E+00  0.00000000000E+00  0.93800000000E+00  0.93800000000E+00 0. -1.
         11    1    1    2    0    0 -0.12923332741E+00 -0.62333607197E-01  0.11215802419E+01  0.11307206692E+01  0.51100000000E-03 0.  1.
    9000002    1    1    2    0    0  0.44234384768E+00  0.21557486158E+00  0.16554113280E+00  0.10720953629E+01  0.93800000000E+00 0. -1.
         22    1    1    2    0    0 -0.31311052027E+00 -0.15324125439E+00  0.27128785927E+01  0.27351839679E+01  0.00000000000E+00 0.  1.
</event>
<event>
 5    1  0.3222854E+002  0.1599133E+01  0.7818608E-02  0.3354305E+00
         11   -1    0    0    0    0  0.00000000000E+00  0.00000000000E+00  0.39999999674E+01  0.40000000000E+01  0.51100000000E-03 0.  1.
    9000002   -1    0    0    0    0 -0.00000000000E+00 -0.00000000000E+00  0.00000000000E+00  0.93800000000E+00  0.93800000000E+00 0.  1.
         11    1    1    2    0    0 -0.41368047298E+00  0.49254084912E+00  0.18802349209E+01  0.19872120271E+01  0.51100000000E-03 0.  1.
    9000002    1    1    2    0    0  0.69669148498E+00 -0.82233386118E+00  0.98435995274E+00  0.17350563452E+01  0.93800000000E+00 0.  1.
         22    1    1    2    0    0 -0.28301101200E+00  0.32979301206E+00  0.11354050937E+01  0.12157316277E+01  0.00000000000E+00 0. -1.
</event>
<event>
 5    1  0.3222854E+002  0.1599362E+01  0.7818608E-02  0.3354056E+00
         11   -1    0    0    0    0  0.00000000000E+00  0.00000000000E+00  0.39999999674E+01  0.40000000000E+01  0.51100000000E-03 0.  1.
    9000002   -1    0    0    0    0 -0.00000000000E+00 -0.00000000000E+00  0.00000000000E+00  0.93800000000E+00  0.93800000000E+00 0. -1.
         11    1    1    2    0    0  0.61297226366E-01  0.34571109117E-01  0.81507280842E+00  0.81810540623E+00  0.51100000000E-03 0.  1.
    9000002    1    1    2    0    0 -0.29830861252E+00 -0.83402311151E-01  0.64312214161E-01  0.98991112465E+00  0.93800000000E+00 0. -1.
         22    1    1    2    0    0  0.23701138615E+00  0.48831202034E-01  0.31206149448E+01  0.31299834691E+01  0.00000000000E+00 0.  1.
</event>
<event>
 5    1  0.3222854E+002  0.1593170E+01  0.7818608E-02  0.3360810E+00
         11   -1    0    0    0    0  0.00000000000E+00  0.00000000000E+00  0.39999999674E+01  0.40000000000E+01  0.51100000000E-03 0.  1.
    9000002   -1    0    0    0    0 -0.00000000000E+00 -0.00000000000E+00  0.00000000000E+00  0.93800000000E+00  0.93800000000E+00 0. -1.
         11    1    1    2    0    0 -0.11580643719E+00 -0.84759764071E-01  0.78999385825E+00  0.80292334982E+00  0.51100000000E-03 0.  1.
    9000002    1    1    2    0    0  0.18733820546E+00  0.36089130942E+00  0.11707866547E+00  0.10290235927E+01  0.93800000000E+00 0. -1.
         22    1    1    2    0    0 -0.71531768264E-01 -0.27613154535E+00  0.30929274436E+01  0.31060530575E+01  0.00000000000E+00 0.  1.
</event>
<event>
 5    1  0.3222854E+002  0.1591703E+01  0.7818608E-02  0.3362418E+00
         11   -1    0    0    0    0  0.00000000000E+00  0.00000000000E+00  0.39999999674E+01  0.40000000000E+01  0.51100000000E-03 0. -1.
    9000002   -1    0    0    0    0 -0.00000000000E+00 -0.00000000000E+00  0.00000000000E+00  0.93800000000E+00  0.93800000000E+00 0. -1.
         11    1    1    2    0    0 -0.28747157012E-01 -0.10914554811E+00  0.11623058216E+01  0.11677731945E+01  0.51100000000E-03 0. -1.
    9000002    1    1    2    0    0  0.35413597902E+00  0.16057590845E+00  0.10845437799E+00  0.10211773921E+01  0.93800000000E+00 0. -1.
         22    1    1    2    0    0 -0.32538882201E+00 -0.51430360338E-01  0.27292397677E+01  0.27490494134E+01  0.00000000000E+00 0. -1.
</event>
<event>
 5    1  0.3370583E+002  0.1580212E+01  0.7818608E-02  0.3375125E+00
         11   -1    0    0    0    0  0.00000000000E+00  0.00000000000E+00  0.39999999674E+01  0.40000000000E+01  0.51100000000E-03 0. -1.
    9000002   -1    0    0    0    0 -0.00000000000E+00 -0.00000000000E+00  0.00000000000E+00  0.93800000000E+00  0.93800000000E+00 0. -1.
         11    1    1    2    0    0 -0.11204443660E+00  0.35643209700E-01  0.72933897108E+00  0.73875570389E+00  0.51100000000E-03 0. -1.
    9000002    1    1    2    0    0 -0.13964053052E-01  0.14170931102E+00  0.27862386748E-01  0.94915585454E+00  0.93800000000E+00 0. -1.
         22    1    1    2    0    0  0.12600848966E+00 -0.17735252072E+00  0.32427986095E+01  0.32500884416E+01  0.00000000000E+00 0. -1.
</event>
<event>
 5    1  0.3222854E+002  0.1474909E+01  0.7818608E-02  0.3501428E+00
         11   -1    0    0    0    0  0.00000000000E+00  0.00000000000E+00  0.39999999674E+01  0.40000000000E+01  0.51100000000E-03 0. -1.
    9000002   -1    0    0    0    0 -0.00000000000E+00 -0.00000000000E+00  0.00000000000E+00  0.93800000000E+00  0.93800000000E+00 0. -1.
         11    1    1    2    0    0 -0.47278201667E+00  0.14680433149E+00  0.17963890547E+01  0.18633540308E+01  0.51100000000E-03 0. -1.
    9000002    1    1    2    0    0  0.12113371773E+00 -0.14217679736E+00  0.12273210865E+00  0.96425867368E+00  0.93800000000E+00 0. -1.
         22    1    1    2    0    0  0.35164829894E+00 -0.46275341315E-02  0.20808788040E+01  0.21103872955E+01  0.00000000000E+00 0. -1.
</event>
<event>
 5    1  0.3222854E+002  0.1599637E+01  0.7818608E-02  0.3353757E+00
         11   -1    0    0    0    0  0.00000000000E+00  0.00000000000E+00  0.39999999674E+01  0.40000000000E+01  0.51100000000E-03 0. -1.
    9000002   -1    0    0    0    0 -0.00000000000E+00 -0.00000000000E+00  0.00000000000E+00  0.93800000000E+00  0.93800000000E+00 0.  1.
         11    1    1    2    0    0 -0.15766051206E+00 -0.59901239850E-02  0.11015008197E+01  0.11127430232E+01  0.51100000000E-03 0. -1.
    9000002    1    1    2    0    0  0.52475509536E+00  0.86266078719E-02  0.18940479949E+00  0.10914029991E+01  0.93800000000E+00 0.  1.
         22    1    1    2    0    0 -0.36709458330E+00 -0.26364838869E-02  0.27090943481E+01  0.27338539777E+01  0.00000000000E+00 0. -1.
</event>
<event>
 5    1  0.3222854E+002  0.1503427E+01  0.7818608E-02  0.3465347E+00
         11   -1    0    0    0    0  0.00000000000E+00  0.00000000000E+00  0.39999999674E+01  0.40000000000E+01  0.51100000000E-03 0.  1.
    9000002   -1    0    0    0    0 -0.00000000000E+00 -0.00000000000E+00  0.00000000000E+00  0.93800000000E+00  0.93800000000E+00 0.  1.
         11    1    1    2    0    0 -0.43905384120E-01 -0.24579507518E+00  0.20810555743E+01  0.20959807886E+01  0.51100000000E-03 0.  1.
    9000002    1    1    2    0    0 -0.84873966839E-01 -0.21790103656E+00  0.11328082457E+00  0.97332471313E+00  0.93800000000E+00 0.  1.
         22    1    1    2    0    0  0.12877935096E+00  0.46369611175E+00  0.18056635685E+01  0.18686944983E+01  0.00000000000E+00 0.  1.
</event>
<event>
 5    1  0.3222854E+002  0.1599677E+01  0.7818608E-02  0.3353714E+00
         11   -1    0    0    0    0  0.00000000000E+00  0.00000000000E+00  0.39999999674E+01  0.40000000000E+01  0.51100000000E-03 0.  1.
    9000002   -1    0    0    0    0 -0.00000000000E+00 -0.00000000000E+00  0.00000000000E+00  0.93800000000E+00  0.93800000000E+00 0. -1.
         11    1    1    2    0    0 -0.88332807998E-01 -0.10286373446E+00  0.13034427304E+01  0.13104758088E+01  0.51100000000E-03 0.  1.
    9000002    1    1    2    0    0  0.26381233752E+00  0.30533099410E+00  0.10987804402E+00  0.10270059152E+01  0.93800000000E+00 0. -1.
         22    1    1    2    0    0 -0.17547952952E+00 -0.20246725964E+00  0.25866791930E+01  0.26005182760E+01  0.00000000000E+00 0.  1.
</event>
<event>
 5    1  0.4343137E+002  0.1587278E+01  0.7818608E-02  0.3367288E+00
         11   -1    0    0    0    0  0.00000000000E+00  0.00000000000E+00  0.39999999674E+01  0.40000000000E+01  0.51100000000E-03 0. -1.
    9000002   -1    0    0    0    0 -0.00000000000E+00 -0.00000000000E+00  0.00000000000E+00  0.93800000000E+00  0.93800000000E+00 0. -1.
         11    1    1    2    0    0  0.79669379492E-01  0.14417567800E-01  0.70642158610E+00  0.71104626763E+00  0.51100000000E-03 0. -1.
    9000002    1    1    2    0    0  0.10902682513E+00  0.66104953452E-01  0.19881604677E-01  0.94683472247E+00  0.93800000000E+00 0. -1.
         22    1    1    2    0    0 -0.18869620462E+00 -0.80522521252E-01  0.32736967766E+01  0.32801190099E+01  0.00000000000E+00 0. -1.
</event>
<event>
 5    1  0.3222854E+002  0.1589176E+01  0.7818608E-02  0.3365196E+00
         11   -1    0    0    0    0  0.00000000000E+00  0.00000000000E+00  0.39999999674E+01  0.40000000000E+01  0.51100000000E-03 0. -1.
    9000002   -1    0    0    0    0 -0.00000000000E+00 -0.00000000000E+00  0.00000000000E+00  0.93800000000E+00  0.93800000000E+00 0.  1.
         11    1    1    2    0    0  0.14970983704E-01  0.48055847390E-01  0.10908017537E+00  0.12013426073E+00  0.51100000000E-03 0. -1.
    9000002    1    1    2    0    0 -0.16541802005E+00 -0.26964922959E+00  0.75203302498E-01  0.99276047719E+00  0.93800000000E+00 0.  1.
         22    1    1    2    0    0  0.15044703634E+00  0.22159338220E+00  0.38157164895E+01  0.38251052621E+01  0.00000000000E+00 0. -1.
</event>
<event>
 5    1  0.3222854E+002  0.1599668E+01  0.7818608E-02  0.3353723E+00
         11   -1    0    0    0    0  0.00000000000E+00  0.00000000000E+00  0.39999999674E+01  0.40000000000E+01  0.51100000000E-03 0. -1.
    9000002   -1    0    0    0    0 -0.00000000000E+00 -0.00000000000E+00  0.00000000000E+00  0.93800000000E+00  0.93800000000E+00 0. -1.
         11    1    1    2    0    0  0.28285363133E-01  0.86699804272E-01  0.11709421264E+01  0.11744882470E+01  0.51100000000E-03 0. -1.
    9000002    1    1    2    0    0 -0.10068677068E+00 -0.28240410262E+00  0.59972323425E-01  0.98657517836E+00  0.93800000000E+00 0. -1.
         22    1    1    2    0    0  0.72401407552E-01  0.19570429835E+00  0.27690855175E+01  0.27769365746E+01  0.00000000000E+00 0. -1.
</event>
<event>
 5    1  0.3222854E+002  0.1599675E+01  0.7818608E-02  0.3353716E+00
         11   -1    0    0    0    0  0.00000000000E+00  0.00000000000E+00  0.39999999674E+01  0.40000000000E+01  0.51100000000E-03 0.  1.
    9000002   -1    0    0    0    0 -0.00000000000E+00 -0.00000000000E+00  0.00000000000E+00  0.93800000000E+00  0.93800000000E+00 0. -1.
         11    1    1    2    0    0 -0.53508869880E-01  0.17783013365E-01  0.79451614840E+00  0.79651466146E+00  0.51100000000E-03 0.  1.
    9000002    1    1    2    0    0  0.26014343902E+00 -0.92375635817E-01  0.50732621227E-01  0.97909430895E+00  0.93800000000E+00 0. -1.
         22    1    1    2    0    0 -0.20663456914E+00  0.74592622452E-01  0.31547511977E+01  0.31623910296E+01  0.00000000000E+00 0.  1.
</event>
<event>
 5    1  0.3222854E+002  0.1599655E+01  0.7818608E-02  0.3353738E+00
         11   -1    0    0    0    0  0.00000000000E+00  0.00000000000E+00  0.39999999674E+01  0.40000000000E+01  0.51100000000E-03 0.  1.
    9000002   -1    0    0    0    0 -0.00000000000E+00 -0.00000000000E+00  0.00000000000E+00  0.93800000000E+00  0.93800000000E+00 0. -1.
         11    1    1    2    0    0  0.43296903033E-02  0.13986022713E-01  0.19215508967E+00  0.19271272572E+00  0.51100000000E-03 0.  1.
    9000002    1    1    2    0    0 -0.65528258949E-01 -0.24489495785E+00  0.42720684682E-01  0.97259269481E+00  0.93800000000E+00 0. -1.
         22    1    1    2    0    0  0.61198568645E-01  0.23090893514E+00  0.37651241930E+01  0.37726945795E+01  0.00000000000E+00 0.  1.
</event>
<event>
 5    1  0.3222854E+002  0.1599497E+01  0.7818608E-02  0.3353909E+00
         11   -1    0    0    0    0  0.00000000000E+00  0.00000000000E+00  0.39999999674E+01  0.40000000000E+01  0.51100000000E-03 0.  1.
    9000002   -1    0    0    0    0 -0.00000000000E+00 -0.00000000000E+00  0.00000000000E+00  0.93800000000E+00  0.93800000000E+00 0.  1.
         11    1    1    2    0    0 -0.26933620868E+00 -0.42054580268E+00  0.25338500715E+01  0.25825950537E+01  0.51100000000E-03 0.  1.
    9000002    1    1    2    0    0  0.36983567568E+00  0.59383857411E+00  0.34994078042E+00  0.12213620384E+01  0.93800000000E+00 0.  1.
         22    1    1    2    0    0 -0.10049946700E+00 -0.17329277143E+00  0.11162091154E+01  0.11340429078E+01  0.00000000000E+00 0. -1.
</event>
<event>
 5    1  0.3222854E+002  0.1571008E+01  0.7818608E-02  0.3385444E+00
         11   -1    0    0    0    0  0.00000000000E+00  0.00000000000E+00  0.39999999674E+01  0.40000000000E+01  0.51100000000E-03 0. -1.
    9000002   -1    0    0    0    0 -0.00000000000E+00 -0.00000000000E+00  0.00000000000E+00  0.93800000000E+00  0.93800000000E+00 0.  1.
         11    1    1    2    0    0  0.21782190425E+00 -0.63843027692E-01  0.16338306833E+01  0.16495227422E+01  0.51100000000E-03 0. -1.
    9000002    1    1    2    0    0 -0.45067059956E-01  0.21494245383E+00  0.53929604360E-01  0.96487496629E+00  0.93800000000E+00 0.  1.
         22    1    1    2    0    0 -0.17275484430E+00 -0.15109942614E+00  0.23122396797E+01  0.23236022915E+01  0.00000000000E+00 0. -1.
</event>
<event>
 5    1  0.3222854E+002  0.1599264E+01  0.7818608E-02  0.3354163E+00
         11   -1    0    0    0    0  0.00000000000E+00  0.00000000000E+00  0.39999999674E+01  0.40000000000E+01  0.51100000000E-03 0.  1.
    9000002   -1    0    0    0    0 -0.00000000000E+00 -0.00000000000E+00  0.00000000000E+00  0.93800000000E+00  0.93800000000E+00 0.  1.
         11    1    1    2    0    0 -0.67814128475E-01 -0.59626424792E-01  0.63868815061E+00  0.64504021689E+00  0.51100000000E-03 0.  1.
    9000002    1    1    2    0    0  0.48227722048E+00  0.28032651495E+00  0.21564438949E+00  0.11124391107E+01  0.93800000000E+00 0.  1.
         22    1    1    2    0    0 -0.41446309201E+00 -0.22070009016E+00  0.31456674273E+01  0.31805206724E+01  0.00000000000E+00 0.  1.
</event>
<event>
 5    1  0.3222854E+002  0.1599640E+01  0.7818608E-02  0.3353754E+00
         11   -1    0    0    0    0  0.00000000000E+00  0.00000000000E+00  0.39999999674E+01  0.40000000000E+01  0.51100000000E-03 0. -1.
    9000002   -1    0    0    0    0 -0.00000000000E+00 -0.00000000000E+00  0.00000000000E+00  0.93800000000E+00  0.93800000000E+00 0. -1.
         11    1    1    2    0    0 -0.64560650453E-01  0.14409999982E-01  0.85744716825E+00  0.85999513553E+00  0.51100000000E-03 0. -1.
    9000002    1    1    2    0    0  0.32352507285E+00 -0.65591770568E-01  0.72940572323E-01  0.99706322780E+00  0.93800000000E+00 0. -1.
         22    1    1    2    0    0 -0.25896442240E+00  0.51181770585E-01  0.30696122268E+01  0.30809416367E+01  0.00000000000E+00 0. -1.
</event>
<event>
 5    1  0.3222854E+002  0.1597189E+01  0.7818608E-02  0.3356420E+00
         11   -1    0    0    0    0  0.00000000000E+00  0.00000000000E+00  0.39999999674E+01  0.40000000000E+01  0.51100000000E-03 0.  1.
    9000002   -1    0    0    0    0 -0.00000000000E+00 -0.00000000000E+00  0.00000000000E+00  0.93800000000E+00  0.93800000000E+00 0.  1.
         11    1    1    2    0    0 -0.65580709555E-01 -0.33286855375E+00  0.54227144580E+00  0.63965684987E+00  0.51100000000E-03 0.  1.
    9000002    1    1    2    0    0  0.21565922629E+00  0.12739457336E+01  0.22772317298E+01  0.27812002778E+01  0.93800000000E+00 0.  1.
         22    1    1    2    0    0 -0.15007851673E+00 -0.94107717987E+00  0.11804967918E+01  0.15171428724E+01  0.00000000000E+00 0.  1.
</event>
<event>
 5    1  0.3222854E+002  0.1592161E+01  0.7818608E-02  0.3361915E+00
         11   -1    0    0    0    0  0.00000000000E+00  0.00000000000E+00  0.39999999674E+01  0.40000000000E+01  0.51100000000E-03 0. -1.
    9000002   -1    0    0    0    0 -0.00000000000E+00 -0.00000000000E+00  0.00000000000E+00  0.93800000000E+00  0.93800000000E+00 0.  1.
         11    1    1    2    0    0 -0.77981069729E-01 -0.33640565847E-01  0.13030890796E+01  0.13058537994E+01  0.51100000000E-03 0. -1.
    9000002    1    1    2    0    0 -0.35385681234E-01  0.22295496966E+00  0.39501200314E-01  0.96559070509E+00  0.93800000000E+00 0.  1.
         22    1    1    2    0    0  0.11336675096E+00 -0.18931440381E+00  0.26574096874E+01  0.26665554955E+01  0.00000000000E+00 0. -1.
</event>
<event>
 5    1  0.3222854E+002  0.1599525E+01  0.7818608E-02  0.3353879E+00
         11   -1    0    0    0    0  0.00000000000E+00  0.00000000000E+00  0.39999999674E+01  0.40000000000E+01  0.51100000000E-03 0.  1.
    9000002   -1    0    0    0    0 -0.00000000000E+00 -0.00000000000E+00  0.00000000000E+00  0.93800000000E+00  0.93800000000E+00 0. -1.
         11    1    1    2    0    0  0.11529551824E+00  0.25331518826E+00  0.20868076484E+01  0.21052857439E+01  0.51100000000E-03 0.  1.
    9000002    1    1    2    0    0 -0.18698972328E+00 -0.47610832883E+00  0.17960030394E+00  0.10833949264E+01  0.93800000000E+00 0. -1.
         22    1    1    2    0    0  0.71694205037E-01  0.22279314057E+00  0.17335920151E+01  0.17493193297E+01  0.00000000000E+00 0.  1.
</event>
<event>
 5    1  0.3222854E+002  0.1599674E+01  0.7818608E-02  0.3353717E+00
         11   -1    0    0    0    0  0.00000000000E+00  0.00000000000E+00  0.39999999674E+01  0.40000000000E+01  0.51100000000E-03 0. -1.
    9000002   -1    0    0    0    0 -0.00000000000E+00 -0.00000000000E+00  0.00000000000E+00  0.93800000000E+00  0.93800000000E+00 0. -1.
         11    1    1    2    0    0 -0.22066174943E+00 -0.10072950834E+00  0.20531679649E+01  0.20674469751E+01  0.51100000000E-03 0. -1.
    9000002    1    1    2    0    0  0.41694223773E+00  0.19201386012E+00  0.14330638308E+00  0.10540829529E+01  0.93800000000E+00 0. -1.
         22    1    1    2    0    0 -0.19628048830E+00 -0.91284351776E-01  0.18035256194E+01  0.18164700721E+01  0.00000000000E+00 0. -1.
</event>
<event>
 5    1  0.3222854E+002  0.1594554E+01  0.7818608E-02  0.3359296E+00
         11   -1    0    0    0    0  0.00000000000E+00  0.00000000000E+00  0.39999999674E+01  0.40000000000E+01  0.51100000000E-03 0.  1.
    9000002   -1    0    0    0    0 -0.00000000000E+00 -0.00000000000E+00  0.00000000000E+00  0.93800000000E+00  0.93800000000E+00 0.  1.
         11    1    1    2    0    0  0.53237914821E-01 -0.31727288818E-02  0.83182401115E+00  0.83353211601E+00  0.51100000000E-03 0.  1.
    9000002    1    1    2    0    0  0.24451162148E-02 -0.19962092372E+00  0.30232670693E-01  0.95948554244E+00  0.93800000000E+00 0.  1.
         22    1    1    2    0    0 -0.55683031036E-01  0.20279365260E+00  0.31379432855E+01  0.31449823415E+01  0.00000000000E+00 0.  1.
</event>
<event>
 5    1  0.3222854E+002  0.1599622E+01  0.7818608E-02  0.3353774E+00
         11   -1    0    0    0    0  0.00000000000E+00  0.00000000000E+00  0.39999999674E+01  0.40000000000E+01  0.51100000000E-03 0. -1.
    9000002   -1    0    0    0    0 -0.00000000000E+00 -0.00000000000E+00  0.00000000000E+00  0.93800000000E+00  0.93800000000E+00 0. -1.
         11    1    1    2    0    0 -0.64374086874E-01  0.70993575336E-01  0.85513443311E+00  0.86048780969E+00  0.51100000000E-03 0. -1.
    9000002    1    1    2    0    0  0.26639946438E+00 -0.30180513595E+00  0.10939162833E+00  0.10265795357E+01  0.93800000000E+00 0. -1.
         22    1    1    2    0    0 -0.20202537751E+00  0.23081156061E+00  0.30354739059E+01  0.30509326546E+01  0.00000000000E+00 0. -1.
</event>
<event>
 5    1  0.3222854E+002  0.1599671E+01  0.7818608E-02  0.3353720E+00
         11   -1    0    0    0    0  0.00000000000E+00  0.00000000000E+00  0.39999999674E+01  0.40000000000E+01  0.51100000000E-03 0. -1.
    9000002   -1    0    0    0    0 -0.00000000000E+00 -0.00000000000E+00  0.00000000000E+00  0.93800000000E+00  0.93800000000E+00 0. -1.
         11    1    1    2    0    0 -0.77565647423E-01 -0.17420706281E+00  0.10435766916E+01  0.10608567777E+01  0.51100000000E-03 0. -1.
    9000002    1    1    2    0    0  0.27339414560E+00  0.62213405428E+00  0.32827091907E+00  0.12039106847E+01  0.93800000000E+00 0. -1.
         22    1    1    2    0    0 -0.19582849818E+00 -0.44792699147E+00  0.26281523567E+01  0.26732325377E+01  0.00000000000E+00 0. -1.
</event>
<event>
 5    1  0.3222854E+002  0.1599288E+01  0.7818608E-02  0.3354136E+00
         11   -1    0    0    0    0  0.00000000000E+00  0.00000000000E+00  0.39999999674E+01  0.40000000000E+01  0.51100000000E-03 0. -1.
    9000002   -1    0    0    0    0 -0.00000000000E+00 -0.00000000000E+00  0.00000000000E+00  0.93800000000E+00  0.93800000000E+00 0. -1.
         11    1    1    2    0    0  0.14660595251E+00 -0.12348151590E+00  0.20352050439E+01  0.20442115404E+01  0.51100000000E-03 0. -1.
    9000002    1    1    2    0    0 -0.31652064306E+00  0.26270491281E+00  0.11462327113E+00  0.10306219884E+01  0.93800000000E+00 0. -1.
         22    1    1    2    0    0  0.16991469055E+00 -0.13922339691E+00  0.18501716524E+01  0.18631664712E+01  0.00000000000E+00 0.  1.
</event>
<event>
 5    1  0.3222854E+002  0.1599289E+01  0.7818608E-02  0.3354135E+00
         11   -1    0    0    0    0  0.00000000000E+00  0.00000000000E+00  0.39999999674E+01  0.40000000000E+01  0.51100000000E-03 0.  1.
    9000002   -1    0    0    0    0 -0.00000000000E+00 -0.00000000000E+00  0.00000000000E+00  0.93800000000E+00  0.93800000000E+00 0. -1.
         11    1    1    2    0    0 -0.24743056181E-02 -0.13299580292E-01  0.55482773241E+00  0.55499286013E+00  0.51100000000E-03 0.  1.
    9000002    1    1    2    0    0  0.39681541208E-01  0.21073966880E+00  0.30763427972E-01  0.96269217366E+00  0.93800000000E+00 0. -1.
         22    1    1    2    0    0 -0.37207235590E-01 -0.19744008851E+00  0.34144088070E+01  0.34203149662E+01  0.00000000000E+00 0.  1.
</event>
<event>
 5    1  0.3222854E+002  0.1599650E+01  0.7818608E-02  0.3353744E+00
         11   -1    0    0    0    0  0.00000000000E+00  0.00000000000E+00  0.39999999674E+01  0.40000000000E+01  0.51100000000E-03 0. -1.
    9000002   -1    0    0    0    0 -0.00000000000E+00 -0.00000000000E+00  0.00000000000E+00  0.93800000000E+00  0.93800000000E+00 0. -1.
         11    1    1    2    0    0 -0.29943516145E-01  0.29685633110E-01  0.66478038783E+00  0.66611641335E+00  0.51100000000E-03 0. -1.
    9000002    1    1    2    0    0  0.16252833598E+00 -0.19982270556E+00  0.44119050015E-01  0.97372227264E+00  0.93800000000E+00 0. -1.
         22    1    1    2    0    0 -0.13258481984E+00  0.17013707245E+00  0.32911005295E+01  0.32981613140E+01  0.00000000000E+00 0. -1.
</event>
<event>
 5    1  0.3222854E+002  0.1599626E+01  0.7818608E-02  0.3353770E+00
         11   -1    0    0    0    0  0.00000000000E+00  0.00000000000E+00  0.39999999674E+01  0.40000000000E+01  0.51100000000E-03 0.  1.
    9000002   -1    0    0    0    0 -0.00000000000E+00 -0.00000000000E+00  0.00000000000E+00  0.93800000000E+00  0.93800000000E+00 0. -1.
         11    1    1    2    0    0 -0.12107031413E+00  0.10291773397E+00  0.14215003324E+01  0.14303543397E+01  0.51100000000E-03 0.  1.
    9000002    1    1    2    0    0  0.32684777976E+00 -0.25865663060E+00  0.11748880535E+00  0.10331410083E+01  0.93800000000E+00 0. -1.
         22    1    1    2    0    0 -0.20577746562E+00  0.15573889663E+00  0.24610108296E+01  0.24745046520E+01  0.00000000000E+00 0.  1.
</event>
<event>
 5    1  0.3222854E+002  0.1552580E+01  0.7818608E-02  0.3406496E+00
         11   -1    0    0    0    0  0.00000000000E+00  0.00000000000E+00  0.39999999674E+01  0.40000000000E+01  0.51100000000E-03 0.  1.
    9000002   -1    0    0    0    0 -0.00000000000E+00 -0.00000000000E+00  0.00000000000E+00  0.93800000000E+00  0.93800000000E+00 0. -1.
         11    1    1    2    0    0 -0.26369693936E+00  0.12080457865E+00  0.26218891602E+01  0.26378841619E+01  0.51100000000E-03 0.  1.
    9000002    1    1    2    0    0  0.11625626635E+00  0.61756721656E-01  0.46870842378E-01  0.94835135261E+00  0.93800000000E+00 0. -1.
         22    1    1    2    0    0  0.14744067301E+00 -0.18256130030E+00  0.13312399648E+01  0.13517644855E+01  0.00000000000E+00 0.  1.
</event>
<event>
 5    1  0.3222854E+002  0.1599671E+01  0.7818608E-02  0.3353721E+00
         11   -1    0    0    0    0  0.00000000000E+00  0.00000000000E+00  0.39999999674E+01  0.40000000000E+01  0.51100000000E-03 0.  1.
    9000002   -1    0    0    0    0 -0.00000000000E+00 -0.00000000000E+00  0.00000000000E+00  0.93800000000E+00  0.93800000000E+00 0.  1.
         11    1    1    2    0    0 -0.14442753211E-01 -0.10005162410E-02  0.22496945704E+00  0.22543538292E+00  0.51100000000E-03 0.  1.
    9000002    1    1    2    0    0  0.23638222927E+00  0.31993939625E-01  0.37770553260E-01  0.96859216659E+00  0.93800000000E+00 0.  1.
         22    1    1    2    0    0 -0.22193947606E+00 -0.30993423384E-01  0.37372599571E+01  0.37439724505E+01  0.00000000000E+00 0.  1.
</event>
<event>
 5    1  0.3222854E+002  0.1584755E+01  0.7818608E-02  0.3370078E+00
         11   -1    0    0    0    0  0.00000000000E+00  0.00000000000E+00  0.39999999674E+01  0.40000000000E+01  0.51100000000E-03 0.  1.
    9000002   -1    0    0    0    0 -0.00000000000E+00 -0.00000000000E+00  0.00000000000E+00  0.93800000000E+00  0.93800000000E+00 0.  1.
         11    1    1    2    0    0 -0.13054068217E+00 -0.60449380698E-01  0.20022380613E+01  0.20073994402E+01  0.51100000000E-03 0.  1.
    9000002    1    1    2    0    0  0.22167496581E+00 -0.16816338089E+00  0.63189383573E-01  0.98043643921E+00  0.93800000000E+00 0.  1.
         22    1    1    2    0    0 -0.91134283640E-01  0.22861276159E+00  0.19345725225E+01  0.19501641206E+01  0.00000000000E+00 0.  1.
</event>
<event>
 5    1  0.3222854E+002  0.1599581E+01  0.7818608E-02  0.3353819E+00
         11   -1    0    0    0    0  0.00000000000E+00  0.00000000000E+00  0.39999999674E+01  0.40000000000E+01  0.51100000000E-03 0. -1.
    9000002   -1    0    0    0    0 -0.00000000000E+00 -0.00000000000E+00  0.00000000000E+00  0.93800000000E+00  0.93800000000E+00 0. -1.
         11    1    1    2    0    0 -0.13022414782E+00 -0.15997981393E+00  0.18427609129E+01  0.18542707226E+01  0.51100000000E-03 0. -1.
    9000002    1    1    2    0    0  0.25140961593E+00  0.32774441240E+00  0.11536660128E+00  0.10313954855E+01  0.93800000000E+00 0. -1.
         22    1    1    2    0    0 -0.12118546811E+00 -0.16776459846E+00  0.20418724532E+01  0.20523337919E+01  0.00000000000E+00 0. -1.
</event>
<event>
 5    1  0.3617283E+002  0.1555539E+01  0.7818608E-02  0.3403080E+00
         11   -1    0    0    0    0  0.00000000000E+00  0.00000000000E+00  0.39999999674E+01  0.40000000000E+01  0.51100000000E-03 0. -1.
    9000002   -1    0    0    0    0 -0.00000000000E+00 -0.00000000000E+00  0.00000000000E+00  0.93800000000E+00  0.93800000000E+00 0. -1.
         11    1    1    2    0    0 -0.19918626175E-01  0.92615938697E-01  0.14706684380E+00  0.17493822177E+00  0.51100000000E-03 0. -1.
    9000002    1    1    2    0    0 -0.70289766007E-01  0.10959057915E+00  0.44331562846E-01  0.94802955318E+00  0.93800000000E+00 0. -1.
         22    1    1    2    0    0  0.90208392182E-01 -0.20220651785E+00  0.38086015607E+01  0.38150322250E+01  0.00000000000E+00 0. -1.
</event>
<event>
 5    1  0.3222854E+002  0.1594983E+01  0.7818608E-02  0.3358827E+00
         11   -1    0    0    0    0  0.00000000000E+00  0.00000000000E+00  0.39999999674E+01  0.40000000000E+01  0.51100000000E-03 0.  1.
    9000002   -1    0    0    0    0 -0.00000000000E+00 -0.00000000000E+00  0.00000000000E+00  0.93800000000E+00  0.93800000000E+00 0.  1.
         11    1    1    2    0    0 -0.15591334227E-01 -0.18378198708E-01  0.18030579020E+00  0.18191010690E+00  0.51100000000E-03 0.  1.
    9000002    1    1    2    0    0 -0.32331892530E+00  0.45707193802E-01  0.75051601983E-01  0.99604267880E+00  0.93800000000E+00 0.  1.
         22    1    1    2    0    0  0.33891025953E+00 -0.27328995095E-01  0.37446425752E+01  0.37600472143E+01  0.00000000000E+00 0.  1.
</event>
<event>
 5    1  0.3222854E+002  0.1599671E+01  0.7818608E-02  0.3353721E+00
         11   -1    0    0    0    0  0.00000000000E+00  0.00000000000E+00  0.39999999674E+01  0.40000000000E+01  0.51100000000E-03 0.  1.
    9000002   -1    0    0    0    0 -0.00000000000E+00 -0.00000000000E+00  0.00000000000E+00  0.93800000000E+00  0.93800000000E+00 0. -1.
         11    1    1    2    0    0 -0.22769771959E-01 -0.18281504149E-01  0.48081960163E+00  0.48170574664E+00  0.51100000000E-03 0.  1.
    9000002    1    1    2    0    0  0.19099614857E+00  0.16626371602E+00  0.42611946168E-01  0.97251371712E+00  0.93800000000E+00 0. -1.
         22    1    1    2    0    0 -0.16822637661E+00 -0.14798221187E+00  0.34765684196E+01  0.34837805362E+01  0.00000000000E+00 0.  1.
</event>
<event>
 5    1  0.3222854E+002  0.1599675E+01  0.7818608E-02  0.3353717E+00
         11   -1    0    0    0    0  0.00000000000E+00  0.00000000000E+00  0.39999999674E+01  0.40000000000E+01  0.51100000000E-03 0.  1.
    9000002   -1    0    0    0    0 -0.00000000000E+00 -0.00000000000E+00  0.00000000000E+00  0.93800000000E+00  0.93800000000E+00 0.  1.
         11    1    1    2    0    0 -0.41684118013E+00 -0.40932486207E+00  0.20603382242E+01  0.21415642114E+01  0.51100000000E-03 0.  1.
    9000002    1    1    2    0    0  0.66976305720E+00  0.66054979200E+00  0.69005284298E+00  0.14969721128E+01  0.93800000000E+00 0.  1.
         22    1    1    2    0    0 -0.25292187707E+00 -0.25122492993E+00  0.12496089002E+01  0.12994636758E+01  0.00000000000E+00 0. -1.
</event>
<event>
 5    1  0.3222854E+002  0.1599498E+01  0.7818608E-02  0.3353908E+00
         11   -1    0    0    0    0  0.00000000000E+00  0.00000000000E+00  0.39999999674E+01  0.40000000000E+01  0.51100000000E-03 0.  1.
    9000002   -1    0    0    0    0 -0.00000000000E+00 -0.00000000000E+00  0.00000000000E+00  0.93800000000E+00  0.93800000000E+00 0. -1.
         11    1    1    2    0    0  0.16633423050E+00 -0.19825795954E-01  0.12467966787E+01  0.12579993472E+01  0.51100000000E-03 0.  1.
    9000002    1    1    2    0    0 -0.48522649440E+00  0.99366809015E-01  0.16796292946E+00  0.10739525405E+01  0.93800000000E+00 0. -1.
         22    1    1    2    0    0  0.31889226390E+00 -0.79541013061E-01  0.25852403592E+01  0.26060481122E+01  0.00000000000E+00 0.  1.
</event>
<event>
 5    1  0.3222854E+002  0.1596932E+01  0.7818608E-02  0.3356700E+00
         11   -1    0    0    0    0  0.00000000000E+00  0.00000000000E+00  0.39999999674E+01  0.40000000000E+01  0.51100000000E-03 0. -1.
    9000002   -1    0    0    0    0 -0.00000000000E+00 -0.00000000000E+00  0.00000000000E+00  0.93800000000E+00  0.93800000000E+00 0. -1.
         11    1    1    2    0    0 -0.81523920072E-01 -0.84544790776E-01  0.92270313067E+00  0.93014799879E+00  0.51100000000E-03 0. -1.
    9000002    1    1    2    0    0  0.43086842981E+00  0.52850707388E+00  0.33372868616E+00  0.12067253900E+01  0.93800000000E+00 0. -1.
         22    1    1    2    0    0 -0.34934450974E+00 -0.44396228311E+00  0.27435681505E+01  0.28011266112E+01  0.00000000000E+00 0.  1.
</event>
<event>
 5    1  0.3222854E+002  0.1591314E+01  0.7818608E-02  0.3362845E+00
         11   -1    0    0    0    0  0.00000000000E+00  0.00000000000E+00  0.39999999674E+01  0.40000000000E+01  0.51100000000E-03 0.  1.
    9000002   -1    0    0    0    0 -0.00000000000E+00 -0.00000000000E+00  0.00000000000E+00  0.93800000000E+00  0.93800000000E+00 0. -1.
         11    1    1    2    0    0 -0.13804854831E+00  0.11220692310E+00  0.22074072499E+01  0.22145642514E+01  0.51100000000E-03 0.  1.
    9000002    1    1    2    0    0  0.12155391245E+00 -0.34766601937E+00  0.97984605110E-01  0.10124682699E+01  0.93800000000E+00 0. -1.
         22    1    1    2    0    0  0.16494635859E-01  0.23545909627E+00  0.16946081123E+01  0.17109674787E+01  0.00000000000E+00 0.  1.
</event>
<event>
 5    1  0.3222854E+002  0.1599653E+01  0.7818608E-02  0.3353740E+00
         11   -1    0    0    0    0  0.00000000000E+00  0.00000000000E+00  0.39999999674E+01  0.40000000000E+01  0.51100000000E-03 0. -1.
    9000002   -1    0    0    0    0 -0.00000000000E+00 -0.00000000000E+00  0.00000000000E+00  0.93800000000E+00  0.93800000000E+00 0.  1.
         11    1    1    2    0    0  0.83939251857E-01 -0.15238982899E+00  0.18303684062E+01  0.18386182914E+01  0.51100000000E-03 0. -1.
    9000002    1    1    2    0    0 -0.18365793564E+00  0.33655877963E+00  0.98969942662E-01  0.10181557342E+01  0.93800000000E+00 0.  1.
         22    1    1    2    0    0  0.99718683785E-01 -0.18416895064E+00  0.20706616185E+01  0.20812259744E+01  0.00000000000E+00 0. -1.
</event>
<event>
 5    1  0.3222854E+002  0.1575172E+01  0.7818608E-02  0.3380760E+00
         11   -1    0    0    0    0  0.00000000000E+00  0.00000000000E+00  0.39999999674E+01  0.40000000000E+01  0.51100000000E-03 0. -1.
    9000002   -1    0    0    0    0 -0.00000000000E+00 -0.00000000000E+00  0.00000000000E+00  0.93800000000E+00  0.93800000000E+00 0.  1.
         11    1    1    2    0    0 -0.97150190983E-01 -0.11290149813E+00  0.30399461934E+01  0.30435929472E+01  0.51100000000E-03 0. -1.
    9000002    1    1    2    0    0  0.36385621192E-01  0.32789856361E+00  0.92583449839E-01  0.99862759657E+00  0.93800000000E+00 0.  1.
         22    1    1    2    0    0  0.60764569791E-01 -0.21499706548E+00  0.86747032408E+00  0.89577945627E+00  0.00000000000E+00 0. -1.
</event>
<event>
 5    1  0.3222854E+002  0.1599676E+01  0.7818608E-02  0.3353716E+00
         11   -1    0    0    0    0  0.00000000000E+00  0.00000000000E+00  0.39999999674E+01  0.40000000000E+01  0.51100000000E-03 0.  1.
    9000002   -1    0    0    0    0 -0.00000000000E+00 -0.00000000000E+00  0.00000000000E+00  0.93800000000E+00  0.93800000000E+00 0. -1.
         11    1    1    2    0    0 -0.60046777845E-01 -0.57349734320E-01  0.11164455644E+01  0.11195291720E+01  0.51100000000E-03 0.  1.
    9000002    1    1    2    0    0  0.20762745996E+00  0.20197258517E+00  0.55920360450E-01  0.98329709346E+00  0.93800000000E+00 0. -1.
         22    1    1    2    0    0 -0.14758068211E+00 -0.14462285085E+00  0.28276340425E+01  0.28351737345E+01  0.00000000000E+00 0. -1.
</event>
<event>
 5    1  0.3222854E+002  0.1599647E+01  0.7818608E-02  0.3353747E+00
         11   -1    0    0    0    0  0.00000000000E+00  0.00000000000E+00  0.39999999674E+01  0.40000000000E+01  0.51100000000E-03 0.  1.
    9000002   -1    0    0    0    0 -0.00000000000E+00 -0.00000000000E+00  0.00000000000E+00  0.93800000000E+00  0.93800000000E+00 0. -1.
         11    1    1    2    0    0  0.26847417270E-01 -0.44908379651E+00  0.25024900019E+01  0.25426076203E+01  0.51100000000E-03 0.  1.
    9000002    1    1    2    0    0 -0.41280194879E-01  0.65421254092E+00  0.30365174911E+00  0.11839537524E+01  0.93800000000E+00 0. -1.
         22    1    1    2    0    0  0.14432777608E-01 -0.20512874441E+00  0.11938582163E+01  0.12114386272E+01  0.00000000000E+00 0.  1.
</event>
<event>
 5    1  0.3222854E+002  0.1599674E+01  0.7818608E-02  0.3353717E+00
         11   -1    0    0    0    0  0.00000000000E+00  0.00000000000E+00  0.39999999674E+01  0.40000000000E+01  0.51100000000E-03 0. -1.
    9000002   -1    0    0    0    0 -0.00000000000E+00 -0.00000000000E+00  0.00000000000E+00  0.93800000000E+00  0.93800000000E+00 0.  1.
         11    1    1    2    0    0  0.84096918377E-02 -0.24998330400E-02  0.12995599120E+00  0.13025280363E+00  0.51100000000E-03 0. -1.
    9000002    1    1    2    0    0 -0.24622525206E+00  0.63362192653E-01  0.42957017775E-01  0.97279542946E+00  0.93800000000E+00 0.  1.
         22    1    1    2    0    0  0.23781556022E+00 -0.60862359613E-01  0.38270869584E+01  0.38349517669E+01  0.00000000000E+00 0. -1.
</event>
<event>
 5    1  0.3222854E+002  0.1599386E+01  0.7818608E-02  0.3354030E+00
         11   -1    0    0    0    0  0.00000000000E+00  0.00000000000E+00  0.39999999674E+01  0.40000000000E+01  0.51100000000E-03 0. -1.
    9000002   -1    0    0    0    0 -0.00000000000E+00 -0.00000000000E+00  0.00000000000E+00  0.93800000000E+00  0.93800000000E+00 0. -1.
         11    1    1    2    0    0  0.18622796066E-01  0.31796285479E+00  0.21499216546E+01  0.21733868886E+01  0.51100000000E-03 0. -1.
    9000002    1    1    2    0    0 -0.31814644374E-01 -0.52682424505E+00  0.19187935356E+00  0.10932600986E+01  0.93800000000E+00 0. -1.
         22    1    1    2    0    0  0.13191848309E-01  0.20886139026E+00  0.16581989592E+01  0.16713530129E+01  0.00000000000E+00 0. -1.
</event>
<event>
 5    1  0.3222854E+002  0.1599676E+01  0.7818608E-02  0.3353715E+00
         11   -1    0    0    0    0  0.00000000000E+00  0.00000000000E+00  0.39999999674E+01  0.40000000000E+01  0.51100000000E-03 0.  1.
    9000002   -1    0    0    0    0 -0.00000000000E+00 -0.00000000000E+00  0.00000000000E+00  0.93800000000E+00  0.93800000000E+00 0. -1.
         11    1    1    2    0    0  0.20519464384E-01 -0.24601831249E-01  0.53698870396E+00  0.53794370320E+00  0.51100000000E-03 0.  1.
    9000002    1    1    2    0    0 -0.15453491349E+00  0.18023990723E+00  0.37409641792E-01  0.96830312658E+00  0.93800000000E+00 0. -1.
         22    1    1    2    0    0  0.13401544911E+00 -0.15563807598E+00  0.34256016216E+01  0.34317531702E+01  0.00000000000E+00 0.  1.
</event>
<event>
 5    1  0.3222854E+002  0.1597373E+01  0.7818608E-02  0.3356220E+00
         11   -1    0    0    0    0  0.00000000000E+00  0.00000000000E+00  0.39999999674E+01  0.40000000000E+01  0.51100000000E-03 0.  1.
    9000002   -1    0    0    0    0 -0.00000000000E+00 -0.00000000000E+00  0.00000000000E+00  0.93800000000E+00  0.93800000000E+00 0.  1.
         11    1    1    2    0    0  0.14042308281E-01  0.62224813081E-02  0.32503412355E+00  0.32539721616E+00  0.51100000000E-03 0.  1.
    9000002    1    1    2    0    0  0.16686385133E+00 -0.26178146719E+00  0.66171035147E-01  0.99025031549E+00  0.93800000000E+00 0.  1.
         22    1    1    2    0    0 -0.18090615961E+00  0.25555898588E+00  0.36087948087E+01  0.36223524683E+01  0.00000000000E+00 0.  1.
</event>
<event>
 5    1  0.3222854E+002  0.1599676E+01  0.7818608E-02  0.3353715E+00
         11   -1    0    0    0    0  0.00000000000E+00  0.00000000000E+00  0.39999999674E+01  0.40000000000E+01  0.51100000000E-03 0.  1.
    9000002   -1    0    0    0    0 -0.00000000000E+00 -0.00000000000E+00  0.00000000000E+00  0.93800000000E+00  0.93800000000E+00 0. -1.
         11    1    1    2    0    0 -0.70188272390E-01  0.22315226989E-01  0.98912143761E+00  0.99185978969E+00  0.51100000000E-03 0.  1.
    9000002    1    1    2    0    0  0.27700958341E+00 -0.86375270679E-01  0.56117713111E-01  0.98345726618E+00  0.93800000000E+00 0. -1.
         22    1    1    2    0    0 -0.20682131102E+00  0.64060043689E-01  0.29547608166E+01  0.29626829441E+01  0.00000000000E+00 0.  1.
</event>
<event>
 5    1  0.3222854E+002  0.1599511E+01  0.7818608E-02  0.3353894E+00
         11   -1    0    0    0    0  0.00000000000E+00  0.00000000000E+00  0.39999999674E+01  0.40000000000E+01  0.51100000000E-03 0. -1.
    9000002   -1    0    0    0    0 -0.00000000000E+00 -0.00000000000E+00  0.00000000000E+00  0.93800000000E+00  0.93800000000E+00 0. -1.
         11    1    1    2    0    0 -0.11235831746E-01 -0.21139449945E-02  0.16513602184E+00  0.16553211020E+00  0.51100000000E-03 0. -1.
    9000002    1    1    2    0    0  0.15374161643E+00  0.14270038826E+00  0.29270937898E-01  0.96161357792E+00  0.93800000000E+00 0. -1.
         22    1    1    2    0    0 -0.14250578468E+00 -0.14058644327E+00  0.38055930076E+01  0.38108543119E+01  0.00000000000E+00 0. -1.
</event>
<event>
 5    1  0.3222854E+002  0.1599675E+01  0.7818608E-02  0.3353716E+00
         11   -1    0    0    0    0  0.00000000000E+00  0.00000000000E+00  0.39999999674E+01  0.40000000000E+01  0.51100000000E-03 0. -1.
    9000002   -1    0    0    0    0 -0.00000000000E+00 -0.00000000000E+00  0.00000000000E+00  0.93800000000E+00  0.93800000000E+00 0.  1.
         11    1    1    2    0    0  0.10376205208E+00 -0.19091333771E+00  0.15245537157E+01  0.15399606356E+01  0.51100000000E-03 0. -1.
    9000002    1    1    2    0    0 -0.26180200984E+00  0.47725581271E+00  0.20444756948E+00  0.11036105345E+01  0.93800000000E+00 0.  1.
         22    1    1    2    0    0  0.15803995776E+00 -0.28634247500E+00  0.22709986822E+01  0.22944288299E+01  0.00000000000E+00 0. -1.
</event>
<event>
 5    1  0.3222854E+002  0.1599649E+01  0.7818608E-02  0.3353744E+00
         11   -1    0    0    0    0  0.00000000000E+00  0.00000000000E+00  0.39999999674E+01  0.40000000000E+01  0.51100000000E-03 0. -1.
    9000002   -1    0    0    0    0 -0.00000000000E+00 -0.00000000000E+00  0.00000000000E+00  0.93800000000E+00  0.93800000000E+00 0. -1.
         11    1    1    2    0    0  0.19930254730E+00  0.85728467443E-01  0.15524777191E+01  0.15675644181E+01  0.51100000000E-03 0. -1.
    9000002    1    1    2    0    0 -0.47757003568E+00 -0.22053152730E+00  0.19030457174E+00  0.10921387840E+01  0.93800000000E+00 0. -1.
         22    1    1    2    0    0  0.27826748839E+00  0.13480305985E+00  0.22572176766E+01  0.22782967979E+01  0.00000000000E+00 0. -1.
</event>
<event>
 5    1  0.3222854E+002  0.1599677E+01  0.7818608E-02  0.3353714E+00
         11   -1    0    0    0    0  0.00000000000E+00  0.00000000000E+00  0.39999999674E+01  0.40000000000E+01  0.51100000000E-03 0.  1.
    9000002   -1    0    0    0    0 -0.00000000000E+00 -0.00000000000E+00  0.00000000000E+00  0.93800000000E+00  0.93800000000E+00 0.  1.
         11    1    1    2    0    0  0.20073454969E+00 -0.53871689293E-01  0.14492370607E+01  0.14640644923E+01  0.51100000000E-03 0.  1.
    9000002    1    1    2    0    0 -0.52453748658E+00  0.14159660050E+00  0.20363100708E+00  0.11029500257E+01  0.93800000000E+00 0.  1.
         22    1    1    2    0    0  0.32380293689E+00 -0.87724911210E-01  0.23471318996E+01  0.23709854820E+01  0.00000000000E+00 0.  1.
</event>
<event>
 5    1  0.3222854E+002  0.1430048E+01  0.7818608E-02  0.3561357E+00
         11   -1    0    0    0    0  0.00000000000E+00  0.00000000000E+00  0.39999999674E+01  0.40000000000E+01  0.51100000000E-03 0. -1.
    9000002   -1    0    0    0    0 -0.00000000000E+00 -0.00000000000E+00  0.00000000000E+00  0.93800000000E+00  0.93800000000E+00 0. -1.
         11    1    1    2    0    0 -0.64612866798E-01 -0.63005655589E+00  0.27504836726E+01  0.28224646642E+01  0.51100000000E-03 0. -1.
    9000002    1    1    2    0    0  0.16109972483E+00  0.26186498113E+00  0.21091254642E+00  0.10093832235E+01  0.93800000000E+00 0. -1.
         22    1    1    2    0    0 -0.96486858032E-01  0.36819157475E+00  0.10386037483E+01  0.11061521123E+01  0.00000000000E+00 0. -1.
</event>
<event>
 5    1  0.3222854E+002  0.1599672E+01  0.7818608E-02  0.3353719E+00
         11   -1    0    0    0    0  0.00000000000E+00  0.00000000000E+00  0.39999999674E+01  0.40000000000E+01  0.51100000000E-03 0. -1.
    9000002   -1    0    0    0    0 -0.00000000000E+00 -0.00000000000E+00  0.00000000000E+00  0.93800000000E+00  0.93800000000E+00 0. -1.
         11    1    1    2    0    0 -0.46749255514E-01  0.10744242984E-01  0.76759305018E+00  0.76909055609E+00  0.51100000000E-03 0. -1.
    9000002    1    1    2    0    0  0.24516309225E+00 -0.64909768404E-01  0.42741371853E-01  0.97261968143E+00  0.93800000000E+00 0. -1.
         22    1    1    2    0    0 -0.19841383673E+00  0.54165525420E-01  0.31896655453E+01  0.31962897625E+01  0.00000000000E+00 0. -1.
</event>
<event>
 5    1  0.3222854E+002  0.1599676E+01  0.7818608E-02  0.3353715E+00
         11   -1    0    0    0    0  0.00000000000E+00  0.00000000000E+00  0.39999999674E+01  0.40000000000E+01  0.51100000000E-03 0.  1.
    9000002   -1    0    0    0    0 -0.00000000000E+00 -0.00000000000E+00  0.00000000000E+00  0.93800000000E+00  0.93800000000E+00 0.  1.
         11    1    1    2    0    0  0.47962651570E-02 -0.72421418481E-01  0.72236614254E+00  0.72600342356E+00  0.51100000000E-03 0.  1.
    9000002    1    1    2    0    0 -0.21521326383E-01  0.38912354582E+00  0.10231399170E+00  0.10208782759E+01  0.93800000000E+00 0.  1.
         22    1    1    2    0    0  0.16725061226E-01 -0.31670212734E+00  0.31753198331E+01  0.31911183005E+01  0.00000000000E+00 0.  1.
</event>
<event>
 5    1  0.3222854E+002  0.1599677E+01  0.7818608E-02  0.3353715E+00
         11   -1    0    0    0    0  0.00000000000E+00  0.00000000000E+00  0.39999999674E+01  0.40000000000E+01  0.51100000000E-03 0. -1.
    9000002   -1    0    0    0    0 -0.00000000000E+00 -0.00000000000E+00  0.00000000000E+00  0.93800000000E+00  0.93800000000E+00 0. -1.
         11    1    1    2    0    0  0.45849213973E-01  0.31441931359E+00  0.22739818469E+01  0.22960739005E+01  0.51100000000E-03 0. -1.
    9000002    1    1    2    0    0 -0.75391219471E-01 -0.52564996481E+00  0.19408795092E+00  0.10952195461E+01  0.93800000000E+00 0. -1.
         22    1    1    2    0    0  0.29542005498E-01  0.21123065123E+00  0.15319301695E+01  0.15467065534E+01  0.00000000000E+00 0. -1.
</event>
<event>
 5    1  0.3222854E+002  0.1599287E+01  0.7818608E-02  0.3354137E+00
         11   -1    0    0    0    0  0.00000000000E+00  0.00000000000E+00  0.39999999674E+01  0.40000000000E+01  0.51100000000E-03 0. -1.
    9000002   -1    0    0    0    0 -0.00000000000E+00 -0.00000000000E+00  0.00000000000E+00  0.93800000000E+00  0.93800000000E+00 0. -1.
         11    1    1    2    0    0 -0.56756381519E-02 -0.53501857060E-01  0.56304975095E+00  0.56561466101E+00  0.51100000000E-03 0. -1.
    9000002    1    1    2    0    0 -0.57297121286E-02  0.26790536922E+00  0.48068689957E-01  0.97670912528E+00  0.93800000000E+00 0. -1.
         22    1    1    2    0    0  0.11405350280E-01 -0.21440351216E+00  0.33888815265E+01  0.33956762137E+01  0.00000000000E+00 0. -1.
</event>
<event>
 5    1  0.3222854E+002  0.1594959E+01  0.7818608E-02  0.3358852E+00
         11   -1    0    0    0    0  0.00000000000E+00  0.00000000000E+00  0.39999999674E+01  0.40000000000E+01  0.51100000000E-03 0. -1.
    9000002   -1    0    0    0    0 -0.00000000000E+00 -0.00000000000E+00  0.00000000000E+00  0.93800000000E+00  0.93800000000E+00 0. -1.
         11    1    1    2    0    0 -0.45440130244E-01  0.77818981433E-01  0.54237329426E+00  0.54980874016E+00  0.51100000000E-03 0. -1.
    9000002    1    1    2    0    0 -0.32854428408E-01 -0.35876842043E+00  0.90961181624E-01  0.10089163144E+01  0.93800000000E+00 0. -1.
         22    1    1    2    0    0  0.78294558652E-01  0.28094943899E+00  0.33666654915E+01  0.33792749454E+01  0.00000000000E+00 0. -1.
</event>
<event>
 5    1  0.3222854E+002  0.1599662E+01  0.7818608E-02  0.3353730E+00
         11   -1    0    0    0    0  0.00000000000E+00  0.00000000000E+00  0.39999999674E+01  0.40000000000E+01  0.51100000000E-03 0. -1.
    9000002   -1    0    0    0    0 -0.00000000000E+00 -0.00000000000E+00  0.00000000000E+00  0.93800000000E+00  0.93800000000E+00 0. -1.
         11    1    1    2    0    0 -0.81438431981E-01 -0.30564492525E+00  0.15338651883E+01  0.15661397497E+01  0.51100000000E-03 0. -1.
    9000002    1    1    2    0    0  0.19754143058E+00  0.72425408606E+00  0.40865345132E+00  0.12690186134E+01  0.93800000000E+00 0. -1.
         22    1    1    2    0    0 -0.11610299859E+00 -0.41860916081E+00  0.20574813277E+01  0.21028416368E+01  0.00000000000E+00 0. -1.
</event>
<event>
 5    1  0.3222854E+002  0.1591577E+01  0.7818608E-02  0.3362557E+00
         11   -1    0    0    0    0  0.00000000000E+00  0.00000000000E+00  0.39999999674E+01  0.40000000000E+01  0.51100000000E-03 0. -1.
    9000002   -1    0    0    0    0 -0.00000000000E+00 -0.00000000000E+00  0.00000000000E+00  0.93800000000E+00  0.93800000000E+00 0.  1.
         11    1    1    2    0    0  0.63150487561E-03 -0.59417762611E-01  0.88716217572E+00  0.88915007533E+00  0.51100000000E-03 0. -1.
    9000002    1    1    2    0    0  0.22925331523E+00 -0.64333799744E-01  0.43813828305E-01  0.96874123061E+00  0.93800000000E+00 0.  1.
         22    1    1    2    0    0 -0.22988482010E+00  0.12375156235E+00  0.30690239633E+01  0.30801086941E+01  0.00000000000E+00 0. -1.
</event>
<event>
 5    1  0.3222854E+002  0.1598302E+01  0.7818608E-02  0.3355208E+00
         11   -1    0    0    0    0  0.00000000000E+00  0.00000000000E+00  0.39999999674E+01  0.40000000000E+01  0.51100000000E-03 0.  1.
    9000002   -1    0    0    0    0 -0.00000000000E+00 -0.00000000000E+00  0.00000000000E+00  0.93800000000E+00  0.93800000000E+00 0.  1.
         11    1    1    2    0    0 -0.40762886424E-01  0.10805107048E+00  0.13588311088E+01  0.13637297716E+01  0.51100000000E-03 0.  1.
    9000002    1    1    2    0    0  0.21094765104E+00 -0.23247683404E+00  0.66912545124E-01  0.99139582334E+00  0.93800000000E+00 0.  1.
         22    1    1    2    0    0 -0.17018476462E+00  0.12442576355E+00  0.25742563134E+01  0.25828744050E+01  0.00000000000E+00 0.  1.
</event>
<event>
 5    1  0.3222854E+002  0.1599621E+01  0.7818608E-02  0.3353775E+00
         11   -1    0    0    0    0  0.00000000000E+00  0.00000000000E+00  0.39999999674E+01  0.40000000000E+01  0.51100000000E-03 0.  1.
    9000002   -1    0    0    0    0 -0.00000000000E+00 -0.00000000000E+00  0.00000000000E+00  0.93800000000E+00  0.93800000000E+00 0. -1.
         11    1    1    2    0    0 -0.10424207484E+00  0.41263567225E-01  0.91888260590E+00  0.92569681683E+00  0.51100000000E-03 0.  1.
    9000002    1    1    2    0    0  0.45429542919E+00 -0.19787404451E+00  0.16800984359E+00  0.10740622803E+01  0.93800000000E+00 0. -1.
         22    1    1    2    0    0 -0.35005335435E+00  0.15661047729E+00  0.29131075179E+01  0.29382409028E+01  0.00000000000E+00 0.  1.
</event>
<event>
 5    1  0.3222854E+002  0.1599673E+01  0.7818608E-02  0.3353719E+00
         11   -1    0    0    0    0  0.00000000000E+00  0.00000000000E+00  0.39999999674E+01  0.40000000000E+01  0.51100000000E-03 0.  1.
    9000002   -1    0    0    0    0 -0.00000000000E+00 -0.00000000000E+00  0.00000000000E+00  0.93800000000E+00  0.93800000000E+00 0. -1.
         11    1    1    2    0    0 -0.28129871884E-01  0.12209479521E-01  0.48321416163E+00  0.48418648082E+00  0.51100000000E-03 0.  1.
    9000002    1    1    2    0    0  0.22256910144E+00 -0.90146005967E-01  0.38280006935E-01  0.96900601971E+00  0.93800000000E+00 0. -1.
         22    1    1    2    0    0 -0.19443922955E+00  0.77936526447E-01  0.34785057988E+01  0.34848074995E+01  0.00000000000E+00 0.  1.
</event>
<event>
 5    1  0.3222854E+002  0.1592821E+01  0.7818608E-02  0.3361192E+00
         11   -1    0    0    0    0  0.00000000000E+00  0.00000000000E+00  0.39999999674E+01  0.40000000000E+01  0.51100000000E-03 0. -1.
    9000002   -1    0    0    0    0 -0.00000000000E+00 -0.00000000000E+00  0.00000000000E+00  0.93800000000E+00  0.93800000000E+00 0.  1.
         11    1    1    2    0    0 -0.11473821475E-01 -0.16401311695E-01  0.14487392653E+01  0.14488776248E+01  0.51100000000E-03 0. -1.
    9000002    1    1    2    0    0 -0.58998292616E-01 -0.20188860855E+00  0.34480892690E-01  0.96191098380E+00  0.93800000000E+00 0.  1.
         22    1    1    2    0    0  0.70472114091E-01  0.21828992024E+00  0.25167798094E+01  0.25272113914E+01  0.00000000000E+00 0. -1.
</event>
<event>
 5    1  0.3222854E+002  0.1599676E+01  0.7818608E-02  0.3353715E+00
         11   -1    0    0    0    0  0.00000000000E+00  0.00000000000E+00  0.39999999674E+01  0.40000000000E+01  0.51100000000E-03 0.  1.
    9000002   -1    0    0    0    0 -0.00000000000E+00 -0.00000000000E+00  0.00000000000E+00  0.93800000000E+00  0.93800000000E+00 0.  1.
         11    1    1    2    0    0  0.79768576547E-01  0.62798808885E-01  0.12655173216E+01  0.12695830294E+01  0.51100000000E-03 0.  1.
    9000002    1    1    2    0    0 -0.24737491911E+00 -0.19889418354E+00  0.67327148963E-01  0.99253724960E+00  0.93800000000E+00 0.  1.
         22    1    1    2    0    0  0.16760634256E+00  0.13609537465E+00  0.26671554968E+01  0.26758797210E+01  0.00000000000E+00 0.  1.
</event>
<event>
 5    1  0.3222854E+002  0.1599642E+01  0.7818608E-02  0.3353752E+00
         11   -1    0    0    0    0  0.00000000000E+00  0.00000000000E+00  0.39999999674E+01  0.40000000000E+01  0.51100000000E-03 0.  1.
    9000002   -1    0    0    0    0 -0.00000000000E+00 -0.00000000000E+00  0.00000000000E+00  0.93800000000E+00  0.93800000000E+00 0.  1.
         11    1    1    2    0    0  0.31958776074E-01 -0.22209929498E-01  0.53716744516E+00  0.53857568605E+00  0.51100000000E-03 0.  1.
    9000002    1    1    2    0    0 -0.20235518541E+00  0.14992861256E+00  0.42166074609E-01  0.97213588956E+00  0.93800000000E+00 0.  1.
         22    1    1    2    0    0  0.17039640933E+00 -0.12771868307E+00  0.34206664476E+01  0.34272884244E+01  0.00000000000E+00 0.  1.
</event>
<event>
 5    1  0.3222854E+002  0.1599648E+01  0.7818608E-02  0.3353746E+00
         11   -1    0    0    0    0  0.00000000000E+00  0.00000000000E+00  0.39999999674E+01  0.40000000000E+01  0.51100000000E-03 0.  1.
    9000002   -1    0    0    0    0 -0.00000000000E+00 -0.00000000000E+00  0.00000000000E+00  0.93800000000E+00  0.93800000000E+00 0. -1.
         11    1    1    2    0    0  0.63942372523E-02  0.75750610279E-03  0.14156240443E+00  0.14170968759E+00  0.51100000000E-03 0.  1.
    9000002    1    1    2    0    0 -0.24394921619E+00 -0.32730733547E-01  0.40254711906E-01  0.97059103789E+00  0.93800000000E+00 0. -1.
         22    1    1    2    0    0  0.23755497894E+00  0.31973227445E-01  0.38181828510E+01  0.38256992745E+01  0.00000000000E+00 0.  1.
</event>
<event>
 5    1  0.3222854E+002  0.1599673E+01  0.7818608E-02  0.3353718E+00
         11   -1    0    0    0    0  0.00000000000E+00  0.00000000000E+00  0.39999999674E+01  0.40000000000E+01  0.51100000000E-03 0. -1.
    9000002   -1    0    0    0    0 -0.00000000000E+00 -0.00000000000E+00  0.00000000000E+00  0.93800000000E+00  0.93800000000E+00 0. -1.
         11    1    1    2    0    0  0.57607456652E-01  0.14347734832E-01  0.81649338977E+00  0.81864900490E+00  0.51100000000E-03 0. -1.
    9000002    1    1    2    0    0 -0.28607079023E+00 -0.65006374040E-01  0.57381085708E-01  0.98447900673E+00  0.93800000000E+00 0. -1.
         22    1    1    2    0    0  0.22846333358E+00  0.50658639208E-01  0.31261254919E+01  0.31348719884E+01  0.00000000000E+00 0. -1.
</event>
<event>
 5    1  0.3222854E+002  0.1599633E+01  0.7818608E-02  0.3353762E+00
         11   -1    0    0    0    0  0.00000000000E+00  0.00000000000E+00  0.39999999674E+01  0.40000000000E+01  0.51100000000E-03 0.  1.
    9000002   -1    0    0    0    0 -0.00000000000E+00 -0.00000000000E+00  0.00000000000E+00  0.93800000000E+00  0.93800000000E+00 0. -1.
         11    1    1    2    0    0 -0.12653522746E-01  0.27427957270E-01  0.40137494519E+00  0.40251026350E+00  0.51100000000E-03 0.  1.
    9000002    1    1    2    0    0  0.15540359023E+00 -0.23393567517E+00  0.52562932613E-01  0.98055241464E+00  0.93800000000E+00 0. -1.
         22    1    1    2    0    0 -0.14275006749E+00  0.20650771790E+00  0.35460620896E+01  0.35549373219E+01  0.00000000000E+00 0.  1.
</event>
<event>
 5    1  0.3222854E+002  0.1599655E+01  0.7818608E-02  0.3353737E+00
         11   -1    0    0    0    0  0.00000000000E+00  0.00000000000E+00  0.39999999674E+01  0.40000000000E+01  0.51100000000E-03 0. -1.
    9000002   -1    0    0    0    0 -0.00000000000E+00 -0.00000000000E+00  0.00000000000E+00  0.93800000000E+00  0.93800000000E+00 0. -1.
         11    1    1    2    0    0  0.88473696554E-01  0.77201163739E-01  0.13682775273E+01  0.13733066910E+01  0.51100000000E-03 0. -1.
    9000002    1    1    2    0    0 -0.25369099840E+00 -0.20634727989E+00  0.71545444457E-01  0.99594230416E+00  0.93800000000E+00 0. -1.
         22    1    1    2    0    0  0.16521730185E+00  0.12914611615E+00  0.25601769956E+01  0.25687510048E+01  0.00000000000E+00 0.  1.
</event>
<event>
 5    1  0.3222854E+002  0.1599668E+01  0.7818608E-02  0.3353724E+00
         11   -1    0    0    0    0  0.00000000000E+00  0.00000000000E+00  0.39999999674E+01  0.40000000000E+01  0.51100000000E-03 0. -1.
    9000002   -1    0    0    0    0 -0.00000000000E+00 -0.00000000000E+00  0.00000000000E+00  0.93800000000E+00  0.93800000000E+00 0. -1.
         11    1    1    2    0    0 -0.19112990388E+00  0.68988171473E-01  0.18636453547E+01  0.18746904483E+01  0.51100000000E-03 0. -1.
    9000002    1    1    2    0    0  0.40073338080E+00 -0.13661255118E+00  0.12129137350E+00  0.10362460272E+01  0.93800000000E+00 0. -1.
         22    1    1    2    0    0 -0.20960347692E+00  0.67624379711E-01  0.20150632392E+01  0.20270635245E+01  0.00000000000E+00 0. -1.
</event>
<event>
 5    1  0.3222854E+002  0.1599667E+01  0.7818608E-02  0.3353725E+00
         11   -1    0    0    0    0  0.00000000000E+00  0.00000000000E+00  0.39999999674E+01  0.40000000000E+01  0.51100000000E-03 0. -1.
    9000002   -1    0    0    0    0 -0.00000000000E+00 -0.00000000000E+00  0.00000000000E+00  0.93800000000E+00  0.93800000000E+00 0.  1.
         11    1    1    2    0    0  0.18470749577E-01  0.23177121699E-01  0.35453278334E+00  0.35576973332E+00  0.51100000000E-03 0. -1.
    9000002    1    1    2    0    0 -0.18802757186E+00 -0.24033416177E+00  0.62156202573E-01  0.98834319475E+00  0.93800000000E+00 0.  1.
         22    1    1    2    0    0  0.16955682229E+00  0.21715704007E+00  0.35833109814E+01  0.35938870719E+01  0.00000000000E+00 0. -1.
</event>
<event>
 5    1  0.3222854E+002  0.1599660E+01  0.7818608E-02  0.3353733E+00
         11   -1    0    0    0    0  0.00000000000E+00  0.00000000000E+00  0.39999999674E+01  0.40000000000E+01  0.51100000000E-03 0. -1.
    9000002   -1    0    0    0    0 -0.00000000000E+00 -0.00000000000E+00  0.00000000000E+00  0.93800000000E+00  0.93800000000E+00 0. -1.
         11    1    1    2    0    0  0.53632697802E-01 -0.16359940696E+00  0.13429145838E+01  0.13539058582E+01  0.51100000000E-03 0. -1.
    9000002    1    1    2    0    0 -0.16651135133E+00  0.46540086856E+00  0.16710967178E+00  0.10733562507E+01  0.93800000000E+00 0. -1.
         22    1    1    2    0    0  0.11287865353E+00 -0.30180146160E+00  0.24899757118E+01  0.25107378911E+01  0.00000000000E+00 0.  1.
</event>
<event>
 5    1  0.3222854E+002  0.1599675E+01  0.7818608E-02  0.3353716E+00
         11   -1    0    0    0    0  0.00000000000E+00  0.00000000000E+00  0.39999999674E+01  0.40000000000E+01  0.51100000000E-03 0.  1.
    9000002   -1    0    0    0    0 -0.00000000000E+00 -0.00000000000E+00  0.00000000000E+00  0.93800000000E+00  0.93800000000E+00 0. -1.
         11    1    1    2    0    0  0.44373317958E-01  0.30984080119E-01  0.83740084202E+00  0.83914804170E+00  0.51100000000E-03 0.  1.
    9000002    1    1    2    0    0 -0.21362387964E+00 -0.15179835601E+00  0.45667033211E-01  0.97499096445E+00  0.93800000000E+00 0. -1.
         22    1    1    2    0    0  0.16925056168E+00  0.12081427590E+00  0.31169320921E+01  0.31238609938E+01  0.00000000000E+00 0.  1.
</event>
<event>
 5    1  0.3222854E+002  0.1599395E+01  0.7818608E-02  0.3354020E+00
         11   -1    0    0    0    0  0.00000000000E+00  0.00000000000E+00  0.39999999674E+01  0.40000000000E+01  0.51100000000E-03 0.  1.
    9000002   -1    0    0    0    0 -0.00000000000E+00 -0.00000000000E+00  0.00000000000E+00  0.93800000000E+00  0.93800000000E+00 0.  1.
         11    1    1    2    0    0 -0.12813307989E+00  0.39084925722E+00  0.23831756455E+01  0.24184101486E+01  0.51100000000E-03 0.  1.
    9000002    1    1    2    0    0  0.19839612349E+00 -0.58188014175E+00  0.26482520794E+00  0.11523549418E+01  0.93800000000E+00 0.  1.
         22    1    1    2    0    0 -0.70263043597E-01  0.19103088453E+00  0.13519991139E+01  0.13672349096E+01  0.00000000000E+00 0. -1.
</event>
<event>
 5    1  0.3222854E+002  0.1599589E+01  0.7818608E-02  0.3353810E+00
         11   -1    0    0    0    0  0.00000000000E+00  0.00000000000E+00  0.39999999674E+01  0.40000000000E+01  0.51100000000E-03 0. -1.
    9000002   -1    0    0    0    0 -0.00000000000E+00 -0.00000000000E+00  0.00000000000E+00  0.93800000000E+00  0.93800000000E+00 0. -1.
         11    1    1    2    0    0 -0.15265112274E-01  0.27911741317E-01  0.48776813986E+00  0.48880477528E+00  0.51100000000E-03 0. -1.
    9000002    1    1    2    0    0  0.17810782576E+00 -0.25005689007E+00  0.62986907870E-01  0.98897027075E+00  0.93800000000E+00 0. -1.
         22    1    1    2    0    0 -0.16284271349E+00  0.22214514875E+00  0.34492449196E+01  0.34602249540E+01  0.00000000000E+00 0. -1.
</event>
<event>
 5    1  0.3222854E+002  0.1598841E+01  0.7818608E-02  0.3354622E+00
         11   -1    0    0    0    0  0.00000000000E+00  0.00000000000E+00  0.39999999674E+01  0.40000000000E+01  0.51100000000E-03 0. -1.
    9000002   -1    0    0    0    0 -0.00000000000E+00 -0.00000000000E+00  0.00000000000E+00  0.93800000000E+00  0.93800000000E+00 0. -1.
         11    1    1    2    0    0 -0.39021251407E-01 -0.93650198679E-01  0.80708530896E+00  0.81343713637E+00  0.51100000000E-03 0. -1.
    9000002    1    1    2    0    0  0.15240812797E+00  0.32197591888E+00  0.85820717269E-01  0.10070282644E+01  0.93800000000E+00 0. -1.
         22    1    1    2    0    0 -0.11338687656E+00 -0.22832572020E+00  0.31070939411E+01  0.31175345992E+01  0.00000000000E+00 0. -1.
</event>
<event>
 5    1  0.3222854E+002  0.1592274E+01  0.7818608E-02  0.3361792E+00
         11   -1    0    0    0    0  0.00000000000E+00  0.00000000000E+00  0.39999999674E+01  0.40000000000E+01  0.51100000000E-03 0. -1.
    9000002   -1    0    0    0    0 -0.00000000000E+00 -0.00000000000E+00  0.00000000000E+00  0.93800000000E+00  0.93800000000E+00 0. -1.
         11    1    1    2    0    0  0.13024951412E+00 -0.21340466979E-01  0.10511083584E+01  0.10593627299E+01  0.51100000000E-03 0. -1.
    9000002    1    1    2    0    0 -0.44135806696E+00 -0.25694814574E+00  0.18563436383E+00  0.10840310927E+01  0.93800000000E+00 0. -1.
         22    1    1    2    0    0  0.31110855284E+00  0.27828861272E+00  0.27632572452E+01  0.27946061774E+01  0.00000000000E+00 0. -1.
</event>
<event>
 5    1  0.3222854E+002  0.1599657E+01  0.7818608E-02  0.3353735E+00
         11   -1    0    0    0    0  0.00000000000E+00  0.00000000000E+00  0.39999999674E+01  0.40000000000E+01  0.51100000000E-03 0.  1.
    9000002   -1    0    0    0    0 -0.00000000000E+00 -0.00000000000E+00  0.00000000000E+00  0.93800000000E+00  0.93800000000E+00 0. -1.
         11    1    1    2    0    0 -0.10427984780E+00  0.10774004258E-01  0.12480890501E+01  0.12524842929E+01  0.51100000000E-03 0.  1.
    9000002    1    1    2    0    0  0.34186642278E+00 -0.40093074916E-01  0.79407541365E-01  0.10023121586E+01  0.93800000000E+00 0. -1.
         22    1    1    2    0    0 -0.23758657498E+00  0.29319070658E-01  0.26725033759E+01  0.26832035485E+01  0.00000000000E+00 0.  1.
</event>
<event>
 5    1  0.3222854E+002  0.1594421E+01  0.7818608E-02  0.3359441E+00
         11   -1    0    0    0    0  0.00000000000E+00  0.00000000000E+00  0.39999999674E+01  0.40000000000E+01  0.51100000000E-03 0. -1.
    9000002   -1    0    0    0    0 -0.00000000000E+00 -0.00000000000E+00  0.00000000000E+00  0.93800000000E+00  0.93800000000E+00 0.  1.
         11    1    1    2    0    0 -0.38783219220E-01 -0.10907660615E+00  0.70028489121E+00  0.70978942940E+00  0.51100000000E-03 0. -1.
    9000002    1    1    2    0    0  0.51114972813E+00  0.38454314064E+00  0.29349053683E+00  0.11726585892E+01  0.93800000000E+00 0.  1.
         22    1    1    2    0    0 -0.47236650891E+00 -0.27546653449E+00  0.30062245393E+01  0.30555519814E+01  0.00000000000E+00 0. -1.
</event>
<event>
 5    1  0.3222854E+002  0.1474431E+01  0.7818608E-02  0.3502047E+00
         11   -1    0    0    0    0  0.00000000000E+00  0.00000000000E+00  0.39999999674E+01  0.40000000000E+01  0.51100000000E-03 0. -1.
    9000002   -1    0    0    0    0 -0.00000000000E+00 -0.00000000000E+00  0.00000000000E+00  0.93800000000E+00  0.93800000000E+00 0. -1.
         11    1    1    2    0    0  0.46189915773E+00  0.83118433230E-01  0.16079819787E+01  0.16750718823E+01  0.51100000000E-03 0. -1.
    9000002    1    1    2    0    0 -0.13576278859E+00  0.64859907739E-01  0.11385793587E+00  0.95678940837E+00  0.93800000000E+00 0. -1.
         22    1    1    2    0    0 -0.32613636914E+00 -0.14797834097E+00  0.22781600528E+01  0.23061387094E+01  0.00000000000E+00 0. -1.
</event>
<event>
 5    1  0.3222854E+002  0.1597104E+01  0.7818608E-02  0.3356512E+00
         11   -1    0    0    0    0  0.00000000000E+00  0.00000000000E+00  0.39999999674E+01  0.40000000000E+01  0.51100000000E-03 0. -1.
    9000002   -1    0    0    0    0 -0.00000000000E+00 -0.00000000000E+00  0.00000000000E+00  0.93800000000E+00  0.93800000000E+00 0.  1.
         11    1    1    2    0    0 -0.13558685283E+00 -0.20824670663E-01  0.16480858920E+01  0.16537850011E+01  0.51100000000E-03 0. -1.
    9000002    1    1    2    0    0  0.38550307166E+00  0.17485979346E+00  0.12342060148E+00  0.10364676601E+01  0.93800000000E+00 0.  1.
         22    1    1    2    0    0 -0.24991621883E+00 -0.15403512280E+00  0.22284934739E+01  0.22477473387E+01  0.00000000000E+00 0. -1.
</event>
<event>
 5    1  0.3222854E+002  0.1411852E+01  0.7818608E-02  0.3588066E+00
         11   -1    0    0    0    0  0.00000000000E+00  0.00000000000E+00  0.39999999674E+01  0.40000000000E+01  0.51100000000E-03 0. -1.
    9000002   -1    0    0    0    0 -0.00000000000E+00 -0.00000000000E+00  0.00000000000E+00  0.93800000000E+00  0.93800000000E+00 0.  1.
         11    1    1    2    0    0 -0.51177474187E+00  0.35295671864E+00  0.34357648141E+01  0.34915572386E+01  0.51100000000E-03 0. -1.
    9000002    1    1    2    0    0  0.40746623319E+00 -0.10738803429E+00  0.30055018100E+00  0.10713241024E+01  0.93800000000E+00 0.  1.
         22    1    1    2    0    0  0.10430850868E+00 -0.24556868435E+00  0.26368497228E+00  0.37511865899E+00  0.00000000000E+00 0. -1.
</event>
<event>
 5    1  0.3222854E+002  0.1599628E+01  0.7818608E-02  0.3353768E+00
         11   -1    0    0    0    0  0.00000000000E+00  0.00000000000E+00  0.39999999674E+01  0.40000000000E+01  0.51100000000E-03 0. -1.
    9000002   -1    0    0    0    0 -0.00000000000E+00 -0.00000000000E+00  0.00000000000E+00  0.93800000000E+00  0.93800000000E+00 0.  1.
         11    1    1    2    0    0 -0.38214636808E-01  0.39275423848E-01  0.68131303361E+00  0.68351344410E+00  0.51100000000E-03 0. -1.
    9000002    1    1    2    0    0  0.21981539457E+00 -0.19039660171E+00  0.56408378393E-01  0.98366436287E+00  0.93800000000E+00 0.  1.
         22    1    1    2    0    0 -0.18160075776E+00  0.15112117786E+00  0.32622785554E+01  0.32708221930E+01  0.00000000000E+00 0. -1.
</event>
<event>
 5    1  0.3222854E+002  0.1599657E+01  0.7818608E-02  0.3353736E+00
         11   -1    0    0    0    0  0.00000000000E+00  0.00000000000E+00  0.39999999674E+01  0.40000000000E+01  0.51100000000E-03 0.  1.
    9000002   -1    0    0    0    0 -0.00000000000E+00 -0.00000000000E+00  0.00000000000E+00  0.93800000000E+00  0.93800000000E+00 0.  1.
         11    1    1    2    0    0  0.35756475486E-01 -0.13191894747E+00  0.15347983211E+01  0.15408722471E+01  0.51100000000E-03 0.  1.
    9000002    1    1    2    0    0 -0.78121429601E-01  0.33949420731E+00  0.81374180823E-01  0.10039048918E+01  0.93800000000E+00 0.  1.
         22    1    1    2    0    0  0.42364954115E-01 -0.20757525983E+00  0.23838274654E+01  0.23932228611E+01  0.00000000000E+00 0.  1.
</event>
<event>
 5    1  0.3222854E+002  0.1577358E+01  0.7818608E-02  0.3378311E+00
         11   -1    0    0    0    0  0.00000000000E+00  0.00000000000E+00  0.39999999674E+01  0.40000000000E+01  0.51100000000E-03 0.  1.
    9000002   -1    0    0    0    0 -0.00000000000E+00 -0.00000000000E+00  0.00000000000E+00  0.93800000000E+00  0.93800000000E+00 0.  1.
         11    1    1    2    0    0 -0.32692711087E-01  0.56186074206E-01  0.10034477719E+00  0.11956179876E+00  0.51100000000E-03 0.  1.
    9000002    1    1    2    0    0  0.30986372336E+00 -0.70778053848E-01  0.85362334445E-01  0.99406025376E+00  0.93800000000E+00 0.  1.
         22    1    1    2    0    0 -0.27717101228E+00  0.14591979641E-01  0.38142928557E+01  0.38243779475E+01  0.00000000000E+00 0.  1.
</event>
<event>
 5    1  0.3222854E+002  0.1472542E+01  0.7818608E-02  0.3504491E+00
         11   -1    0    0    0    0  0.00000000000E+00  0.00000000000E+00  0.39999999674E+01  0.40000000000E+01  0.51100000000E-03 0.  1.
    9000002   -1    0    0    0    0 -0.00000000000E+00 -0.00000000000E+00  0.00000000000E+00  0.93800000000E+00  0.93800000000E+00 0. -1.
         11    1    1    2    0    0 -0.38234689363E-01 -0.10379635210E+00  0.82770361183E-02  0.11092495043E+00  0.51100000000E-03 0.  1.
    9000002    1    1    2    0    0  0.26160817355E+00  0.23912027805E+00  0.19516313225E+00  0.10215429467E+01  0.93800000000E+00 0. -1.
         22    1    1    2    0    0 -0.22337348419E+00 -0.13532392595E+00  0.37965597990E+01  0.38055321028E+01  0.00000000000E+00 0.  1.
</event>
<event>
 5    1  0.3222854E+002  0.1471678E+01  0.7818608E-02  0.3505612E+00
         11   -1    0    0    0    0  0.00000000000E+00  0.00000000000E+00  0.39999999674E+01  0.40000000000E+01  0.51100000000E-03 0.  1.
    9000002   -1    0    0    0    0 -0.00000000000E+00 -0.00000000000E+00  0.00000000000E+00  0.93800000000E+00  0.93800000000E+00 0.  1.
         11    1    1    2    0    0  0.30252179869E+00 -0.38772814777E-02  0.28225305785E+01  0.28386992795E+01  0.51100000000E-03 0.  1.
    9000002    1    1    2    0    0 -0.68844385492E-01  0.38907358425E+00  0.22028653165E+00  0.10413875164E+01  0.93800000000E+00 0.  1.
         22    1    1    2    0    0 -0.23367741320E+00 -0.38519630277E+00  0.95718285724E+00  0.10579132040E+01  0.00000000000E+00 0. -1.
</event>
<event>
 5    1  0.3222854E+002  0.1595692E+01  0.7818608E-02  0.3358052E+00
         11   -1    0    0    0    0  0.00000000000E+00  0.00000000000E+00  0.39999999674E+01  0.40000000000E+01  0.51100000000E-03 0.  1.
    9000002   -1    0    0    0    0 -0.00000000000E+00 -0.00000000000E+00  0.00000000000E+00  0.93800000000E+00  0.93800000000E+00 0.  1.
         11    1    1    2    0    0  0.16388818808E+00  0.38415585261E-01  0.68418792058E+00  0.70459099282E+00  0.51100000000E-03 0.  1.
    9000002    1    1    2    0    0 -0.74414559460E+00  0.90684931066E-01  0.41214928230E+00  0.12695225298E+01  0.93800000000E+00 0.  1.
         22    1    1    2    0    0  0.58025740652E+00 -0.12910051633E+00  0.29036627645E+01  0.29638864774E+01  0.00000000000E+00 0. -1.
</event>
<event>
 5    1  0.3222854E+002  0.1585852E+01  0.7818608E-02  0.3368864E+00
         11   -1    0    0    0    0  0.00000000000E+00  0.00000000000E+00  0.39999999674E+01  0.40000000000E+01  0.51100000000E-03 0.  1.
    9000002   -1    0    0    0    0 -0.00000000000E+00 -0.00000000000E+00  0.00000000000E+00  0.93800000000E+00  0.93800000000E+00 0. -1.
         11    1    1    2    0    0 -0.20365827749E-01 -0.80950810286E-01  0.24257365067E+01  0.24271723593E+01  0.51100000000E-03 0.  1.
    9000002    1    1    2    0    0 -0.17983634826E+00  0.57796799501E-01  0.33999842377E-01  0.95743489150E+00  0.93800000000E+00 0. -1.
         22    1    1    2    0    0  0.20020217600E+00  0.23154010785E-01  0.15402636182E+01  0.15533927492E+01  0.00000000000E+00 0.  1.
</event>
<event>
 5    1  0.3222854E+002  0.1599671E+01  0.7818608E-02  0.3353721E+00
         11   -1    0    0    0    0  0.00000000000E+00  0.00000000000E+00  0.39999999674E+01  0.40000000000E+01  0.51100000000E-03 0.  1.
    9000002   -1    0    0    0    0 -0.00000000000E+00 -0.00000000000E+00  0.00000000000E+00  0.93800000000E+00  0.93800000000E+00 0. -1.
         11    1    1    2    0    0 -0.20926586712E+00 -0.47434863357E-01  0.19749703876E+01  0.19865927017E+01  0.51100000000E-03 0.  1.
    9000002    1    1    2    0    0  0.40830457414E+00  0.98438430046E-01  0.11930737460E+00  0.10346405170E+01  0.93800000000E+00 0. -1.
         22    1    1    2    0    0 -0.19903870703E+00 -0.51003566689E-01  0.19057222052E+01  0.19167667813E+01  0.00000000000E+00 0.  1.
</event>
<event>
 5    1  0.3222854E+002  0.1599671E+01  0.7818608E-02  0.3353720E+00
         11   -1    0    0    0    0  0.00000000000E+00  0.00000000000E+00  0.39999999674E+01  0.40000000000E+01  0.51100000000E-03 0.  1.
    9000002   -1    0    0    0    0 -0.00000000000E+00 -0.00000000000E+00  0.00000000000E+00  0.93800000000E+00  0.93800000000E+00 0.  1.
         11    1    1    2    0    0 -0.25578318208E-01  0.37264763606E-01  0.46241139813E+00  0.46461540570E+00  0.51100000000E-03 0.  1.
    9000002    1    1    2    0    0  0.22796357644E+00 -0.30479243028E+00  0.97483574037E-01  0.10169625681E+01  0.93800000000E+00 0.  1.
         22    1    1    2    0    0 -0.20238525823E+00  0.26752766667E+00  0.34401049952E+01  0.34564220262E+01  0.00000000000E+00 0.  1.
</event>
<event>
 5    1  0.3222854E+002  0.1599677E+01  0.7818608E-02  0.3353714E+00
         11   -1    0    0    0    0  0.00000000000E+00  0.00000000000E+00  0.39999999674E+01  0.40000000000E+01  0.51100000000E-03 0.  1.
    9000002   -1    0    0    0    0 -0.00000000000E+00 -0.00000000000E+00  0.00000000000E+00  0.93800000000E+00  0.93800000000E+00 0.  1.
         11    1    1    2    0    0  0.15386682563E-01  0.24272119839E-01  0.43818335609E+00  0.43912503968E+00  0.51100000000E-03 0.  1.
    9000002    1    1    2    0    0 -0.13712523472E+00 -0.21841186830E+00  0.44207418357E-01  0.97380971963E+00  0.93800000000E+00 0.  1.
         22    1    1    2    0    0  0.12173855216E+00  0.19413974846E+00  0.35176091929E+01  0.35250652407E+01  0.00000000000E+00 0.  1.
</event>
<event>
 5    1  0.3222854E+002  0.1599677E+01  0.7818608E-02  0.3353714E+00
         11   -1    0    0    0    0  0.00000000000E+00  0.00000000000E+00  0.39999999674E+01  0.40000000000E+01  0.51100000000E-03 0. -1.
    9000002   -1    0    0    0    0 -0.00000000000E+00 -0.00000000000E+00  0.00000000000E+00  0.93800000000E+00  0.93800000000E+00 0. -1.
         11    1    1    2    0    0  0.20797230592E-01 -0.97357917389E-01  0.12404404171E+01  0.12444290974E+01  0.51100000000E-03 0. -1.
    9000002    1    1    2    0    0 -0.64690397294E-01  0.30964282084E+00  0.66858300887E-01  0.99215802995E+00  0.93800000000E+00 0. -1.
         22    1    1    2    0    0  0.43893166701E-01 -0.21228490345E+00  0.26927012493E+01  0.27014128726E+01  0.00000000000E+00 0. -1.
</event>
<event>
 5    1  0.3222854E+002  0.1599514E+01  0.7818608E-02  0.3353891E+00
         11   -1    0    0    0    0  0.00000000000E+00  0.00000000000E+00  0.39999999674E+01  0.40000000000E+01  0.51100000000E-03 0.  1.
    9000002   -1    0    0    0    0 -0.00000000000E+00 -0.00000000000E+00  0.00000000000E+00  0.93800000000E+00  0.93800000000E+00 0.  1.
         11    1    1    2    0    0 -0.75134997708E-01  0.71744310381E-02  0.11305661733E+01  0.11330829068E+01  0.51100000000E-03 0.  1.
    9000002    1    1    2    0    0  0.30904087445E+00 -0.14894182760E-01  0.64046478467E-01  0.98978485044E+00  0.93800000000E+00 0.  1.
         22    1    1    2    0    0 -0.23390587675E+00  0.77197517222E-02  0.28053873156E+01  0.28151322428E+01  0.00000000000E+00 0.  1.
</event>
<event>
 5    1  0.3222854E+002  0.1599673E+01  0.7818608E-02  0.3353718E+00
         11   -1    0    0    0    0  0.00000000000E+00  0.00000000000E+00  0.39999999674E+01  0.40000000000E+01  0.51100000000E-03 0. -1.
    9000002   -1    0    0    0    0 -0.00000000000E+00 -0.00000000000E+00  0.00000000000E+00  0.93800000000E+00  0.93800000000E+00 0. -1.
         11    1    1    2    0    0  0.28968704348E+00  0.39627114119E-01  0.20372027973E+01  0.20580778386E+01  0.51100000000E-03 0. -1.
    9000002    1    1    2    0    0 -0.54172480986E+00 -0.70108557805E-01  0.20594915035E+00  0.11048257926E+01  0.93800000000E+00 0. -1.
         22    1    1    2    0    0  0.25203776638E+00  0.30481443686E-01  0.17568480197E+01  0.17750963688E+01  0.00000000000E+00 0. -1.
</event>
<event>
 5    1  0.3222854E+002  0.1599677E+01  0.7818608E-02  0.3353714E+00
         11   -1    0    0    0    0  0.00000000000E+00  0.00000000000E+00  0.39999999674E+01  0.40000000000E+01  0.51100000000E-03 0. -1.
    9000002   -1    0    0    0    0 -0.00000000000E+00 -0.00000000000E+00  0.00000000000E+00  0.93800000000E+00  0.93800000000E+00 0. -1.
         11    1    1    2    0    0  0.60512953702E-01 -0.32419889913E+00  0.20524420324E+01  0.20787701415E+01  0.51100000000E-03 0. -1.
    9000002    1    1    2    0    0 -0.10945753337E+00  0.59111668927E+00  0.25221148257E+00  0.11423022909E+01  0.93800000000E+00 0. -1.
         22    1    1    2    0    0  0.48944579667E-01 -0.26691779014E+00  0.16953464524E+01  0.17169275676E+01  0.00000000000E+00 0. -1.
</event>
<event>
 5    1  0.3222854E+002  0.1590212E+01  0.7818608E-02  0.3364056E+00
         11   -1    0    0    0    0  0.00000000000E+00  0.00000000000E+00  0.39999999674E+01  0.40000000000E+01  0.51100000000E-03 0. -1.
    9000002   -1    0    0    0    0 -0.00000000000E+00 -0.00000000000E+00  0.00000000000E+00  0.93800000000E+00  0.93800000000E+00 0.  1.
         11    1    1    2    0    0 -0.12153289161E+00 -0.15118282271E-01  0.48532400623E+00  0.50053816872E+00  0.51100000000E-03 0. -1.
    9000002    1    1    2    0    0  0.39785558020E+00 -0.13191634708E+00  0.12683475653E+00  0.10351917894E+01  0.93800000000E+00 0.  1.
         22    1    1    2    0    0 -0.27632268858E+00  0.14703462935E+00  0.33878412046E+01  0.34022700419E+01  0.00000000000E+00 0. -1.
</event>
<event>
 5    1  0.3222854E+002  0.1583681E+01  0.7818608E-02  0.3371268E+00
         11   -1    0    0    0    0  0.00000000000E+00  0.00000000000E+00  0.39999999674E+01  0.40000000000E+01  0.51100000000E-03 0. -1.
    9000002   -1    0    0    0    0 -0.00000000000E+00 -0.00000000000E+00  0.00000000000E+00  0.93800000000E+00  0.93800000000E+00 0. -1.
         11    1    1    2    0    0  0.19172945638E+00 -0.24215676731E+00  0.19078853852E+01  0.19327252750E+01  0.51100000000E-03 0. -1.
    9000002    1    1    2    0    0 -0.46788221562E+00  0.19178785307E+00  0.18983381999E+00  0.10823942108E+01  0.93800000000E+00 0. -1.
         22    1    1    2    0    0  0.27615275924E+00  0.50368914242E-01  0.19022807622E+01  0.19228805142E+01  0.00000000000E+00 0. -1.
</event>
<event>
 5    1  0.3222854E+002  0.1587638E+01  0.7818608E-02  0.3366891E+00
         11   -1    0    0    0    0  0.00000000000E+00  0.00000000000E+00  0.39999999674E+01  0.40000000000E+01  0.51100000000E-03 0.  1.
    9000002   -1    0    0    0    0 -0.00000000000E+00 -0.00000000000E+00  0.00000000000E+00  0.93800000000E+00  0.93800000000E+00 0.  1.
         11    1    1    2    0    0 -0.15260180008E-01 -0.63084584145E-01  0.31428614829E+00  0.32091834161E+00  0.51100000000E-03 0.  1.
    9000002    1    1    2    0    0 -0.17496029024E+00 -0.28185966695E-01  0.29773127858E-01  0.95505810871E+00  0.93800000000E+00 0.  1.
         22    1    1    2    0    0  0.19022047025E+00  0.91270550840E-01  0.36559406912E+01  0.36620235497E+01  0.00000000000E+00 0.  1.
</event>
<event>
 5    1  0.3222854E+002  0.1599512E+01  0.7818608E-02  0.3353894E+00
         11   -1    0    0    0    0  0.00000000000E+00  0.00000000000E+00  0.39999999674E+01  0.40000000000E+01  0.51100000000E-03 0. -1.
    9000002   -1    0    0    0    0 -0.00000000000E+00 -0.00000000000E+00  0.00000000000E+00  0.93800000000E+00  0.93800000000E+00 0. -1.
         11    1    1    2    0    0 -0.54300749448E-01  0.22960164027E-01  0.56399919963E+00  0.56707239293E+00  0.51100000000E-03 0. -1.
    9000002    1    1    2    0    0  0.30266881060E+00 -0.14946343671E+00  0.76432615365E-01  0.99981681948E+00  0.93800000000E+00 0. -1.
         22    1    1    2    0    0 -0.24836806115E+00  0.12650327268E+00  0.33595681524E+01  0.33711107876E+01  0.00000000000E+00 0. -1.
</event>
<event>
 5    1  0.3222854E+002  0.1591791E+01  0.7818608E-02  0.3362322E+00
         11   -1    0    0    0    0  0.00000000000E+00  0.00000000000E+00  0.39999999674E+01  0.40000000000E+01  0.51100000000E-03 0. -1.
    9000002   -1    0    0    0    0 -0.00000000000E+00 -0.00000000000E+00  0.00000000000E+00  0.93800000000E+00  0.93800000000E+00 0. -1.
         11    1    1    2    0    0  0.14696896133E-01  0.98498858004E-01  0.17051767297E+01  0.17080825402E+01  0.51100000000E-03 0. -1.
    9000002    1    1    2    0    0 -0.23061537801E+00 -0.81262136459E-01  0.45736156758E-01  0.97042402249E+00  0.93800000000E+00 0. -1.
         22    1    1    2    0    0  0.21591848188E+00 -0.17236721545E-01  0.22490870810E+01  0.22594934373E+01  0.00000000000E+00 0. -1.
</event>
<event>
 5    1  0.3222854E+002  0.1599637E+01  0.7818608E-02  0.3353758E+00
         11   -1    0    0    0    0  0.00000000000E+00  0.00000000000E+00  0.39999999674E+01  0.40000000000E+01  0.51100000000E-03 0. -1.
    9000002   -1    0    0    0    0 -0.00000000000E+00 -0.00000000000E+00  0.00000000000E+00  0.93800000000E+00  0.93800000000E+00 0.  1.
         11    1    1    2    0    0  0.23315640040E+00 -0.14715224437E+00  0.16951648610E+01  0.17174399137E+01  0.51100000000E-03 0. -1.
    9000002    1    1    2    0    0 -0.51382498740E+00  0.34096815783E+00  0.26632390593E+00  0.11537104599E+01  0.93800000000E+00 0.  1.
         22    1    1    2    0    0  0.28066858700E+00 -0.19381591346E+00  0.20385112005E+01  0.20668496265E+01  0.00000000000E+00 0. -1.
</event>
<event>
 5    1  0.3222854E+002  0.1599567E+01  0.7818608E-02  0.3353833E+00
         11   -1    0    0    0    0  0.00000000000E+00  0.00000000000E+00  0.39999999674E+01  0.40000000000E+01  0.51100000000E-03 0. -1.
    9000002   -1    0    0    0    0 -0.00000000000E+00 -0.00000000000E+00  0.00000000000E+00  0.93800000000E+00  0.93800000000E+00 0.  1.
         11    1    1    2    0    0  0.39197415391E-02 -0.38632446933E-02  0.13743712200E+00  0.13754821939E+00  0.51100000000E-03 0. -1.
    9000002    1    1    2    0    0 -0.41537122122E-01  0.22298655355E+00  0.34202193544E-01  0.96564078498E+00  0.93800000000E+00 0.  1.
         22    1    1    2    0    0  0.37617380583E-01 -0.21912330885E+00  0.38283606518E+01  0.38348109956E+01  0.00000000000E+00 0. -1.
</event>
<event>
 5    1  0.3222854E+002  0.1554089E+01  0.7818608E-02  0.3404752E+00
         11   -1    0    0    0    0  0.00000000000E+00  0.00000000000E+00  0.39999999674E+01  0.40000000000E+01  0.51100000000E-03 0. -1.
    9000002   -1    0    0    0    0 -0.00000000000E+00 -0.00000000000E+00  0.00000000000E+00  0.93800000000E+00  0.93800000000E+00 0. -1.
         11    1    1    2    0    0  0.25031676539E+00 -0.54165691426E-01  0.84038545248E+00  0.87854446389E+00  0.51100000000E-03 0. -1.
    9000002    1    1    2    0    0 -0.25722523067E+00 -0.14785453422E+00  0.95219633405E-01  0.98840101233E+00  0.93800000000E+00 0. -1.
         22    1    1    2    0    0  0.69084652730E-02  0.20202022565E+00  0.30643948815E+01  0.30710545238E+01  0.00000000000E+00 0. -1.
</event>
<event>
 5    1  0.3222854E+002  0.1580273E+01  0.7818608E-02  0.3375056E+00
         11   -1    0    0    0    0  0.00000000000E+00  0.00000000000E+00  0.39999999674E+01  0.40000000000E+01  0.51100000000E-03 0. -1.
    9000002   -1    0    0    0    0 -0.00000000000E+00 -0.00000000000E+00  0.00000000000E+00  0.93800000000E+00  0.93800000000E+00 0. -1.
         11    1    1    2    0    0  0.84317148577E-01  0.37864581245E-01  0.16885098856E+01  0.16910378478E+01  0.51100000000E-03 0. -1.
    9000002    1    1    2    0    0  0.19091448539E+00 -0.73889767939E-01  0.42461252735E-01  0.96101768793E+00  0.93800000000E+00 0. -1.
         22    1    1    2    0    0 -0.27523163397E+00  0.36025186694E-01  0.22690288291E+01  0.22859444642E+01  0.00000000000E+00 0. -1.
</event>
<event>
 5    1  0.3222854E+002  0.1599650E+01  0.7818608E-02  0.3353744E+00
         11   -1    0    0    0    0  0.00000000000E+00  0.00000000000E+00  0.39999999674E+01  0.40000000000E+01  0.51100000000E-03 0.  1.
    9000002   -1    0    0    0    0 -0.00000000000E+00 -0.00000000000E+00  0.00000000000E+00  0.93800000000E+00  0.93800000000E+00 0. -1.
         11    1    1    2    0    0 -0.91509292336E-02  0.81158026636E-02  0.21135188432E+00  0.21170613096E+00  0.51100000000E-03 0.  1.
    9000002    1    1    2    0    0  0.18785449367E+00 -0.10260430527E+00  0.30378952894E-01  0.96259224754E+00  0.93800000000E+00 0. -1.
         22    1    1    2    0    0 -0.17870356443E+00  0.94488502606E-01  0.37582691301E+01  0.37637016215E+01  0.00000000000E+00 0.  1.
</event>
<event>
 5    1  0.3222854E+002  0.1592246E+01  0.7818608E-02  0.3361823E+00
         11   -1    0    0    0    0  0.00000000000E+00  0.00000000000E+00  0.39999999674E+01  0.40000000000E+01  0.51100000000E-03 0. -1.
    9000002   -1    0    0    0    0 -0.00000000000E+00 -0.00000000000E+00  0.00000000000E+00  0.93800000000E+00  0.93800000000E+00 0. -1.
         11    1    1    2    0    0 -0.11599481382E+00  0.14858823543E+00  0.95154449336E+00  0.97003631092E+00  0.51100000000E-03 0. -1.
    9000002    1    1    2    0    0  0.26062595184E+00 -0.30700950902E+00  0.11565309017E+00  0.10273268042E+01  0.93800000000E+00 0. -1.
         22    1    1    2    0    0 -0.14463113802E+00  0.15842127358E+00  0.29328023838E+01  0.29406368849E+01  0.00000000000E+00 0.  1.
</event>
<event>
 5    1  0.3222854E+002  0.1599676E+01  0.7818608E-02  0.3353715E+00
         11   -1    0    0    0    0  0.00000000000E+00  0.00000000000E+00  0.39999999674E+01  0.40000000000E+01  0.51100000000E-03 0.  1.
    9000002   -1    0    0    0    0 -0.00000000000E+00 -0.00000000000E+00  0.00000000000E+00  0.93800000000E+00  0.93800000000E+00 0. -1.
         11    1    1    2    0    0  0.31443697492E-01 -0.47433116543E-01  0.55957356645E+00  0.56246017107E+00  0.51100000000E-03 0.  1.
    9000002    1    1    2    0    0 -0.22120553443E+00  0.32704506403E+00  0.10508244998E+00  0.10231210503E+01  0.93800000000E+00 0. -1.
         22    1    1    2    0    0  0.18976183694E+00 -0.27961194749E+00  0.33353439509E+01  0.33524187786E+01  0.00000000000E+00 0.  1.
</event>
<event>
 5    1  0.3222854E+002  0.1599673E+01  0.7818608E-02  0.3353718E+00
         11   -1    0    0    0    0  0.00000000000E+00  0.00000000000E+00  0.39999999674E+01  0.40000000000E+01  0.51100000000E-03 0.  1.
    9000002   -1    0    0    0    0 -0.00000000000E+00 -0.00000000000E+00  0.00000000000E+00  0.93800000000E+00  0.93800000000E+00 0.  1.
         11    1    1    2    0    0  0.46530885463E-01 -0.44496366179E-01  0.82494449301E+00  0.82745315733E+00  0.51100000000E-03 0.  1.
    9000002    1    1    2    0    0 -0.21357593291E+00  0.21396317890E+00  0.60986652011E-01  0.98739976340E+00  0.93800000000E+00 0.  1.
         22    1    1    2    0    0  0.16704504744E+00 -0.16946681272E+00  0.31140688223E+01  0.31231470793E+01  0.00000000000E+00 0.  1.
</event>
<event>
 5    1  0.3222854E+002  0.1594310E+01  0.7818608E-02  0.3359563E+00
         11   -1    0    0    0    0  0.00000000000E+00  0.00000000000E+00  0.39999999674E+01  0.40000000000E+01  0.51100000000E-03 0. -1.
    9000002   -1    0    0    0    0 -0.00000000000E+00 -0.00000000000E+00  0.00000000000E+00  0.93800000000E+00  0.93800000000E+00 0.  1.
         11    1    1    2    0    0 -0.22279644645E-01 -0.60237230665E-02  0.85902366528E-01  0.88950241715E-01  0.51100000000E-03 0. -1.
    9000002    1    1    2    0    0 -0.52426307095E-01 -0.22496982932E+00  0.39477280891E-01  0.96683111115E+00  0.93800000000E+00 0.  1.
         22    1    1    2    0    0  0.74705951741E-01  0.23099355238E+00  0.38746203199E+01  0.38822186471E+01  0.00000000000E+00 0. -1.
</event>
<event>
 5    1  0.3222854E+002  0.1599537E+01  0.7818608E-02  0.3353866E+00
         11   -1    0    0    0    0  0.00000000000E+00  0.00000000000E+00  0.39999999674E+01  0.40000000000E+01  0.51100000000E-03 0.  1.
    9000002   -1    0    0    0    0 -0.00000000000E+00 -0.00000000000E+00  0.00000000000E+00  0.93800000000E+00  0.93800000000E+00 0. -1.
         11    1    1    2    0    0  0.33955997380E-01 -0.50776657689E-01  0.70850657837E+00  0.71113508663E+00  0.51100000000E-03 0.  1.
    9000002    1    1    2    0    0 -0.22165306978E+00  0.23090535085E+00  0.68587241438E-01  0.99347650907E+00  0.93800000000E+00 0. -1.
         22    1    1    2    0    0  0.18769707240E+00 -0.18012869316E+00  0.32229061475E+01  0.32333884043E+01  0.00000000000E+00 0.  1.
</event>
<event>
 5    1  0.3222854E+002  0.1579894E+01  0.7818608E-02  0.3375479E+00
         11   -1    0    0    0    0  0.00000000000E+00  0.00000000000E+00  0.39999999674E+01  0.40000000000E+01  0.51100000000E-03 0. -1.
    9000002   -1    0    0    0    0 -0.00000000000E+00 -0.00000000000E+00  0.00000000000E+00  0.93800000000E+00  0.93800000000E+00 0.  1.
         11    1    1    2    0    0 -0.30925113962E-02  0.77596110034E-01  0.31503376428E+00  0.32446456460E+00  0.51100000000E-03 0. -1.
    9000002    1    1    2    0    0  0.32826145528E+00  0.14727820230E+00  0.10309364207E+00  0.10099102688E+01  0.93800000000E+00 0.  1.
         22    1    1    2    0    0 -0.32516894389E+00 -0.22487431233E+00  0.35818725610E+01  0.36036251667E+01  0.00000000000E+00 0. -1.
</event>
<event>
 5    1  0.3222854E+002  0.1599670E+01  0.7818608E-02  0.3353722E+00
         11   -1    0    0    0    0  0.00000000000E+00  0.00000000000E+00  0.39999999674E+01  0.40000000000E+01  0.51100000000E-03 0. -1.
    9000002   -1    0    0    0    0 -0.00000000000E+00 -0.00000000000E+00  0.00000000000E+00  0.93800000000E+00  0.93800000000E+00 0.  1.
         11    1    1    2    0    0  0.22779448051E-01  0.32907606991E-01  0.58583616238E+00  0.58720191087E+00  0.51100000000E-03 0. -1.
    9000002    1    1    2    0    0 -0.16640283764E+00 -0.21390123952E+00  0.48875359082E-01  0.97758705258E+00  0.93800000000E+00 0.  1.
         22    1    1    2    0    0  0.14362338959E+00  0.18099363253E+00  0.33652884459E+01  0.33732110366E+01  0.00000000000E+00 0. -1.
</event>
<event>
 5    1  0.3222854E+002  0.1576180E+01  0.7818608E-02  0.3379630E+00
         11   -1    0    0    0    0  0.00000000000E+00  0.00000000000E+00  0.39999999674E+01  0.40000000000E+01  0.51100000000E-03 0. -1.
    9000002   -1    0    0    0    0 -0.00000000000E+00 -0.00000000000E+00  0.00000000000E+00  0.93800000000E+00  0.93800000000E+00 0.  1.
         11    1    1    2    0    0  0.14673940010E-01  0.71860241908E-02 -0.78027852097E-03  0.16365616843E-01  0.51100000000E-03 0. -1.
    9000002    1    1    2    0    0  0.10906403679E+00 -0.21791218087E+00  0.57554189175E-01  0.97084353394E+00  0.93800000000E+00 0.  1.
         22    1    1    2    0    0 -0.12373797680E+00  0.21072615668E+00  0.39432260567E+01  0.39507908492E+01  0.00000000000E+00 0. -1.
</event>
<event>
 5    1  0.3222854E+002  0.1599603E+01  0.7818608E-02  0.3353795E+00
         11   -1    0    0    0    0  0.00000000000E+00  0.00000000000E+00  0.39999999674E+01  0.40000000000E+01  0.51100000000E-03 0. -1.
    9000002   -1    0    0    0    0 -0.00000000000E+00 -0.00000000000E+00  0.00000000000E+00  0.93800000000E+00  0.93800000000E+00 0. -1.
         11    1    1    2    0    0  0.28825117017E-01 -0.25491953910E+00  0.19748218757E+01  0.19914157177E+01  0.51100000000E-03 0. -1.
    9000002    1    1    2    0    0 -0.45074107591E-01  0.47888045669E+00  0.15795101880E+00  0.10659036970E+01  0.93800000000E+00 0. -1.
         22    1    1    2    0    0  0.16248990574E-01 -0.22396091758E+00  0.18672270728E+01  0.18806805853E+01  0.00000000000E+00 0. -1.
</event>
<event>
 5    1  0.3222854E+002  0.1436254E+01  0.7818608E-02  0.3552822E+00
         11   -1    0    0    0    0  0.00000000000E+00  0.00000000000E+00  0.39999999674E+01  0.40000000000E+01  0.51100000000E-03 0. -1.
    9000002   -1    0    0    0    0 -0.00000000000E+00 -0.00000000000E+00  0.00000000000E+00  0.93800000000E+00  0.93800000000E+00 0.  1.
         11    1    1    2    0    0 -0.32956100554E+00 -0.16102802452E+00  0.27209114916E+01  0.27455236454E+01  0.51100000000E-03 0. -1.
    9000002    1    1    2    0    0 -0.80601276941E-01 -0.92872420457E-01  0.14112958579E+00  0.95649538018E+00  0.93800000000E+00 0.  1.
         22    1    1    2    0    0  0.41016228248E+00  0.25390044497E+00  0.11379588900E+01  0.12359809745E+01  0.00000000000E+00 0. -1.
</event>
<event>
 5    1  0.3222854E+002  0.1599443E+01  0.7818608E-02  0.3353968E+00
         11   -1    0    0    0    0  0.00000000000E+00  0.00000000000E+00  0.39999999674E+01  0.40000000000E+01  0.51100000000E-03 0. -1.
    9000002   -1    0    0    0    0 -0.00000000000E+00 -0.00000000000E+00  0.00000000000E+00  0.93800000000E+00  0.93800000000E+00 0. -1.
         11    1    1    2    0    0  0.88981626578E-02 -0.73252003655E-02  0.33683044090E+00  0.33702795566E+00  0.51100000000E-03 0. -1.
    9000002    1    1    2    0    0 -0.16718121083E+00  0.18923564275E+00  0.42542042712E-01  0.97232376868E+00  0.93800000000E+00 0. -1.
         22    1    1    2    0    0  0.15828304817E+00 -0.18191044238E+00  0.36206274837E+01  0.36286482757E+01  0.00000000000E+00 0. -1.
</event>
<event>
 5    1  0.3222854E+002  0.1599677E+01  0.7818608E-02  0.3353714E+00
         11   -1    0    0    0    0  0.00000000000E+00  0.00000000000E+00  0.39999999674E+01  0.40000000000E+01  0.51100000000E-03 0. -1.
    9000002   -1    0    0    0    0 -0.00000000000E+00 -0.00000000000E+00  0.00000000000E+00  0.93800000000E+00  0.93800000000E+00 0.  1.
         11    1    1    2    0    0 -0.10278478145E+00 -0.88664535129E-01  0.10539780899E+01  0.10626834835E+01  0.51100000000E-03 0. -1.
    9000002    1    1    2    0    0  0.37151348605E+00  0.32308291579E+00  0.16572906333E+00  0.10722476222E+01  0.93800000000E+00 0.  1.
         22    1    1    2    0    0 -0.26872870461E+00 -0.23441838066E+00  0.27802928141E+01  0.28030688943E+01  0.00000000000E+00 0. -1.
</event>
<event>
 5    1  0.3222854E+002  0.1596194E+01  0.7818608E-02  0.3357505E+00
         11   -1    0    0    0    0  0.00000000000E+00  0.00000000000E+00  0.39999999674E+01  0.40000000000E+01  0.51100000000E-03 0.  1.
    9000002   -1    0    0    0    0 -0.00000000000E+00 -0.00000000000E+00  0.00000000000E+00  0.93800000000E+00  0.93800000000E+00 0. -1.
         11    1    1    2    0    0 -0.11786047089E+00 -0.51735033125E-01  0.91864099607E+00  0.92761476111E+00  0.51100000000E-03 0.  1.
    9000002    1    1    2    0    0  0.54652201895E+00 -0.30364528091E-01  0.21012293898E+00  0.11061663398E+01  0.93800000000E+00 0. -1.
         22    1    1    2    0    0 -0.42866154807E+00  0.82099561216E-01  0.28712360323E+01  0.29042188991E+01  0.00000000000E+00 0.  1.
</event>
<event>
 5    1  0.3222854E+002  0.1599662E+01  0.7818608E-02  0.3353730E+00
         11   -1    0    0    0    0  0.00000000000E+00  0.00000000000E+00  0.39999999674E+01  0.40000000000E+01  0.51100000000E-03 0. -1.
    9000002   -1    0    0    0    0 -0.00000000000E+00 -0.00000000000E+00  0.00000000000E+00  0.93800000000E+00  0.93800000000E+00 0.  1.
         11    1    1    2    0    0 -0.15893642057E-01 -0.30629691078E-01  0.44050567461E+00  0.44185551520E+00  0.51100000000E-03 0. -1.
    9000002    1    1    2    0    0  0.11960862726E+00  0.26229512496E+00  0.55392455496E-01  0.98286178093E+00  0.93800000000E+00 0.  1.
         22    1    1    2    0    0 -0.10371498520E+00 -0.23166543388E+00  0.35041018373E+01  0.35132827039E+01  0.00000000000E+00 0. -1.
</event>
<event>
 5    1  0.3222854E+002  0.1594455E+01  0.7818608E-02  0.3359404E+00
         11   -1    0    0    0    0  0.00000000000E+00  0.00000000000E+00  0.39999999674E+01  0.40000000000E+01  0.51100000000E-03 0. -1.
    9000002   -1    0    0    0    0 -0.00000000000E+00 -0.00000000000E+00  0.00000000000E+00  0.93800000000E+00  0.93800000000E+00 0. -1.
         11    1    1    2    0    0  0.73854617676E-02  0.66432218236E-01  0.13176633458E+01  0.13193576993E+01  0.51100000000E-03 0. -1.
    9000002    1    1    2    0    0 -0.22424217531E+00 -0.58753826345E-01  0.39619636630E-01  0.96703168557E+00  0.93800000000E+00 0. -1.
         22    1    1    2    0    0  0.21685671354E+00 -0.76783918911E-02  0.26427169849E+01  0.26516106151E+01  0.00000000000E+00 0. -1.
</event>
<event>
 5    1  0.3222854E+002  0.1462396E+01  0.7818608E-02  0.3517742E+00
         11   -1    0    0    0    0  0.00000000000E+00  0.00000000000E+00  0.39999999674E+01  0.40000000000E+01  0.51100000000E-03 0.  1.
    9000002   -1    0    0    0    0 -0.00000000000E+00 -0.00000000000E+00  0.00000000000E+00  0.93800000000E+00  0.93800000000E+00 0. -1.
         11    1    1    2    0    0  0.23707598613E+00 -0.34128530121E+00  0.81268944435E+00  0.91276780952E+00  0.51100000000E-03 0.  1.
    9000002    1    1    2    0    0 -0.13004122508E+00  0.16334437870E+00  0.14028779235E+00  0.97114199320E+00  0.93800000000E+00 0. -1.
         22    1    1    2    0    0 -0.10703476105E+00  0.17794092251E+00  0.30470227307E+01  0.30540901973E+01  0.00000000000E+00 0.  1.
</event>
<event>
 5    1  0.3222854E+002  0.1494779E+01  0.7818608E-02  0.3476133E+00
         11   -1    0    0    0    0  0.00000000000E+00  0.00000000000E+00  0.39999999674E+01  0.40000000000E+01  0.51100000000E-03 0.  1.
    9000002   -1    0    0    0    0 -0.00000000000E+00 -0.00000000000E+00  0.00000000000E+00  0.93800000000E+00  0.93800000000E+00 0. -1.
         11    1    1    2    0    0  0.21238403922E+00 -0.13947378930E+00  0.87334357864E+00  0.90955438841E+00  0.51100000000E-03 0.  1.
    9000002    1    1    2    0    0  0.31507561569E+00 -0.99811578610E-01  0.16186811380E+00  0.10076111755E+01  0.93800000000E+00 0. -1.
         22    1    1    2    0    0 -0.52745965491E+00  0.23928536791E+00  0.29647882749E+01  0.30208344360E+01  0.00000000000E+00 0.  1.
</event>
<event>
 5    1  0.3222854E+002  0.1599677E+01  0.7818608E-02  0.3353714E+00
         11   -1    0    0    0    0  0.00000000000E+00  0.00000000000E+00  0.39999999674E+01  0.40000000000E+01  0.51100000000E-03 0.  1.
    9000002   -1    0    0    0    0 -0.00000000000E+00 -0.00000000000E+00  0.00000000000E+00  0.93800000000E+00  0.93800000000E+00 0. -1.
         11    1    1    2    0    0  0.26633300826E-02 -0.25015813804E+00  0.19804784489E+01  0.19962167556E+01  0.51100000000E-03 0.  1.
    9000002    1    1    2    0    0 -0.62640823872E-02  0.48561902865E+00  0.16108181983E+00  0.10684832392E+01  0.93800000000E+00 0. -1.
         22    1    1    2    0    0  0.36007523046E-02 -0.23546089062E+00  0.18584396986E+01  0.18733000053E+01  0.00000000000E+00 0. -1.
</event>
<event>
 5    1  0.3222854E+002  0.1596547E+01  0.7818608E-02  0.3357120E+00
         11   -1    0    0    0    0  0.00000000000E+00  0.00000000000E+00  0.39999999674E+01  0.40000000000E+01  0.51100000000E-03 0.  1.
    9000002   -1    0    0    0    0 -0.00000000000E+00 -0.00000000000E+00  0.00000000000E+00  0.93800000000E+00  0.93800000000E+00 0. -1.
         11    1    1    2    0    0  0.16535361883E-01 -0.18933006764E-02  0.44036963495E+00  0.44068433066E+00  0.51100000000E-03 0.  1.
    9000002    1    1    2    0    0  0.22663327226E+00 -0.46749630965E-01  0.37900310038E-01  0.96686534822E+00  0.93800000000E+00 0. -1.
         22    1    1    2    0    0 -0.24316863414E+00  0.48642931641E-01  0.35217300224E+01  0.35304503211E+01  0.00000000000E+00 0.  1.
</event>
<event>
 5    1  0.3222854E+002  0.1586941E+01  0.7818608E-02  0.3367660E+00
         11   -1    0    0    0    0  0.00000000000E+00  0.00000000000E+00  0.39999999674E+01  0.40000000000E+01  0.51100000000E-03 0.  1.
    9000002   -1    0    0    0    0 -0.00000000000E+00 -0.00000000000E+00  0.00000000000E+00  0.93800000000E+00  0.93800000000E+00 0. -1.
         11    1    1    2    0    0  0.50266550695E-01  0.55726781011E-01  0.56636670088E+00  0.57131751349E+00  0.51100000000E-03 0.  1.
    9000002    1    1    2    0    0  0.26205914701E+00 -0.13174746177E+00  0.67359004193E-01  0.98509574441E+00  0.93800000000E+00 0. -1.
         22    1    1    2    0    0 -0.31232569771E+00  0.76020680758E-01  0.33662742623E+01  0.33815867421E+01  0.00000000000E+00 0.  1.
</event>
<event>
 5    1  0.3222854E+002  0.1599676E+01  0.7818608E-02  0.3353715E+00
         11   -1    0    0    0    0  0.00000000000E+00  0.00000000000E+00  0.39999999674E+01  0.40000000000E+01  0.51100000000E-03 0.  1.
    9000002   -1    0    0    0    0 -0.00000000000E+00 -0.00000000000E+00  0.00000000000E+00  0.93800000000E+00  0.93800000000E+00 0.  1.
         11    1    1    2    0    0 -0.64320295116E-01 -0.59488822371E-02  0.97028725838E+00  0.97243514666E+00  0.51100000000E-03 0.  1.
    9000002    1    1    2    0    0  0.26529763396E+00  0.21841072048E-01  0.47132688072E-01  0.97617895762E+00  0.93800000000E+00 0.  1.
         22    1    1    2    0    0 -0.20097733884E+00 -0.15892189811E-01  0.29825800209E+01  0.29893858957E+01  0.00000000000E+00 0.  1.
</event>
<event>
 5    1  0.3222854E+002  0.1599398E+01  0.7818608E-02  0.3354017E+00
         11   -1    0    0    0    0  0.00000000000E+00  0.00000000000E+00  0.39999999674E+01  0.40000000000E+01  0.51100000000E-03 0.  1.
    9000002   -1    0    0    0    0 -0.00000000000E+00 -0.00000000000E+00  0.00000000000E+00  0.93800000000E+00  0.93800000000E+00 0.  1.
         11    1    1    2    0    0  0.58697501172E-03 -0.25540589656E-02  0.20963308985E-01  0.21132657227E-01  0.51100000000E-03 0.  1.
    9000002    1    1    2    0    0  0.29651483492E+00  0.12202354835E+00  0.68944027360E-01  0.99368409094E+00  0.93800000000E+00 0.  1.
         22    1    1    2    0    0 -0.29710180993E+00 -0.11946948938E+00  0.39100926310E+01  0.39231832518E+01  0.00000000000E+00 0.  1.
</event>
<event>
 5    1  0.3222854E+002  0.1599653E+01  0.7818608E-02  0.3353740E+00
         11   -1    0    0    0    0  0.00000000000E+00  0.00000000000E+00  0.39999999674E+01  0.40000000000E+01  0.51100000000E-03 0. -1.
    9000002   -1    0    0    0    0 -0.00000000000E+00 -0.00000000000E+00  0.00000000000E+00  0.93800000000E+00  0.93800000000E+00 0. -1.
         11    1    1    2    0    0 -0.40287816227E-02 -0.44385491922E-02  0.79203927397E-01  0.79432078132E-01  0.51100000000E-03 0. -1.
    9000002    1    1    2    0    0  0.17082407205E+00  0.14979491564E+00  0.34251371092E-01  0.96573108926E+00  0.93800000000E+00 0. -1.
         22    1    1    2    0    0 -0.16679529043E+00 -0.14535636644E+00  0.38865446689E+01  0.38928368326E+01  0.00000000000E+00 0. -1.
</event>
<event>
 5    1  0.3222854E+002  0.1599675E+01  0.7818608E-02  0.3353716E+00
         11   -1    0    0    0    0  0.00000000000E+00  0.00000000000E+00  0.39999999674E+01  0.40000000000E+01  0.51100000000E-03 0. -1.
    9000002   -1    0    0    0    0 -0.00000000000E+00 -0.00000000000E+00  0.00000000000E+00  0.93800000000E+00  0.93800000000E+00 0. -1.
         11    1    1    2    0    0 -0.12005451501E+00 -0.79046894285E-01  0.11644014717E+01  0.11732401913E+01  0.51100000000E-03 0. -1.
    9000002    1    1    2    0    0  0.39592738953E+00  0.25631382801E+00  0.15158714993E+00  0.10607911860E+01  0.93800000000E+00 0. -1.
         22    1    1    2    0    0 -0.27587287452E+00 -0.17726693373E+00  0.26840113457E+01  0.27039686227E+01  0.00000000000E+00 0. -1.
</event>
<event>
 5    1  0.3222854E+002  0.1599677E+01  0.7818608E-02  0.3353714E+00
         11   -1    0    0    0    0  0.00000000000E+00  0.00000000000E+00  0.39999999674E+01  0.40000000000E+01  0.51100000000E-03 0. -1.
    9000002   -1    0    0    0    0 -0.00000000000E+00 -0.00000000000E+00  0.00000000000E+00  0.93800000000E+00  0.93800000000E+00 0.  1.
         11    1    1    2    0    0 -0.29874538775E-01 -0.17901291522E+00  0.16752552836E+01  0.16850574584E+01  0.51100000000E-03 0. -1.
    9000002    1    1    2    0    0  0.67634175688E-01  0.41478242073E+00  0.11945258692E+00  0.10347616918E+01  0.93800000000E+00 0.  1.
         22    1    1    2    0    0 -0.37759636913E-01 -0.23576950552E+00  0.22052920968E+01  0.22181808498E+01  0.00000000000E+00 0. -1.
</event>
<event>
 5    1  0.3222854E+002  0.1599672E+01  0.7818608E-02  0.3353720E+00
         11   -1    0    0    0    0  0.00000000000E+00  0.00000000000E+00  0.39999999674E+01  0.40000000000E+01  0.51100000000E-03 0.  1.
    9000002   -1    0    0    0    0 -0.00000000000E+00 -0.00000000000E+00  0.00000000000E+00  0.93800000000E+00  0.93800000000E+00 0. -1.
         11    1    1    2    0    0 -0.10721534082E+00 -0.12156499868E-01  0.38594714193E+00  0.40074726110E+00  0.51100000000E-03 0.  1.
    9000002    1    1    2    0    0  0.91552979586E+00  0.97690994465E-01  0.65489913489E+00  0.14684941996E+01  0.93800000000E+00 0. -1.
         22    1    1    2    0    0 -0.80831445504E+00 -0.85534494596E-01  0.29591536905E+01  0.30687585393E+01  0.00000000000E+00 0.  1.
</event>
<event>
 5    1  0.3222854E+002  0.1599667E+01  0.7818608E-02  0.3353725E+00
         11   -1    0    0    0    0  0.00000000000E+00  0.00000000000E+00  0.39999999674E+01  0.40000000000E+01  0.51100000000E-03 0. -1.
    9000002   -1    0    0    0    0 -0.00000000000E+00 -0.00000000000E+00  0.00000000000E+00  0.93800000000E+00  0.93800000000E+00 0.  1.
         11    1    1    2    0    0 -0.11569374285E-01 -0.97219275150E-01  0.94363908305E+00  0.94870460000E+00  0.51100000000E-03 0. -1.
    9000002    1    1    2    0    0  0.55482917178E-01  0.39016723982E+00  0.10468860554E+00  0.10227964281E+01  0.93800000000E+00 0.  1.
         22    1    1    2    0    0 -0.43913542892E-01 -0.29294796467E+00  0.29516722788E+01  0.29664989719E+01  0.00000000000E+00 0. -1.
</event>
<event>
 5    1  0.3222854E+002  0.1599060E+01  0.7818608E-02  0.3354384E+00
         11   -1    0    0    0    0  0.00000000000E+00  0.00000000000E+00  0.39999999674E+01  0.40000000000E+01  0.51100000000E-03 0.  1.
    9000002   -1    0    0    0    0 -0.00000000000E+00 -0.00000000000E+00  0.00000000000E+00  0.93800000000E+00  0.93800000000E+00 0.  1.
         11    1    1    2    0    0  0.27210111657E+00  0.36369170743E+00  0.19773363967E+01  0.20288346810E+01  0.51100000000E-03 0.  1.
    9000002    1    1    2    0    0 -0.44693942741E+00 -0.62437084923E+00  0.43053232671E+00  0.12863887023E+01  0.93800000000E+00 0.  1.
         22    1    1    2    0    0  0.17483831084E+00  0.26067914180E+00  0.15921312439E+01  0.16227766167E+01  0.00000000000E+00 0.  1.
</event>
<event>
 5    1  0.3222854E+002  0.1586027E+01  0.7818608E-02  0.3368670E+00
         11   -1    0    0    0    0  0.00000000000E+00  0.00000000000E+00  0.39999999674E+01  0.40000000000E+01  0.51100000000E-03 0. -1.
    9000002   -1    0    0    0    0 -0.00000000000E+00 -0.00000000000E+00  0.00000000000E+00  0.93800000000E+00  0.93800000000E+00 0. -1.
         11    1    1    2    0    0 -0.33941584565E-01  0.22896027278E+00  0.17588001026E+01  0.17739653040E+01  0.51100000000E-03 0. -1.
    9000002    1    1    2    0    0 -0.19544142734E+00 -0.35583646713E+00  0.12275313644E+00  0.10294315302E+01  0.93800000000E+00 0. -1.
         22    1    1    2    0    0  0.22938301190E+00  0.12687619435E+00  0.21184467283E+01  0.21346031658E+01  0.00000000000E+00 0. -1.
</event>
<event>
 5    1  0.3222854E+002  0.1548164E+01  0.7818608E-02  0.3411620E+00
         11   -1    0    0    0    0  0.00000000000E+00  0.00000000000E+00  0.39999999674E+01  0.40000000000E+01  0.51100000000E-03 0. -1.
    9000002   -1    0    0    0    0 -0.00000000000E+00 -0.00000000000E+00  0.00000000000E+00  0.93800000000E+00  0.93800000000E+00 0. -1.
         11    1    1    2    0    0  0.28435176304E+00  0.96596304109E-01  0.28819779996E+01  0.28975824790E+01  0.51100000000E-03 0. -1.
    9000002    1    1    2    0    0 -0.11015117627E+00  0.48633238323E-01  0.48313003039E-01  0.94693010289E+00  0.93800000000E+00 0. -1.
         22    1    1    2    0    0 -0.17420058677E+00 -0.14522954243E+00  0.10697089647E+01  0.10934874181E+01  0.00000000000E+00 0.  1.
</event>
<event>
 5    1  0.3222854E+002  0.1598522E+01  0.7818608E-02  0.3354970E+00
         11   -1    0    0    0    0  0.00000000000E+00  0.00000000000E+00  0.39999999674E+01  0.40000000000E+01  0.51100000000E-03 0. -1.
    9000002   -1    0    0    0    0 -0.00000000000E+00 -0.00000000000E+00  0.00000000000E+00  0.93800000000E+00  0.93800000000E+00 0.  1.
         11    1    1    2    0    0 -0.25260611322E-01 -0.54809321345E-02  0.73837274546E+00  0.73882522390E+00  0.51100000000E-03 0. -1.
    9000002    1    1    2    0    0  0.94050993039E-01  0.19542089146E+00  0.32042921716E-01  0.96327860089E+00  0.93800000000E+00 0.  1.
         22    1    1    2    0    0 -0.68790381717E-01 -0.18993995932E+00  0.32295843002E+01  0.32358961752E+01  0.00000000000E+00 0. -1.
</event>
<event>
 5    1  0.3222854E+002  0.1599676E+01  0.7818608E-02  0.3353716E+00
         11   -1    0    0    0    0  0.00000000000E+00  0.00000000000E+00  0.39999999674E+01  0.40000000000E+01  0.51100000000E-03 0. -1.
    9000002   -1    0    0    0    0 -0.00000000000E+00 -0.00000000000E+00  0.00000000000E+00  0.93800000000E+00  0.93800000000E+00 0. -1.
         11    1    1    2    0    0  0.66720647579E-01 -0.76153399300E-01  0.12844781951E+01  0.12884624480E+01  0.51100000000E-03 0. -1.
    9000002    1    1    2    0    0 -0.20087503851E+00  0.23144684412E+00  0.62693380777E-01  0.98878353685E+00  0.93800000000E+00 0. -1.
         22    1    1    2    0    0  0.13415439093E+00 -0.15529344482E+00  0.26528283915E+01  0.26607540152E+01  0.00000000000E+00 0. -1.
</event>
<event>
 5    1  0.3222854E+002  0.1556935E+01  0.7818608E-02  0.3401474E+00
         11   -1    0    0    0    0  0.00000000000E+00  0.00000000000E+00  0.39999999674E+01  0.40000000000E+01  0.51100000000E-03 0.  1.
    9000002   -1    0    0    0    0 -0.00000000000E+00 -0.00000000000E+00  0.00000000000E+00  0.93800000000E+00  0.93800000000E+00 0. -1.
         11    1    1    2    0    0  0.73178704887E-01  0.49634171447E-02  0.80886797268E-01  0.10919108687E+00  0.51100000000E-03 0.  1.
    9000002    1    1    2    0    0  0.11388059542E+00  0.86068201165E+00  0.63459865233E+00  0.14269904571E+01  0.93800000000E+00 0. -1.
         22    1    1    2    0    0 -0.18705930030E+00 -0.86564542880E+00  0.32845145178E+01  0.34018184560E+01  0.00000000000E+00 0.  1.
</event>
<event>
 5    1  0.3222854E+002  0.1599489E+01  0.7818608E-02  0.3353919E+00
         11   -1    0    0    0    0  0.00000000000E+00  0.00000000000E+00  0.39999999674E+01  0.40000000000E+01  0.51100000000E-03 0. -1.
    9000002   -1    0    0    0    0 -0.00000000000E+00 -0.00000000000E+00  0.00000000000E+00  0.93800000000E+00  0.93800000000E+00 0. -1.
         11    1    1    2    0    0  0.24645213586E-01  0.35542560049E-01  0.60661188976E+00  0.60815204189E+00  0.51100000000E-03 0. -1.
    9000002    1    1    2    0    0 -0.19160039637E+00 -0.16066895548E+00  0.41678998906E-01  0.97165135933E+00  0.93800000000E+00 0. -1.
         22    1    1    2    0    0  0.16695518278E+00  0.12512639543E+00  0.33517090787E+01  0.33581965988E+01  0.00000000000E+00 0. -1.
</event>
<event>
 5    1  0.3222854E+002  0.1598866E+01  0.7818608E-02  0.3354595E+00
         11   -1    0    0    0    0  0.00000000000E+00  0.00000000000E+00  0.39999999674E+01  0.40000000000E+01  0.51100000000E-03 0. -1.
    9000002   -1    0    0    0    0 -0.00000000000E+00 -0.00000000000E+00  0.00000000000E+00  0.93800000000E+00  0.93800000000E+00 0. -1.
         11    1    1    2    0    0  0.12394330287E-01 -0.74777891247E-02  0.32542804795E+00  0.32575022988E+00  0.51100000000E-03 0. -1.
    9000002    1    1    2    0    0  0.51719662788E-01  0.19802828053E+00  0.28348984940E-01  0.96048830725E+00  0.93800000000E+00 0. -1.
         22    1    1    2    0    0 -0.64113993075E-01 -0.19055049140E+00  0.36462229345E+01  0.36517614629E+01  0.00000000000E+00 0. -1.
</event>
<event>
 5    1  0.3222854E+002  0.1599672E+01  0.7818608E-02  0.3353719E+00
         11   -1    0    0    0    0  0.00000000000E+00  0.00000000000E+00  0.39999999674E+01  0.40000000000E+01  0.51100000000E-03 0.  1.
    9000002   -1    0    0    0    0 -0.00000000000E+00 -0.00000000000E+00  0.00000000000E+00  0.93800000000E+00  0.93800000000E+00 0. -1.
         11    1    1    2    0    0  0.19700458220E-01 -0.15795974300E-02  0.33911791591E+00  0.33969372263E+00  0.51100000000E-03 0.  1.
    9000002    1    1    2    0    0 -0.21958607415E+00  0.30861693455E-01  0.32600680573E-01  0.96440514954E+00  0.93800000000E+00 0. -1.
         22    1    1    2    0    0  0.19988561593E+00 -0.29282096025E-01  0.36282813709E+01  0.36339011278E+01  0.00000000000E+00 0.  1.
</event>
<event>
 5    1  0.3222854E+002  0.1599667E+01  0.7818608E-02  0.3353725E+00
         11   -1    0    0    0    0  0.00000000000E+00  0.00000000000E+00  0.39999999674E+01  0.40000000000E+01  0.51100000000E-03 0.  1.
    9000002   -1    0    0    0    0 -0.00000000000E+00 -0.00000000000E+00  0.00000000000E+00  0.93800000000E+00  0.93800000000E+00 0.  1.
         11    1    1    2    0    0 -0.45737994796E-02  0.10185815889E-01  0.92287779991E-01  0.92962174801E-01  0.51100000000E-03 0.  1.
    9000002    1    1    2    0    0  0.23391070514E+00 -0.41109685489E+00  0.15248477968E+00  0.10615132831E+01  0.93800000000E+00 0.  1.
         22    1    1    2    0    0 -0.22933690566E+00  0.40091103900E+00  0.37552274077E+01  0.37835245421E+01  0.00000000000E+00 0.  1.
</event>
<event>
 5    1  0.3222854E+002  0.1597808E+01  0.7818608E-02  0.3355746E+00
         11   -1    0    0    0    0  0.00000000000E+00  0.00000000000E+00  0.39999999674E+01  0.40000000000E+01  0.51100000000E-03 0.  1.
    9000002   -1    0    0    0    0 -0.00000000000E+00 -0.00000000000E+00  0.00000000000E+00  0.93800000000E+00  0.93800000000E+00 0. -1.
         11    1    1    2    0    0  0.18488376727E-01  0.67608461179E-01  0.48254167948E+00  0.48760584252E+00  0.51100000000E-03 0.  1.
    9000002    1    1    2    0    0 -0.20792402807E-01 -0.30385162449E+00  0.63374518034E-01  0.98824008381E+00  0.93800000000E+00 0. -1.
         22    1    1    2    0    0  0.23040260797E-02  0.23624316331E+00  0.34540837698E+01  0.34621540737E+01  0.00000000000E+00 0.  1.
</event>
<event>
 5    1  0.3222854E+002  0.1543127E+01  0.7818608E-02  0.3417504E+00
         11   -1    0    0    0    0  0.00000000000E+00  0.00000000000E+00  0.39999999674E+01  0.40000000000E+01  0.51100000000E-03 0.  1.
    9000002   -1    0    0    0    0 -0.00000000000E+00 -0.00000000000E+00  0.00000000000E+00  0.93800000000E+00  0.93800000000E+00 0. -1.
         11    1    1    2    0    0  0.18733553769E-01  0.47180533171E-01  0.23269022801E+01  0.23274559998E+01  0.51100000000E-03 0.  1.
    9000002    1    1    2    0    0  0.43189990627E+00 -0.51037538876E-01  0.17815599683E+00  0.10491548592E+01  0.93800000000E+00 0. -1.
         22    1    1    2    0    0 -0.45063346003E+00  0.38570057058E-02  0.14949416904E+01  0.15613891409E+01  0.00000000000E+00 0.  1.
</event>
<event>
 5    1  0.3222854E+002  0.1599661E+01  0.7818608E-02  0.3353731E+00
         11   -1    0    0    0    0  0.00000000000E+00  0.00000000000E+00  0.39999999674E+01  0.40000000000E+01  0.51100000000E-03 0.  1.
    9000002   -1    0    0    0    0 -0.00000000000E+00 -0.00000000000E+00  0.00000000000E+00  0.93800000000E+00  0.93800000000E+00 0.  1.
         11    1    1    2    0    0  0.46573482538E-01  0.51642410421E-01  0.62082233005E+00  0.62470525405E+00  0.51100000000E-03 0.  1.
    9000002    1    1    2    0    0 -0.29744461647E+00 -0.34170378762E+00  0.13946860205E+00  0.10509663502E+01  0.93800000000E+00 0.  1.
         22    1    1    2    0    0  0.25087113394E+00  0.29006137720E+00  0.32397090353E+01  0.32623283957E+01  0.00000000000E+00 0.  1.
</event>
<event>
 5    1  0.4710172E+002  0.1585487E+01  0.7818608E-02  0.3369268E+00
         11   -1    0    0    0    0  0.00000000000E+00  0.00000000000E+00  0.39999999674E+01  0.40000000000E+01  0.51100000000E-03 0.  1.
    9000002   -1    0    0    0    0 -0.00000000000E+00 -0.00000000000E+00  0.00000000000E+00  0.93800000000E+00  0.93800000000E+00 0.  1.
         11    1    1    2    0    0 -0.28101937083E-01  0.10818976933E+00  0.15214701518E+01  0.15255708535E+01  0.51100000000E-03 0.  1.
    9000002    1    1    2    0    0  0.11314868048E+00  0.79213784490E-01  0.23106156103E-01  0.94839619463E+00  0.93800000000E+00 0.  1.
         22    1    1    2    0    0 -0.85046743395E-01 -0.18740355382E+00  0.24554236594E+01  0.24640329519E+01  0.00000000000E+00 0.  1.
</event>
<event>
 5    1  0.3222854E+002  0.1599672E+01  0.7818608E-02  0.3353719E+00
         11   -1    0    0    0    0  0.00000000000E+00  0.00000000000E+00  0.39999999674E+01  0.40000000000E+01  0.51100000000E-03 0. -1.
    9000002   -1    0    0    0    0 -0.00000000000E+00 -0.00000000000E+00  0.00000000000E+00  0.93800000000E+00  0.93800000000E+00 0. -1.
         11    1    1    2    0    0 -0.36519047063E-01  0.55907942031E-01  0.10206422178E+01  0.10228245874E+01  0.51100000000E-03 0. -1.
    9000002    1    1    2    0    0  0.14637754842E+00 -0.22392216116E+00  0.47611518923E-01  0.97656457937E+00  0.93800000000E+00 0. -1.
         22    1    1    2    0    0 -0.10985850135E+00  0.16801421913E+00  0.29317462307E+01  0.29386108332E+01  0.00000000000E+00 0. -1.
</event>
<event>
 5    1  0.3222854E+002  0.1599675E+01  0.7818608E-02  0.3353716E+00
         11   -1    0    0    0    0  0.00000000000E+00  0.00000000000E+00  0.39999999674E+01  0.40000000000E+01  0.51100000000E-03 0.  1.
    9000002   -1    0    0    0    0 -0.00000000000E+00 -0.00000000000E+00  0.00000000000E+00  0.93800000000E+00  0.93800000000E+00 0.  1.
         11    1    1    2    0    0 -0.13966157718E-01 -0.92141383284E-02  0.25840515820E+00  0.25894679147E+00  0.51100000000E-03 0.  1.
    9000002    1    1    2    0    0  0.22352436823E+00  0.13634994831E+00  0.45583878523E-01  0.97492376193E+00  0.93800000000E+00 0.  1.
         22    1    1    2    0    0 -0.20955821052E+00 -0.12713580998E+00  0.36960109306E+01  0.37041294466E+01  0.00000000000E+00 0.  1.
</event>
<event>
 5    1  0.3222854E+002  0.1532310E+01  0.7818608E-02  0.3430276E+00
         11   -1    0    0    0    0  0.00000000000E+00  0.00000000000E+00  0.39999999674E+01  0.40000000000E+01  0.51100000000E-03 0.  1.
    9000002   -1    0    0    0    0 -0.00000000000E+00 -0.00000000000E+00  0.00000000000E+00  0.93800000000E+00  0.93800000000E+00 0. -1.
         11    1    1    2    0    0  0.21176449086E+00  0.48107555133E-01  0.67151555242E+00  0.70575628564E+00  0.51100000000E-03 0.  1.
    9000002    1    1    2    0    0  0.10122833360E+00  0.57971574200E-01  0.60036580999E-01  0.94713054538E+00  0.93800000000E+00 0. -1.
         22    1    1    2    0    0 -0.31299282445E+00 -0.10607912933E+00  0.32684478339E+01  0.32851131690E+01  0.00000000000E+00 0.  1.
</event>
<event>
 5    1  0.3222854E+002  0.1599677E+01  0.7818608E-02  0.3353714E+00
         11   -1    0    0    0    0  0.00000000000E+00  0.00000000000E+00  0.39999999674E+01  0.40000000000E+01  0.51100000000E-03 0.  1.
    9000002   -1    0    0    0    0 -0.00000000000E+00 -0.00000000000E+00  0.00000000000E+00  0.93800000000E+00  0.93800000000E+00 0.  1.
         11    1    1    2    0    0 -0.33635336192E-02  0.22103015006E+00  0.19974114977E+01  0.20096065767E+01  0.51100000000E-03 0.  1.
    9000002    1    1    2    0    0  0.56651372263E-02 -0.42935795591E+00  0.12485875649E+00  0.10391410189E+01  0.93800000000E+00 0.  1.
         22    1    1    2    0    0 -0.23016036070E-02  0.20832780585E+00  0.18777297131E+01  0.18892524044E+01  0.00000000000E+00 0.  1.
</event>
<event>
 5    1  0.3222854E+002  0.1588835E+01  0.7818608E-02  0.3365572E+00
         11   -1    0    0    0    0  0.00000000000E+00  0.00000000000E+00  0.39999999674E+01  0.40000000000E+01  0.51100000000E-03 0. -1.
    9000002   -1    0    0    0    0 -0.00000000000E+00 -0.00000000000E+00  0.00000000000E+00  0.93800000000E+00  0.93800000000E+00 0.  1.
         11    1    1    2    0    0 -0.10322151604E+00  0.44760671651E-01  0.40272348854E+00  0.41814431533E+00  0.51100000000E-03 0. -1.
    9000002    1    1    2    0    0  0.33894803158E+00 -0.83880589103E-01  0.90519861166E-01  0.10049674455E+01  0.93800000000E+00 0.  1.
         22    1    1    2    0    0 -0.23572651555E+00  0.39119917452E-01  0.35067566177E+01  0.35148882391E+01  0.00000000000E+00 0. -1.
</event>
<event>
 5    1  0.3222854E+002  0.1599675E+01  0.7818608E-02  0.3353716E+00
         11   -1    0    0    0    0  0.00000000000E+00  0.00000000000E+00  0.39999999674E+01  0.40000000000E+01  0.51100000000E-03 0. -1.
    9000002   -1    0    0    0    0 -0.00000000000E+00 -0.00000000000E+00  0.00000000000E+00  0.93800000000E+00  0.93800000000E+00 0. -1.
         11    1    1    2    0    0  0.75465793053E-02 -0.63959677909E-02  0.17820075421E+00  0.17847585043E+00  0.51100000000E-03 0.  1.
    9000002    1    1    2    0    0 -0.15924075397E+00  0.14260308790E+00  0.30276999231E-01  0.96252478154E+00  0.93800000000E+00 0. -1.
         22    1    1    2    0    0  0.15169417466E+00 -0.13620712011E+00  0.37915222139E+01  0.37969993680E+01  0.00000000000E+00 0. -1.
</event>
<event>
 5    1  0.3222854E+002  0.1599629E+01  0.7818608E-02  0.3353766E+00
         11   -1    0    0    0    0  0.00000000000E+00  0.00000000000E+00  0.39999999674E+01  0.40000000000E+01  0.51100000000E-03 0.  1.
    9000002   -1    0    0    0    0 -0.00000000000E+00 -0.00000000000E+00  0.00000000000E+00  0.93800000000E+00  0.93800000000E+00 0. -1.
         11    1    1    2    0    0  0.88761067406E-02  0.97068006975E-02  0.16250675347E+00  0.16303899317E+00  0.51100000000E-03 0.  1.
    9000002    1    1    2    0    0 -0.16211870030E+00 -0.17754849106E+00  0.38409091139E-01  0.96908472176E+00  0.93800000000E+00 0. -1.
         22    1    1    2    0    0  0.15324259356E+00  0.16784169036E+00  0.37990841228E+01  0.38058762851E+01  0.00000000000E+00 0.  1.
</event>
<event>
 5    1  0.3222854E+002  0.1599674E+01  0.7818608E-02  0.3353717E+00
         11   -1    0    0    0    0  0.00000000000E+00  0.00000000000E+00  0.39999999674E+01  0.40000000000E+01  0.51100000000E-03 0. -1.
    9000002   -1    0    0    0    0 -0.00000000000E+00 -0.00000000000E+00  0.00000000000E+00  0.93800000000E+00  0.93800000000E+00 0.  1.
         11    1    1    2    0    0  0.84108194433E-01 -0.73501975269E-02  0.78678719192E+00  0.79130434112E+00  0.51100000000E-03 0. -1.
    9000002    1    1    2    0    0 -0.40862017569E+00  0.39456777693E-01  0.11383312387E+00  0.10302083602E+01  0.93800000000E+00 0.  1.
         22    1    1    2    0    0  0.32451198125E+00 -0.32106580166E-01  0.30993796516E+01  0.31164872987E+01  0.00000000000E+00 0. -1.
</event>
<event>
 5    1  0.3222854E+002  0.1599677E+01  0.7818608E-02  0.3353714E+00
         11   -1    0    0    0    0  0.00000000000E+00  0.00000000000E+00  0.39999999674E+01  0.40000000000E+01  0.51100000000E-03 0. -1.
    9000002   -1    0    0    0    0 -0.00000000000E+00 -0.00000000000E+00  0.00000000000E+00  0.93800000000E+00  0.93800000000E+00 0. -1.
         11    1    1    2    0    0 -0.12748823257E-01  0.53945541322E-01  0.75709582610E+00  0.75912252301E+00  0.51100000000E-03 0. -1.
    9000002    1    1    2    0    0  0.66502538182E-01 -0.28251785956E+00  0.56146824064E-01  0.98348126287E+00  0.93800000000E+00 0. -1.
         22    1    1    2    0    0 -0.53753714925E-01  0.22857231824E+00  0.31867573172E+01  0.31953962141E+01  0.00000000000E+00 0. -1.
</event>
<event>
 5    1  0.3222854E+002  0.1593412E+01  0.7818608E-02  0.3360545E+00
         11   -1    0    0    0    0  0.00000000000E+00  0.00000000000E+00  0.39999999674E+01  0.40000000000E+01  0.51100000000E-03 0.  1.
    9000002   -1    0    0    0    0 -0.00000000000E+00 -0.00000000000E+00  0.00000000000E+00  0.93800000000E+00  0.93800000000E+00 0.  1.
         11    1    1    2    0    0  0.42845620393E-01  0.74484307254E-02  0.15827010567E+00  0.16413687513E+00  0.51100000000E-03 0.  1.
    9000002    1    1    2    0    0 -0.12853799010E+00 -0.20475638846E+00  0.43587993793E-01  0.96963452224E+00  0.93800000000E+00 0.  1.
         22    1    1    2    0    0  0.85692369710E-01  0.19730795774E+00  0.37981418679E+01  0.38042286026E+01  0.00000000000E+00 0.  1.
</event>
<event>
 5    1  0.3222854E+002  0.1597242E+01  0.7818608E-02  0.3356362E+00
         11   -1    0    0    0    0  0.00000000000E+00  0.00000000000E+00  0.39999999674E+01  0.40000000000E+01  0.51100000000E-03 0. -1.
    9000002   -1    0    0    0    0 -0.00000000000E+00 -0.00000000000E+00  0.00000000000E+00  0.93800000000E+00  0.93800000000E+00 0. -1.
         11    1    1    2    0    0  0.47429976912E-01  0.11668896565E+00  0.20404809086E+01  0.20443650645E+01  0.51100000000E-03 0. -1.
    9000002    1    1    2    0    0 -0.15034690882E+00 -0.32140111164E+00  0.86433203759E-01  0.10065870883E+01  0.93800000000E+00 0. -1.
         22    1    1    2    0    0  0.10291693191E+00  0.20471214599E+00  0.18730858550E+01  0.18870478472E+01  0.00000000000E+00 0.  1.
</event>
<event>
 5    1  0.3222854E+002  0.1455764E+01  0.7818608E-02  0.3526511E+00
         11   -1    0    0    0    0  0.00000000000E+00  0.00000000000E+00  0.39999999674E+01  0.40000000000E+01  0.51100000000E-03 0.  1.
    9000002   -1    0    0    0    0 -0.00000000000E+00 -0.00000000000E+00  0.00000000000E+00  0.93800000000E+00  0.93800000000E+00 0. -1.
         11    1    1    2    0    0 -0.13736144160E+00  0.18273702192E+00  0.17443466265E+00  0.28755642485E+00  0.51100000000E-03 0.  1.
    9000002    1    1    2    0    0 -0.31451380338E+00 -0.24422578618E+00  0.25442864299E+00  0.10503061942E+01  0.93800000000E+00 0. -1.
         22    1    1    2    0    0  0.45187524499E+00  0.61488764258E-01  0.35711366617E+01  0.36001373810E+01  0.00000000000E+00 0.  1.
</event>
<event>
 5    1  0.3222854E+002  0.1599677E+01  0.7818608E-02  0.3353714E+00
         11   -1    0    0    0    0  0.00000000000E+00  0.00000000000E+00  0.39999999674E+01  0.40000000000E+01  0.51100000000E-03 0. -1.
    9000002   -1    0    0    0    0 -0.00000000000E+00 -0.00000000000E+00  0.00000000000E+00  0.93800000000E+00  0.93800000000E+00 0.  1.
         11    1    1    2    0    0  0.15145445194E+00  0.38051118282E-01  0.13447471885E+01  0.13537841780E+01  0.51100000000E-03 0.  1.
    9000002    1    1    2    0    0 -0.43534054229E+00 -0.10880584810E+00  0.13673509819E+00  0.10487614540E+01  0.93800000000E+00 0.  1.
         22    1    1    2    0    0  0.28388609035E+00  0.70754729818E-01  0.25185176807E+01  0.25354543680E+01  0.00000000000E+00 0. -1.
</event>
<event>
 5    1  0.3222854E+002  0.1560369E+01  0.7818608E-02  0.3397534E+00
         11   -1    0    0    0    0  0.00000000000E+00  0.00000000000E+00  0.39999999674E+01  0.40000000000E+01  0.51100000000E-03 0. -1.
    9000002   -1    0    0    0    0 -0.00000000000E+00 -0.00000000000E+00  0.00000000000E+00  0.93800000000E+00  0.93800000000E+00 0.  1.
         11    1    1    2    0    0  0.24157159387E+00  0.12359722445E+00  0.16760516556E+01  0.16978758854E+01  0.51100000000E-03 0. -1.
    9000002    1    1    2    0    0 -0.26010552396E+00  0.17159693393E+00  0.96478135479E-01  0.99310242269E+00  0.93800000000E+00 0.  1.
         22    1    1    2    0    0  0.18533930091E-01 -0.29519415837E+00  0.22274701763E+01  0.22470216919E+01  0.00000000000E+00 0. -1.
</event>
<event>
 5    1  0.3222854E+002  0.1597751E+01  0.7818608E-02  0.3355808E+00
         11   -1    0    0    0    0  0.00000000000E+00  0.00000000000E+00  0.39999999674E+01  0.40000000000E+01  0.51100000000E-03 0.  1.
    9000002   -1    0    0    0    0 -0.00000000000E+00 -0.00000000000E+00  0.00000000000E+00  0.93800000000E+00  0.93800000000E+00 0.  1.
         11    1    1    2    0    0 -0.20380619649E+00 -0.39546023515E-01  0.23990117130E+01  0.24079780551E+01  0.51100000000E-03 0.  1.
    9000002    1    1    2    0    0  0.41168412617E+00  0.79232444130E-01  0.12048267135E+00  0.10344668550E+01  0.93800000000E+00 0.  1.
         22    1    1    2    0    0 -0.20787792968E+00 -0.39686420615E-01  0.14805055831E+01  0.14955550900E+01  0.00000000000E+00 0.  1.
</event>
<event>
 5    1  0.3222854E+002  0.1599675E+01  0.7818608E-02  0.3353717E+00
         11   -1    0    0    0    0  0.00000000000E+00  0.00000000000E+00  0.39999999674E+01  0.40000000000E+01  0.51100000000E-03 0. -1.
    9000002   -1    0    0    0    0 -0.00000000000E+00 -0.00000000000E+00  0.00000000000E+00  0.93800000000E+00  0.93800000000E+00 0. -1.
         11    1    1    2    0    0 -0.12017895013E+00  0.75411349040E-01  0.12440164200E+01  0.12520810541E+01  0.51100000000E-03 0. -1.
    9000002    1    1    2    0    0  0.37030036638E+00 -0.23861757853E+00  0.13162323139E+00  0.10446192537E+01  0.93800000000E+00 0. -1.
         22    1    1    2    0    0 -0.25012141625E+00  0.16320622949E+00  0.26243603160E+01  0.26412996922E+01  0.00000000000E+00 0. -1.
</event>
<event>
 5    1  0.3222854E+002  0.1599621E+01  0.7818608E-02  0.3353775E+00
         11   -1    0    0    0    0  0.00000000000E+00  0.00000000000E+00  0.39999999674E+01  0.40000000000E+01  0.51100000000E-03 0. -1.
    9000002   -1    0    0    0    0 -0.00000000000E+00 -0.00000000000E+00  0.00000000000E+00  0.93800000000E+00  0.93800000000E+00 0. -1.
         11    1    1    2    0    0  0.17606489910E-01  0.68736192728E-02  0.36453302039E+00  0.36502303928E+00  0.51100000000E-03 0. -1.
    9000002    1    1    2    0    0 -0.18058349158E+00 -0.12999994380E+00  0.32866186211E-01  0.96459036332E+00  0.93800000000E+00 0. -1.
         22    1    1    2    0    0  0.16297700167E+00  0.12312632453E+00  0.36026007608E+01  0.36083865974E+01  0.00000000000E+00 0. -1.
</event>
<event>
 5    1  0.3222854E+002  0.1599670E+01  0.7818608E-02  0.3353722E+00
         11   -1    0    0    0    0  0.00000000000E+00  0.00000000000E+00  0.39999999674E+01  0.40000000000E+01  0.51100000000E-03 0.  1.
    9000002   -1    0    0    0    0 -0.00000000000E+00 -0.00000000000E+00  0.00000000000E+00  0.93800000000E+00  0.93800000000E+00 0.  1.
         11    1    1    2    0    0 -0.25469867838E-01 -0.14474399676E-02  0.39331983415E+00  0.39414662540E+00  0.51100000000E-03 0.  1.
    9000002    1    1    2    0    0  0.24370919265E+00  0.80674206570E-03  0.39442003820E-01  0.96994561347E+00  0.93800000000E+00 0.  1.
         22    1    1    2    0    0 -0.21823932481E+00  0.64069790188E-03  0.35672381294E+01  0.35739077611E+01  0.00000000000E+00 0.  1.
</event>
<event>
 5    1  0.3222854E+002  0.1599598E+01  0.7818608E-02  0.3353800E+00
         11   -1    0    0    0    0  0.00000000000E+00  0.00000000000E+00  0.39999999674E+01  0.40000000000E+01  0.51100000000E-03 0. -1.
    9000002   -1    0    0    0    0 -0.00000000000E+00 -0.00000000000E+00  0.00000000000E+00  0.93800000000E+00  0.93800000000E+00 0.  1.
         11    1    1    2    0    0  0.10485127538E-02 -0.50189071358E-01  0.28622350853E+00  0.29059284268E+00  0.51100000000E-03 0. -1.
    9000002    1    1    2    0    0  0.43226013885E-01  0.68914395662E+00  0.33997538319E+00  0.12133487307E+01  0.93800000000E+00 0.  1.
         22    1    1    2    0    0 -0.44274526639E-01 -0.63895488527E+00  0.33738010756E+01  0.34340584266E+01  0.00000000000E+00 0. -1.
</event>
<event>
 5    1  0.3222854E+002  0.1599005E+01  0.7818608E-02  0.3354444E+00
         11   -1    0    0    0    0  0.00000000000E+00  0.00000000000E+00  0.39999999674E+01  0.40000000000E+01  0.51100000000E-03 0. -1.
    9000002   -1    0    0    0    0 -0.00000000000E+00 -0.00000000000E+00  0.00000000000E+00  0.93800000000E+00  0.93800000000E+00 0.  1.
         11    1    1    2    0    0  0.31717419139E-01  0.33787323128E-01  0.53871545354E+00  0.54070526065E+00  0.51100000000E-03 0. -1.
    9000002    1    1    2    0    0 -0.15300787364E+00 -0.37973385439E+00  0.11375734383E+00  0.10297543119E+01  0.93800000000E+00 0.  1.
         22    1    1    2    0    0  0.12129045450E+00  0.34594653126E+00  0.33475271700E+01  0.33675404275E+01  0.00000000000E+00 0. -1.
</event>
<event>
 5    1  0.3222854E+002  0.1599676E+01  0.7818608E-02  0.3353715E+00
         11   -1    0    0    0    0  0.00000000000E+00  0.00000000000E+00  0.39999999674E+01  0.40000000000E+01  0.51100000000E-03 0. -1.
    9000002   -1    0    0    0    0 -0.00000000000E+00 -0.00000000000E+00  0.00000000000E+00  0.93800000000E+00  0.93800000000E+00 0. -1.
         11    1    1    2    0    0 -0.10390672516E-01  0.44894444825E-01  0.27928498051E+00  0.28306154580E+00  0.51100000000E-03 0. -1.
    9000002    1    1    2    0    0  0.14194223669E+00 -0.60195672605E+00  0.26794842164E+00  0.11550497198E+01  0.93800000000E+00 0. -1.
         22    1    1    2    0    0 -0.13155156417E+00  0.55706228123E+00  0.34527665652E+01  0.34998887344E+01  0.00000000000E+00 0. -1.
</event>
<event>
 5    1  0.3222854E+002  0.1599674E+01  0.7818608E-02  0.3353717E+00
         11   -1    0    0    0    0  0.00000000000E+00  0.00000000000E+00  0.39999999674E+01  0.40000000000E+01  0.51100000000E-03 0. -1.
    9000002   -1    0    0    0    0 -0.00000000000E+00 -0.00000000000E+00  0.00000000000E+00  0.93800000000E+00  0.93800000000E+00 0. -1.
         11    1    1    2    0    0  0.84435003187E-01  0.25569976973E-01  0.11534369319E+01  0.11568059952E+01  0.51100000000E-03 0. -1.
    9000002    1    1    2    0    0 -0.29329987757E+00 -0.90333580059E-01  0.62874770516E-01  0.98892983100E+00  0.93800000000E+00 0. -1.
         22    1    1    2    0    0  0.20886487439E+00  0.64763603086E-01  0.27836882649E+01  0.27922641738E+01  0.00000000000E+00 0. -1.
</event>
<event>
 5    1  0.3222854E+002  0.1599585E+01  0.7818608E-02  0.3353814E+00
         11   -1    0    0    0    0  0.00000000000E+00  0.00000000000E+00  0.39999999674E+01  0.40000000000E+01  0.51100000000E-03 0.  1.
    9000002   -1    0    0    0    0 -0.00000000000E+00 -0.00000000000E+00  0.00000000000E+00  0.93800000000E+00  0.93800000000E+00 0.  1.
         11    1    1    2    0    0 -0.11427940059E-01  0.37232765241E-02  0.15109815044E+00  0.15157629362E+00  0.51100000000E-03 0.  1.
    9000002    1    1    2    0    0  0.18628743964E+00 -0.11833781287E+00  0.32357046783E-01  0.96415653636E+00  0.93800000000E+00 0.  1.
         22    1    1    2    0    0 -0.17485949958E+00  0.11461453634E+00  0.38165447701E+01  0.38222671700E+01  0.00000000000E+00 0.  1.
</event>
<event>
 5    1  0.3222854E+002  0.1596842E+01  0.7818608E-02  0.3356798E+00
         11   -1    0    0    0    0  0.00000000000E+00  0.00000000000E+00  0.39999999674E+01  0.40000000000E+01  0.51100000000E-03 0.  1.
    9000002   -1    0    0    0    0 -0.00000000000E+00 -0.00000000000E+00  0.00000000000E+00  0.93800000000E+00  0.93800000000E+00 0. -1.
         11    1    1    2    0    0  0.23629579764E+00 -0.16601343313E+00  0.12670705365E+01  0.12995630687E+01  0.51100000000E-03 0.  1.
    9000002    1    1    2    0    0 -0.65776575290E+00  0.29961185922E+00  0.37900194028E+00  0.12433460993E+01  0.93800000000E+00 0. -1.
         22    1    1    2    0    0  0.42146995526E+00 -0.13359842609E+00  0.23539274906E+01  0.23950908320E+01  0.00000000000E+00 0.  1.
</event>
<event>
 5    1  0.3222854E+002  0.1599673E+01  0.7818608E-02  0.3353719E+00
         11   -1    0    0    0    0  0.00000000000E+00  0.00000000000E+00  0.39999999674E+01  0.40000000000E+01  0.51100000000E-03 0. -1.
    9000002   -1    0    0    0    0 -0.00000000000E+00 -0.00000000000E+00  0.00000000000E+00  0.93800000000E+00  0.93800000000E+00 0. -1.
         11    1    1    2    0    0  0.59602192797E-02  0.74900826143E-02  0.15193394239E+00  0.15223603227E+00  0.51100000000E-03 0. -1.
    9000002    1    1    2    0    0 -0.13484548374E+00 -0.20236374272E+00  0.39265441729E-01  0.96980418836E+00  0.93800000000E+00 0. -1.
         22    1    1    2    0    0  0.12888526446E+00  0.19487366011E+00  0.38088005832E+01  0.38159597794E+01  0.00000000000E+00 0. -1.
</event>
<event>
 5    1  0.3222854E+002  0.1599666E+01  0.7818608E-02  0.3353726E+00
         11   -1    0    0    0    0  0.00000000000E+00  0.00000000000E+00  0.39999999674E+01  0.40000000000E+01  0.51100000000E-03 0. -1.
    9000002   -1    0    0    0    0 -0.00000000000E+00 -0.00000000000E+00  0.00000000000E+00  0.93800000000E+00  0.93800000000E+00 0.  1.
         11    1    1    2    0    0 -0.46093497680E-01  0.80526408397E-01  0.11320011388E+01  0.11357974962E+01  0.51100000000E-03 0. -1.
    9000002    1    1    2    0    0  0.17078077029E+00 -0.28517645407E+00  0.73954741742E-01  0.99790028825E+00  0.93800000000E+00 0.  1.
         22    1    1    2    0    0 -0.12468727261E+00  0.20465004567E+00  0.27940440868E+01  0.28043022155E+01  0.00000000000E+00 0. -1.
</event>
<event>
 5    1  0.3222854E+002  0.1599336E+01  0.7818608E-02  0.3354084E+00
         11   -1    0    0    0    0  0.00000000000E+00  0.00000000000E+00  0.39999999674E+01  0.40000000000E+01  0.51100000000E-03 0.  1.
    9000002   -1    0    0    0    0 -0.00000000000E+00 -0.00000000000E+00  0.00000000000E+00  0.93800000000E+00  0.93800000000E+00 0.  1.
         11    1    1    2    0    0 -0.37792481437E-01 -0.15801560493E-01  0.79190820323E+00  0.79296710173E+00  0.51100000000E-03 0.  1.
    9000002    1    1    2    0    0  0.25481846424E+00  0.13739987163E+00  0.56123150046E-01  0.98326241788E+00  0.93800000000E+00 0.  1.
         22    1    1    2    0    0 -0.21702598280E+00 -0.12159831114E+00  0.31519686141E+01  0.31617704804E+01  0.00000000000E+00 0.  1.
</event>
<event>
 5    1  0.3222854E+002  0.1599662E+01  0.7818608E-02  0.3353730E+00
         11   -1    0    0    0    0  0.00000000000E+00  0.00000000000E+00  0.39999999674E+01  0.40000000000E+01  0.51100000000E-03 0. -1.
    9000002   -1    0    0    0    0 -0.00000000000E+00 -0.00000000000E+00  0.00000000000E+00  0.93800000000E+00  0.93800000000E+00 0. -1.
         11    1    1    2    0    0 -0.22038498525E-01  0.13037150510E-01  0.25156602305E+00  0.25286634372E+00  0.51100000000E-03 0. -1.
    9000002    1    1    2    0    0  0.37116803337E+00 -0.18596601458E+00  0.11649659334E+00  0.10323587186E+01  0.93800000000E+00 0. -1.
         22    1    1    2    0    0 -0.34912953484E+00  0.17292886407E+00  0.36319373510E+01  0.36527749377E+01  0.00000000000E+00 0. -1.
</event>
<event>
 5    1  0.3222854E+002  0.1593655E+01  0.7818608E-02  0.3360279E+00
         11   -1    0    0    0    0  0.00000000000E+00  0.00000000000E+00  0.39999999674E+01  0.40000000000E+01  0.51100000000E-03 0. -1.
    9000002   -1    0    0    0    0 -0.00000000000E+00 -0.00000000000E+00  0.00000000000E+00  0.93800000000E+00  0.93800000000E+00 0.  1.
         11    1    1    2    0    0  0.37697749686E-01  0.38868381238E-01  0.47378606923E+00  0.47687039320E+00  0.51100000000E-03 0. -1.
    9000002    1    1    2    0    0  0.17220847885E+00 -0.18519296759E+00  0.47114380673E-01  0.97263351798E+00  0.93800000000E+00 0.  1.
         22    1    1    2    0    0 -0.20990622854E+00  0.14632458635E+00  0.34790995175E+01  0.34884960888E+01  0.00000000000E+00 0. -1.
</event>
<event>
 5    1  0.3222854E+002  0.1599551E+01  0.7818608E-02  0.3353851E+00
         11   -1    0    0    0    0  0.00000000000E+00  0.00000000000E+00  0.39999999674E+01  0.40000000000E+01  0.51100000000E-03 0. -1.
    9000002   -1    0    0    0    0 -0.00000000000E+00 -0.00000000000E+00  0.00000000000E+00  0.93800000000E+00  0.93800000000E+00 0. -1.
         11    1    1    2    0    0 -0.66110525146E-01  0.43089354846E-01  0.99630392323E+00  0.99942436563E+00  0.51100000000E-03 0. -1.
    9000002    1    1    2    0    0  0.21953014231E+00 -0.19027973180E+00  0.56353733358E-01  0.98357490970E+00  0.93800000000E+00 0. -1.
         22    1    1    2    0    0 -0.15341961717E+00  0.14719037696E+00  0.29473423108E+01  0.29550007247E+01  0.00000000000E+00 0. -1.
</event>
<event>
 5    1  0.3222854E+002  0.1567116E+01  0.7818608E-02  0.3389847E+00
         11   -1    0    0    0    0  0.00000000000E+00  0.00000000000E+00  0.39999999674E+01  0.40000000000E+01  0.51100000000E-03 0. -1.
    9000002   -1    0    0    0    0 -0.00000000000E+00 -0.00000000000E+00  0.00000000000E+00  0.93800000000E+00  0.93800000000E+00 0.  1.
         11    1    1    2    0    0 -0.25634456950E+00  0.15746744982E-01  0.17312911275E+01  0.17502370490E+01  0.51100000000E-03 0. -1.
    9000002    1    1    2    0    0  0.13362974850E+00  0.15987275068E+00  0.53643441363E-01  0.96236054828E+00  0.93800000000E+00 0.  1.
         22    1    1    2    0    0  0.12271482100E+00 -0.17561949566E+00  0.22150653985E+01  0.22254024028E+01  0.00000000000E+00 0. -1.
</event>
<event>
 5    1  0.3222854E+002  0.1596433E+01  0.7818608E-02  0.3357244E+00
         11   -1    0    0    0    0  0.00000000000E+00  0.00000000000E+00  0.39999999674E+01  0.40000000000E+01  0.51100000000E-03 0.  1.
    9000002   -1    0    0    0    0 -0.00000000000E+00 -0.00000000000E+00  0.00000000000E+00  0.93800000000E+00  0.93800000000E+00 0.  1.
         11    1    1    2    0    0 -0.53555568609E-01 -0.18740297848E+00  0.17616320748E+01  0.17723814215E+01  0.51100000000E-03 0.  1.
    9000002    1    1    2    0    0  0.22146256266E+00  0.30435683753E+00  0.97947090115E-01  0.10154390103E+01  0.93800000000E+00 0.  1.
         22    1    1    2    0    0 -0.16790699405E+00 -0.11695385905E+00  0.21404208024E+01  0.21501795681E+01  0.00000000000E+00 0.  1.
</event>
<event>
 5    1  0.3222854E+002  0.1599447E+01  0.7818608E-02  0.3353964E+00
         11   -1    0    0    0    0  0.00000000000E+00  0.00000000000E+00  0.39999999674E+01  0.40000000000E+01  0.51100000000E-03 0. -1.
    9000002   -1    0    0    0    0 -0.00000000000E+00 -0.00000000000E+00  0.00000000000E+00  0.93800000000E+00  0.93800000000E+00 0.  1.
         11    1    1    2    0    0 -0.38888761669E-01 -0.13000228469E+00  0.85675273873E+00  0.86743209893E+00  0.51100000000E-03 0. -1.
    9000002    1    1    2    0    0  0.20759121023E+00  0.51682535223E+00  0.21476140852E+00  0.11118313801E+01  0.93800000000E+00 0.  1.
         22    1    1    2    0    0 -0.16870244856E+00 -0.38682306753E+00  0.29284858201E+01  0.29587365209E+01  0.00000000000E+00 0. -1.
</event>
<event>
 5    1  0.3222854E+002  0.1599662E+01  0.7818608E-02  0.3353730E+00
         11   -1    0    0    0    0  0.00000000000E+00  0.00000000000E+00  0.39999999674E+01  0.40000000000E+01  0.51100000000E-03 0.  1.
    9000002   -1    0    0    0    0 -0.00000000000E+00 -0.00000000000E+00  0.00000000000E+00  0.93800000000E+00  0.93800000000E+00 0.  1.
         11    1    1    2    0    0  0.26150240488E+00 -0.21294934801E+00  0.18213705712E+01  0.18523287914E+01  0.51100000000E-03 0.  1.
    9000002    1    1    2    0    0 -0.52716039635E+00  0.42042427586E+00  0.32277067409E+00  0.11994496918E+01  0.93800000000E+00 0.  1.
         22    1    1    2    0    0  0.26565799146E+00 -0.20747492785E+00  0.18558587221E+01  0.18862215168E+01  0.00000000000E+00 0.  1.
</event>
<event>
 5    1  0.3222854E+002  0.1599562E+01  0.7818608E-02  0.3353839E+00
         11   -1    0    0    0    0  0.00000000000E+00  0.00000000000E+00  0.39999999674E+01  0.40000000000E+01  0.51100000000E-03 0.  1.
    9000002   -1    0    0    0    0 -0.00000000000E+00 -0.00000000000E+00  0.00000000000E+00  0.93800000000E+00  0.93800000000E+00 0.  1.
         11    1    1    2    0    0  0.88067519633E-01 -0.16827789534E-01  0.68620226420E+00  0.69203531054E+00  0.51100000000E-03 0.  1.
    9000002    1    1    2    0    0 -0.44998775711E+00  0.61961739957E-01  0.14032298758E+00  0.10516001044E+01  0.93800000000E+00 0.  1.
         22    1    1    2    0    0  0.36192023748E+00 -0.45133950423E-01  0.31734747156E+01  0.31943645850E+01  0.00000000000E+00 0.  1.
</event>
<event>
 5    1  0.3222854E+002  0.1569140E+01  0.7818608E-02  0.3387554E+00
         11   -1    0    0    0    0  0.00000000000E+00  0.00000000000E+00  0.39999999674E+01  0.40000000000E+01  0.51100000000E-03 0. -1.
    9000002   -1    0    0    0    0 -0.00000000000E+00 -0.00000000000E+00  0.00000000000E+00  0.93800000000E+00  0.93800000000E+00 0. -1.
         11    1    1    2    0    0 -0.58663392775E-01  0.15329186625E+00  0.45084835581E+00  0.47979609311E+00  0.51100000000E-03 0. -1.
    9000002    1    1    2    0    0  0.27376652799E+00 -0.16776614013E+00  0.93497184785E-01  0.99583096617E+00  0.93800000000E+00 0. -1.
         22    1    1    2    0    0 -0.21510313521E+00  0.14474273879E-01  0.34556544268E+01  0.34623729407E+01  0.00000000000E+00 0. -1.
</event>
<event>
 5    1  0.3222854E+002  0.1599677E+01  0.7818608E-02  0.3353714E+00
         11   -1    0    0    0    0  0.00000000000E+00  0.00000000000E+00  0.39999999674E+01  0.40000000000E+01  0.51100000000E-03 0. -1.
    9000002   -1    0    0    0    0 -0.00000000000E+00 -0.00000000000E+00  0.00000000000E+00  0.93800000000E+00  0.93800000000E+00 0. -1.
         11    1    1    2    0    0  0.31492228724E+00  0.43095509428E-01  0.20412623833E+01  0.20658619626E+01  0.51100000000E-03 0. -1.
    9000002    1    1    2    0    0 -0.58061969147E+00 -0.79447796958E-01  0.23890868748E+00  0.11315266411E+01  0.93800000000E+00 0. -1.
         22    1    1    2    0    0  0.26569740423E+00  0.36352287530E-01  0.17198288966E+01  0.17406113963E+01  0.00000000000E+00 0. -1.
</event>
<event>
 5    1  0.3222854E+002  0.1588476E+01  0.7818608E-02  0.3365967E+00
         11   -1    0    0    0    0  0.00000000000E+00  0.00000000000E+00  0.39999999674E+01  0.40000000000E+01  0.51100000000E-03 0. -1.
    9000002   -1    0    0    0    0 -0.00000000000E+00 -0.00000000000E+00  0.00000000000E+00  0.93800000000E+00  0.93800000000E+00 0. -1.
         11    1    1    2    0    0  0.31263410003E-01 -0.26164405089E+00  0.19144826827E+01  0.19325318144E+01  0.51100000000E-03 0. -1.
    9000002    1    1    2    0    0  0.81283470887E-01  0.69736092425E+00  0.36517299691E+00  0.12272385990E+01  0.93800000000E+00 0. -1.
         22    1    1    2    0    0 -0.11254688089E+00 -0.43571687336E+00  0.17203442877E+01  0.17782295865E+01  0.00000000000E+00 0. -1.
</event>
<event>
 5    1  0.3222854E+002  0.1599622E+01  0.7818608E-02  0.3353774E+00
         11   -1    0    0    0    0  0.00000000000E+00  0.00000000000E+00  0.39999999674E+01  0.40000000000E+01  0.51100000000E-03 0. -1.
    9000002   -1    0    0    0    0 -0.00000000000E+00 -0.00000000000E+00  0.00000000000E+00  0.93800000000E+00  0.93800000000E+00 0.  1.
         11    1    1    2    0    0 -0.66186734644E-02 -0.51587527178E-02  0.15029727672E+00  0.15053222937E+00  0.51100000000E-03 0. -1.
    9000002    1    1    2    0    0  0.23048958955E+00  0.66554130560E-01  0.38246285829E-01  0.96894875074E+00  0.93800000000E+00 0.  1.
         22    1    1    2    0    0 -0.22387091608E+00 -0.61395377842E-01  0.38114564048E+01  0.38185190199E+01  0.00000000000E+00 0. -1.
</event>
<event>
 5    1  0.3222854E+002  0.1593909E+01  0.7818608E-02  0.3360001E+00
         11   -1    0    0    0    0  0.00000000000E+00  0.00000000000E+00  0.39999999674E+01  0.40000000000E+01  0.51100000000E-03 0.  1.
    9000002   -1    0    0    0    0 -0.00000000000E+00 -0.00000000000E+00  0.00000000000E+00  0.93800000000E+00  0.93800000000E+00 0. -1.
         11    1    1    2    0    0  0.59271464251E-01 -0.86711169218E-01  0.19707467494E+01  0.19735437530E+01  0.51100000000E-03 0.  1.
    9000002    1    1    2    0    0 -0.29256536808E+00  0.11902852501E+00  0.71220715742E-01  0.99230976752E+00  0.93800000000E+00 0. -1.
         22    1    1    2    0    0  0.23329390383E+00 -0.32317355791E-01  0.19580325022E+01  0.19721464795E+01  0.00000000000E+00 0.  1.
</event>
<event>
 5    1  0.3222854E+002  0.1485436E+01  0.7818608E-02  0.3487936E+00
         11   -1    0    0    0    0  0.00000000000E+00  0.00000000000E+00  0.39999999674E+01  0.40000000000E+01  0.51100000000E-03 0.  1.
    9000002   -1    0    0    0    0 -0.00000000000E+00 -0.00000000000E+00  0.00000000000E+00  0.93800000000E+00  0.93800000000E+00 0.  1.
         11    1    1    2    0    0  0.48828351340E-01 -0.35044866161E+00  0.12477933928E+01  0.12969915514E+01  0.51100000000E-03 0.  1.
    9000002    1    1    2    0    0  0.12387568517E+00 -0.59881256320E-01  0.10181752965E+00  0.95348925509E+00  0.93800000000E+00 0.  1.
         22    1    1    2    0    0 -0.17270403651E+00  0.41032991793E+00  0.26503890450E+01  0.26875191935E+01  0.00000000000E+00 0.  1.
</event>
<event>
 5    1  0.3222854E+002  0.1599670E+01  0.7818608E-02  0.3353722E+00
         11   -1    0    0    0    0  0.00000000000E+00  0.00000000000E+00  0.39999999674E+01  0.40000000000E+01  0.51100000000E-03 0.  1.
    9000002   -1    0    0    0    0 -0.00000000000E+00 -0.00000000000E+00  0.00000000000E+00  0.93800000000E+00  0.93800000000E+00 0.  1.
         11    1    1    2    0    0 -0.12666461786E-01  0.42817106634E-01  0.62348122932E+00  0.62507827375E+00  0.51100000000E-03 0.  1.
    9000002    1    1    2    0    0  0.66491917759E-01 -0.27705074053E+00  0.54086855266E-01  0.98180837024E+00  0.93800000000E+00 0.  1.
         22    1    1    2    0    0 -0.53825455973E-01  0.23423363389E+00  0.33224318828E+01  0.33311133560E+01  0.00000000000E+00 0.  1.
</event>
<event>
 5    1  0.3222854E+002  0.1599583E+01  0.7818608E-02  0.3353816E+00
         11   -1    0    0    0    0  0.00000000000E+00  0.00000000000E+00  0.39999999674E+01  0.40000000000E+01  0.51100000000E-03 0. -1.
    9000002   -1    0    0    0    0 -0.00000000000E+00 -0.00000000000E+00  0.00000000000E+00  0.93800000000E+00  0.93800000000E+00 0. -1.
         11    1    1    2    0    0  0.11524822305E-01  0.95712602775E-01  0.50092317278E+00  0.51011568296E+00  0.51100000000E-03 0. -1.
    9000002    1    1    2    0    0 -0.13686376123E+00 -0.67410837284E+00  0.33716722979E+00  0.12110654517E+01  0.93800000000E+00 0. -1.
         22    1    1    2    0    0  0.12533893892E+00  0.57839577006E+00  0.31619095648E+01  0.32168188653E+01  0.00000000000E+00 0. -1.
</event>
<event>
 5    1  0.3222854E+002  0.1599618E+01  0.7818608E-02  0.3353778E+00
         11   -1    0    0    0    0  0.00000000000E+00  0.00000000000E+00  0.39999999674E+01  0.40000000000E+01  0.51100000000E-03 0. -1.
    9000002   -1    0    0    0    0 -0.00000000000E+00 -0.00000000000E+00  0.00000000000E+00  0.93800000000E+00  0.93800000000E+00 0. -1.
         11    1    1    2    0    0  0.24154310326E-01 -0.19487811440E-01  0.15337598966E+00  0.15648533742E+00  0.51100000000E-03 0. -1.
    9000002    1    1    2    0    0 -0.62816643666E+00  0.49766790593E+00  0.47341116300E+00  0.13214494111E+01  0.93800000000E+00 0. -1.
         22    1    1    2    0    0  0.60401212633E+00 -0.47818009449E+00  0.33732128147E+01  0.34600652515E+01  0.00000000000E+00 0. -1.
</event>
<event>
 5    1  0.3222854E+002  0.1599656E+01  0.7818608E-02  0.3353737E+00
         11   -1    0    0    0    0  0.00000000000E+00  0.00000000000E+00  0.39999999674E+01  0.40000000000E+01  0.51100000000E-03 0.  1.
    9000002   -1    0    0    0    0 -0.00000000000E+00 -0.00000000000E+00  0.00000000000E+00  0.93800000000E+00  0.93800000000E+00 0.  1.
         11    1    1    2    0    0  0.79008919160E-01  0.12994628511E+00  0.10474374985E+01  0.10584205311E+01  0.51100000000E-03 0.  1.
    9000002    1    1    2    0    0 -0.27100704597E+00 -0.47994673911E+00  0.20989719568E+00  0.11080137743E+01  0.93800000000E+00 0.  1.
         22    1    1    2    0    0  0.19199812681E+00  0.35000045400E+00  0.27426652732E+01  0.27715656945E+01  0.00000000000E+00 0.  1.
</event>
<event>
 5    1  0.3222854E+002  0.1599675E+01  0.7818608E-02  0.3353716E+00
         11   -1    0    0    0    0  0.00000000000E+00  0.00000000000E+00  0.39999999674E+01  0.40000000000E+01  0.51100000000E-03 0.  1.
    9000002   -1    0    0    0    0 -0.00000000000E+00 -0.00000000000E+00  0.00000000000E+00  0.93800000000E+00  0.93800000000E+00 0. -1.
         11    1    1    2    0    0  0.10243339471E-02 -0.95031634392E-02  0.16981979721E+00  0.17008934129E+00  0.51100000000E-03 0.  1.
    9000002    1    1    2    0    0 -0.19361679017E-01  0.21466126891E+00  0.30784842478E-01  0.96293615651E+00  0.93800000000E+00 0. -1.
         22    1    1    2    0    0  0.18337345070E-01 -0.20515810547E+00  0.37993953277E+01  0.38049745022E+01  0.00000000000E+00 0.  1.
</event>
<event>
 5    1  0.3222854E+002  0.1598389E+01  0.7818608E-02  0.3355114E+00
         11   -1    0    0    0    0  0.00000000000E+00  0.00000000000E+00  0.39999999674E+01  0.40000000000E+01  0.51100000000E-03 0. -1.
    9000002   -1    0    0    0    0 -0.00000000000E+00 -0.00000000000E+00  0.00000000000E+00  0.93800000000E+00  0.93800000000E+00 0.  1.
         11    1    1    2    0    0 -0.18138943780E-01  0.54687829756E-01  0.68785414671E+00  0.69026326012E+00  0.51100000000E-03 0. -1.
    9000002    1    1    2    0    0  0.22145478014E+00 -0.16691056252E+00  0.52195671133E-01  0.97952526441E+00  0.93800000000E+00 0.  1.
         22    1    1    2    0    0 -0.20331583636E+00  0.11222273277E+00  0.32599501495E+01  0.32682114755E+01  0.00000000000E+00 0. -1.
</event>
<event>
 5    1  0.3222854E+002  0.1599636E+01  0.7818608E-02  0.3353759E+00
         11   -1    0    0    0    0  0.00000000000E+00  0.00000000000E+00  0.39999999674E+01  0.40000000000E+01  0.51100000000E-03 0.  1.
    9000002   -1    0    0    0    0 -0.00000000000E+00 -0.00000000000E+00  0.00000000000E+00  0.93800000000E+00  0.93800000000E+00 0. -1.
         11    1    1    2    0    0 -0.32127373661E+00 -0.23467345939E+00  0.20837371415E+01  0.21213790756E+01  0.51100000000E-03 0.  1.
    9000002    1    1    2    0    0  0.55240205615E+00  0.40732916211E+00  0.33548813052E+00  0.12097360719E+01  0.93800000000E+00 0. -1.
         22    1    1    2    0    0 -0.23112831954E+00 -0.17265570272E+00  0.15807746953E+01  0.16068848525E+01  0.00000000000E+00 0.  1.
</event>
<event>
 5    1  0.3222854E+002  0.1587821E+01  0.7818608E-02  0.3366689E+00
         11   -1    0    0    0    0  0.00000000000E+00  0.00000000000E+00  0.39999999674E+01  0.40000000000E+01  0.51100000000E-03 0. -1.
    9000002   -1    0    0    0    0 -0.00000000000E+00 -0.00000000000E+00  0.00000000000E+00  0.93800000000E+00  0.93800000000E+00 0. -1.
         11    1    1    2    0    0  0.39008983822E-02 -0.59176123723E-01  0.71541680047E+00  0.71787080324E+00  0.51100000000E-03 0. -1.
    9000002    1    1    2    0    0  0.46667254547E+00  0.67432812100E-01  0.16199264107E+00  0.10622692995E+01  0.93800000000E+00 0. -1.
         22    1    1    2    0    0 -0.47057344385E+00 -0.82566883773E-02  0.31225905258E+01  0.31578598973E+01  0.00000000000E+00 0. -1.
</event>
<event>
 5    1  0.3222854E+002  0.1599673E+01  0.7818608E-02  0.3353718E+00
         11   -1    0    0    0    0  0.00000000000E+00  0.00000000000E+00  0.39999999674E+01  0.40000000000E+01  0.51100000000E-03 0.  1.
    9000002   -1    0    0    0    0 -0.00000000000E+00 -0.00000000000E+00  0.00000000000E+00  0.93800000000E+00  0.93800000000E+00 0. -1.
         11    1    1    2    0    0 -0.58096674523E-01  0.11528069058E-01  0.91149252053E+00  0.91341501853E+00  0.51100000000E-03 0.  1.
    9000002    1    1    2    0    0  0.25842113872E+00 -0.44182199859E-01  0.45705715808E-01  0.97502131473E+00  0.93800000000E+00 0. -1.
         22    1    1    2    0    0 -0.20032446419E+00  0.32654130801E-01  0.30428017310E+01  0.30495636667E+01  0.00000000000E+00 0.  1.
</event>
<event>
 5    1  0.3222854E+002  0.1597582E+01  0.7818608E-02  0.3355992E+00
         11   -1    0    0    0    0  0.00000000000E+00  0.00000000000E+00  0.39999999674E+01  0.40000000000E+01  0.51100000000E-03 0. -1.
    9000002   -1    0    0    0    0 -0.00000000000E+00 -0.00000000000E+00  0.00000000000E+00  0.93800000000E+00  0.93800000000E+00 0. -1.
         11    1    1    2    0    0 -0.33601600874E+00 -0.17814862453E+00  0.21377091201E+01  0.21712770975E+01  0.51100000000E-03 0. -1.
    9000002    1    1    2    0    0  0.52439084925E+00  0.38313925250E+00  0.29979618194E+00  0.11796199389E+01  0.93800000000E+00 0. -1.
         22    1    1    2    0    0 -0.18837484050E+00 -0.20499062798E+00  0.15624946653E+01  0.15871029636E+01  0.00000000000E+00 0. -1.
</event>
<event>
 5    1  0.3222854E+002  0.1597728E+01  0.7818608E-02  0.3355833E+00
         11   -1    0    0    0    0  0.00000000000E+00  0.00000000000E+00  0.39999999674E+01  0.40000000000E+01  0.51100000000E-03 0.  1.
    9000002   -1    0    0    0    0 -0.00000000000E+00 -0.00000000000E+00  0.00000000000E+00  0.93800000000E+00  0.93800000000E+00 0. -1.
         11    1    1    2    0    0  0.17063611680E-01  0.71798280831E-01  0.54212532674E+00  0.54712548012E+00  0.51100000000E-03 0.  1.
    9000002    1    1    2    0    0  0.43524855991E-01 -0.31320090983E+00  0.68347791955E-01  0.99222207377E+00  0.93800000000E+00 0. -1.
         22    1    1    2    0    0 -0.60588467671E-01  0.24140262900E+00  0.33895268487E+01  0.33986524461E+01  0.00000000000E+00 0.  1.
</event>
<event>
 5    1  0.3222854E+002  0.1599677E+01  0.7818608E-02  0.3353714E+00
         11   -1    0    0    0    0  0.00000000000E+00  0.00000000000E+00  0.39999999674E+01  0.40000000000E+01  0.51100000000E-03 0. -1.
    9000002   -1    0    0    0    0 -0.00000000000E+00 -0.00000000000E+00  0.00000000000E+00  0.93800000000E+00  0.93800000000E+00 0.  1.
         11    1    1    2    0    0  0.12504167183E+00 -0.35790893170E-01  0.87935722097E+00  0.88892395114E+00  0.51100000000E-03 0.  1.
    9000002    1    1    2    0    0 -0.53835164726E+00  0.15428042916E+00  0.21703868529E+00  0.11138109076E+01  0.93800000000E+00 0.  1.
         22    1    1    2    0    0  0.41330997543E+00 -0.11848953599E+00  0.29036040611E+01  0.29352651413E+01  0.00000000000E+00 0. -1.
</event>
<event>
 5    1  0.3222854E+002  0.1599635E+01  0.7818608E-02  0.3353760E+00
         11   -1    0    0    0    0  0.00000000000E+00  0.00000000000E+00  0.39999999674E+01  0.40000000000E+01  0.51100000000E-03 0. -1.
    9000002   -1    0    0    0    0 -0.00000000000E+00 -0.00000000000E+00  0.00000000000E+00  0.93800000000E+00  0.93800000000E+00 0. -1.
         11    1    1    2    0    0  0.21421154577E-01 -0.47838400931E-01  0.69323378747E+00  0.69521271830E+00  0.51100000000E-03 0. -1.
    9000002    1    1    2    0    0 -0.92367827023E-01  0.25652269533E+00  0.49502709576E-01  0.97807475530E+00  0.93800000000E+00 0. -1.
         22    1    1    2    0    0  0.70946672445E-01 -0.20868429440E+00  0.32572634703E+01  0.32647125264E+01  0.00000000000E+00 0. -1.
</event>
<event>
 5    1  0.3222854E+002  0.1599666E+01  0.7818608E-02  0.3353726E+00
         11   -1    0    0    0    0  0.00000000000E+00  0.00000000000E+00  0.39999999674E+01  0.40000000000E+01  0.51100000000E-03 0. -1.
    9000002   -1    0    0    0    0 -0.00000000000E+00 -0.00000000000E+00  0.00000000000E+00  0.93800000000E+00  0.93800000000E+00 0. -1.
         11    1    1    2    0    0 -0.97378097068E-01 -0.42493840707E-01  0.74303079481E+00  0.75058859800E+00  0.51100000000E-03 0. -1.
    9000002    1    1    2    0    0  0.48382509884E+00  0.21136190820E+00  0.19176836732E+00  0.10933342075E+01  0.93800000000E+00 0. -1.
         22    1    1    2    0    0 -0.38644700177E+00 -0.16886806749E+00  0.30652008052E+01  0.30940771945E+01  0.00000000000E+00 0. -1.
</event>
<event>
 5    1  0.3222854E+002  0.1599670E+01  0.7818608E-02  0.3353722E+00
         11   -1    0    0    0    0  0.00000000000E+00  0.00000000000E+00  0.39999999674E+01  0.40000000000E+01  0.51100000000E-03 0.  1.
    9000002   -1    0    0    0    0 -0.00000000000E+00 -0.00000000000E+00  0.00000000000E+00  0.93800000000E+00  0.93800000000E+00 0. -1.
         11    1    1    2    0    0  0.56720952551E-02 -0.83963800676E-01  0.56379267815E+00  0.57003906668E+00  0.51100000000E-03 0.  1.
    9000002    1    1    2    0    0 -0.51657587762E-01  0.55688185993E+00  0.21643316593E+00  0.11133163197E+01  0.93800000000E+00 0. -1.
         22    1    1    2    0    0  0.45985492507E-01 -0.47291805925E+00  0.32197741233E+01  0.32546446137E+01  0.00000000000E+00 0.  1.
</event>
<event>
 5    1  0.3222854E+002  0.1568933E+01  0.7818608E-02  0.3387789E+00
         11   -1    0    0    0    0  0.00000000000E+00  0.00000000000E+00  0.39999999674E+01  0.40000000000E+01  0.51100000000E-03 0. -1.
    9000002   -1    0    0    0    0 -0.00000000000E+00 -0.00000000000E+00  0.00000000000E+00  0.93800000000E+00  0.93800000000E+00 0. -1.
         11    1    1    2    0    0  0.62539640353E-01  0.63896222016E-01  0.19022128650E+01  0.19043129939E+01  0.51100000000E-03 0. -1.
    9000002    1    1    2    0    0 -0.41918165963E+00 -0.41976935043E+00  0.27618843836E+00  0.11436973484E+01  0.93800000000E+00 0. -1.
         22    1    1    2    0    0  0.35664201927E+00  0.35587312842E+00  0.18215986640E+01  0.18899896577E+01  0.00000000000E+00 0. -1.
</event>
<event>
 5    1  0.3222854E+002  0.1598885E+01  0.7818608E-02  0.3354574E+00
         11   -1    0    0    0    0  0.00000000000E+00  0.00000000000E+00  0.39999999674E+01  0.40000000000E+01  0.51100000000E-03 0.  1.
    9000002   -1    0    0    0    0 -0.00000000000E+00 -0.00000000000E+00  0.00000000000E+00  0.93800000000E+00  0.93800000000E+00 0. -1.
         11    1    1    2    0    0  0.12442806525E+00 -0.35118819171E-01  0.14731973500E+01  0.14788598203E+01  0.51100000000E-03 0.  1.
    9000002    1    1    2    0    0 -0.34233316347E+00  0.69038913536E-02  0.79180195164E-01  0.10016751778E+01  0.93800000000E+00 0. -1.
         22    1    1    2    0    0  0.21790509822E+00  0.28214927818E-01  0.24476224222E+01  0.24574650019E+01  0.00000000000E+00 0.  1.
</event>
<event>
 5    1  0.3222854E+002  0.1599675E+01  0.7818608E-02  0.3353716E+00
         11   -1    0    0    0    0  0.00000000000E+00  0.00000000000E+00  0.39999999674E+01  0.40000000000E+01  0.51100000000E-03 0.  1.
    9000002   -1    0    0    0    0 -0.00000000000E+00 -0.00000000000E+00  0.00000000000E+00  0.93800000000E+00  0.93800000000E+00 0. -1.
         11    1    1    2    0    0 -0.14352349392E-01 -0.16388093659E-01  0.25444419603E+00  0.25537554613E+00  0.51100000000E-03 0.  1.
    9000002    1    1    2    0    0  0.22826415295E+00  0.26146719337E+00  0.80752036841E-01  0.10034114351E+01  0.93800000000E+00 0. -1.
         22    1    1    2    0    0 -0.21391180355E+00 -0.24507909971E+00  0.36648037345E+01  0.36792130187E+01  0.00000000000E+00 0.  1.
</event>
<event>
 5    1  0.3222854E+002  0.1590165E+01  0.7818608E-02  0.3364107E+00
         11   -1    0    0    0    0  0.00000000000E+00  0.00000000000E+00  0.39999999674E+01  0.40000000000E+01  0.51100000000E-03 0. -1.
    9000002   -1    0    0    0    0 -0.00000000000E+00 -0.00000000000E+00  0.00000000000E+00  0.93800000000E+00  0.93800000000E+00 0. -1.
         11    1    1    2    0    0  0.21814941984E+00 -0.17329194771E+00  0.28330221848E+01  0.28466882915E+01  0.51100000000E-03 0. -1.
    9000002    1    1    2    0    0 -0.33822826083E+00  0.36683949461E+00  0.17901389624E+00  0.10774319219E+01  0.93800000000E+00 0. -1.
         22    1    1    2    0    0  0.12007884099E+00 -0.19354754689E+00  0.98796388633E+00  0.10138797866E+01  0.00000000000E+00 0. -1.
</event>
<event>
 5    1  0.3222854E+002  0.1599671E+01  0.7818608E-02  0.3353721E+00
         11   -1    0    0    0    0  0.00000000000E+00  0.00000000000E+00  0.39999999674E+01  0.40000000000E+01  0.51100000000E-03 0.  1.
    9000002   -1    0    0    0    0 -0.00000000000E+00 -0.00000000000E+00  0.00000000000E+00  0.93800000000E+00  0.93800000000E+00 0. -1.
         11    1    1    2    0    0 -0.12708861983E+00  0.36957079237E-01  0.15029951074E+01  0.15088114186E+01  0.51100000000E-03 0.  1.
    9000002    1    1    2    0    0  0.32913067677E+00 -0.89246449921E-01  0.77903795709E-01  0.10011018593E+01  0.93800000000E+00 0. -1.
         22    1    1    2    0    0 -0.20204205694E+00  0.52289370684E-01  0.24191010643E+01  0.24280867221E+01  0.00000000000E+00 0.  1.
</event>
<event>
 5    1  0.3222854E+002  0.1578070E+01  0.7818608E-02  0.3377515E+00
         11   -1    0    0    0    0  0.00000000000E+00  0.00000000000E+00  0.39999999674E+01  0.40000000000E+01  0.51100000000E-03 0.  1.
    9000002   -1    0    0    0    0 -0.00000000000E+00 -0.00000000000E+00  0.00000000000E+00  0.93800000000E+00  0.93800000000E+00 0. -1.
         11    1    1    2    0    0  0.50269137877E-01 -0.30299728038E+00  0.10391401555E+01  0.10835805748E+01  0.51100000000E-03 0.  1.
    9000002    1    1    2    0    0  0.96731591707E-01  0.58223636741E+00  0.26412211203E+00  0.11392807724E+01  0.93800000000E+00 0. -1.
         22    1    1    2    0    0 -0.14700072958E+00 -0.27923908703E+00  0.26967376998E+01  0.27151386528E+01  0.00000000000E+00 0.  1.
</event>
<event>
 5    1  0.3222854E+002  0.1599675E+01  0.7818608E-02  0.3353716E+00
         11   -1    0    0    0    0  0.00000000000E+00  0.00000000000E+00  0.39999999674E+01  0.40000000000E+01  0.51100000000E-03 0.  1.
    9000002   -1    0    0    0    0 -0.00000000000E+00 -0.00000000000E+00  0.00000000000E+00  0.93800000000E+00  0.93800000000E+00 0.  1.
         11    1    1    2    0    0 -0.18247756068E-01  0.54207526392E-01  0.63167386901E+00  0.63425828684E+00  0.51100000000E-03 0.  1.
    9000002    1    1    2    0    0  0.11408570843E+00 -0.32867796889E+00  0.81144847728E-01  0.10037296660E+01  0.93800000000E+00 0.  1.
         22    1    1    2    0    0 -0.95837952359E-01  0.27447044250E+00  0.32871812506E+01  0.33000120472E+01  0.00000000000E+00 0.  1.
</event>
<event>
 5    1  0.3222854E+002  0.1534326E+01  0.7818608E-02  0.3427880E+00
         11   -1    0    0    0    0  0.00000000000E+00  0.00000000000E+00  0.39999999674E+01  0.40000000000E+01  0.51100000000E-03 0. -1.
    9000002   -1    0    0    0    0 -0.00000000000E+00 -0.00000000000E+00  0.00000000000E+00  0.93800000000E+00  0.93800000000E+00 0.  1.
         11    1    1    2    0    0 -0.34355884670E-01 -0.11650750257E+00  0.15824034853E+00  0.19948582403E+00  0.51100000000E-03 0. -1.
    9000002    1    1    2    0    0 -0.12570622552E-01 -0.14054893429E+00  0.62907583391E-01  0.95063841051E+00  0.93800000000E+00 0.  1.
         22    1    1    2    0    0  0.46926507222E-01  0.25705643686E+00  0.37788520354E+01  0.37878757655E+01  0.00000000000E+00 0. -1.
</event>
<event>
 5    1  0.3222854E+002  0.1599268E+01  0.7818608E-02  0.3354158E+00
         11   -1    0    0    0    0  0.00000000000E+00  0.00000000000E+00  0.39999999674E+01  0.40000000000E+01  0.51100000000E-03 0.  1.
    9000002   -1    0    0    0    0 -0.00000000000E+00 -0.00000000000E+00  0.00000000000E+00  0.93800000000E+00  0.93800000000E+00 0. -1.
         11    1    1    2    0    0 -0.43661580319E-01 -0.13414555892E+00  0.16435519826E+01  0.16495953277E+01  0.51100000000E-03 0.  1.
    9000002    1    1    2    0    0  0.10380327174E+00  0.37537080899E+00  0.10251191075E+00  0.10207992238E+01  0.93800000000E+00 0. -1.
         22    1    1    2    0    0 -0.60141691420E-01 -0.24122525007E+00  0.22539360740E+01  0.22676054485E+01  0.00000000000E+00 0.  1.
</event>
<event>
 5    1  0.3222854E+002  0.1520025E+01  0.7818608E-02  0.3445019E+00
         11   -1    0    0    0    0  0.00000000000E+00  0.00000000000E+00  0.39999999674E+01  0.40000000000E+01  0.51100000000E-03 0.  1.
    9000002   -1    0    0    0    0 -0.00000000000E+00 -0.00000000000E+00  0.00000000000E+00  0.93800000000E+00  0.93800000000E+00 0.  1.
         11    1    1    2    0    0 -0.29036809246E+00  0.16500845342E+00  0.73778804535E+00  0.80985979021E+00  0.51100000000E-03 0.  1.
    9000002    1    1    2    0    0  0.45850742852E+00  0.11607973583E+00  0.22628286978E+00  0.10745936461E+01  0.93800000000E+00 0.  1.
         22    1    1    2    0    0 -0.16813933606E+00 -0.28108818925E+00  0.30359290522E+01  0.30535465637E+01  0.00000000000E+00 0.  1.
</event>
<event>
 5    1  0.3222854E+002  0.1598728E+01  0.7818608E-02  0.3354745E+00
         11   -1    0    0    0    0  0.00000000000E+00  0.00000000000E+00  0.39999999674E+01  0.40000000000E+01  0.51100000000E-03 0. -1.
    9000002   -1    0    0    0    0 -0.00000000000E+00 -0.00000000000E+00  0.00000000000E+00  0.93800000000E+00  0.93800000000E+00 0. -1.
         11    1    1    2    0    0 -0.13576522115E+00  0.15919186048E-01  0.13348579125E+01  0.13418388590E+01  0.51100000000E-03 0. -1.
    9000002    1    1    2    0    0  0.32684785293E+00 -0.12104633790E+00  0.82205578333E-01  0.10040336110E+01  0.93800000000E+00 0. -1.
         22    1    1    2    0    0 -0.19108263178E+00  0.10512715186E+00  0.25829364765E+01  0.25921275301E+01  0.00000000000E+00 0. -1.
</event>
<event>
 5    1  0.3222854E+002  0.1594705E+01  0.7818608E-02  0.3359131E+00
         11   -1    0    0    0    0  0.00000000000E+00  0.00000000000E+00  0.39999999674E+01  0.40000000000E+01  0.51100000000E-03 0. -1.
    9000002   -1    0    0    0    0 -0.00000000000E+00 -0.00000000000E+00  0.00000000000E+00  0.93800000000E+00  0.93800000000E+00 0. -1.
         11    1    1    2    0    0  0.21789927178E+00 -0.96057646088E-01  0.13556468389E+01  0.13764032029E+01  0.51100000000E-03 0. -1.
    9000002    1    1    2    0    0 -0.43105074338E+00  0.13799714727E+00  0.14349866278E+00  0.10513247939E+01  0.93800000000E+00 0. -1.
         22    1    1    2    0    0  0.21315147160E+00 -0.41939501183E-01  0.25008544657E+01  0.25102720032E+01  0.00000000000E+00 0. -1.
</event>
<event>
 5    1  0.3222854E+002  0.1599636E+01  0.7818608E-02  0.3353758E+00
         11   -1    0    0    0    0  0.00000000000E+00  0.00000000000E+00  0.39999999674E+01  0.40000000000E+01  0.51100000000E-03 0. -1.
    9000002   -1    0    0    0    0 -0.00000000000E+00 -0.00000000000E+00  0.00000000000E+00  0.93800000000E+00  0.93800000000E+00 0. -1.
         11    1    1    2    0    0 -0.29827345473E+00 -0.47304192454E+00  0.18800312625E+01  0.19614416956E+01  0.51100000000E-03 0. -1.
    9000002    1    1    2    0    0  0.50468938883E+00  0.82379527323E+00  0.73720063559E+00  0.15351412992E+01  0.93800000000E+00 0. -1.
         22    1    1    2    0    0 -0.20641593410E+00 -0.35075334869E+00  0.13827680692E+01  0.14414170052E+01  0.00000000000E+00 0. -1.
</event>
<event>
 5    1  0.3222854E+002  0.1578937E+01  0.7818608E-02  0.3376547E+00
         11   -1    0    0    0    0  0.00000000000E+00  0.00000000000E+00  0.39999999674E+01  0.40000000000E+01  0.51100000000E-03 0. -1.
    9000002   -1    0    0    0    0 -0.00000000000E+00 -0.00000000000E+00  0.00000000000E+00  0.93800000000E+00  0.93800000000E+00 0.  1.
         11    1    1    2    0    0 -0.64220405192E-01  0.73111286162E-01  0.20968868900E+01  0.20991437329E+01  0.51100000000E-03 0. -1.
    9000002    1    1    2    0    0 -0.88045038307E-01  0.11366616778E+00  0.29087704760E-01  0.94940087478E+00  0.93800000000E+00 0.  1.
         22    1    1    2    0    0  0.15226544350E+00 -0.18677745394E+00  0.18740253726E+01  0.18894553924E+01  0.00000000000E+00 0. -1.
</event>
<event>
 5    1  0.3222854E+002  0.1598877E+01  0.7818608E-02  0.3354584E+00
         11   -1    0    0    0    0  0.00000000000E+00  0.00000000000E+00  0.39999999674E+01  0.40000000000E+01  0.51100000000E-03 0.  1.
    9000002   -1    0    0    0    0 -0.00000000000E+00 -0.00000000000E+00  0.00000000000E+00  0.93800000000E+00  0.93800000000E+00 0.  1.
         11    1    1    2    0    0 -0.18722797148E-02 -0.61490436685E-01  0.80533234080E+00  0.80767878485E+00  0.51100000000E-03 0.  1.
    9000002    1    1    2    0    0  0.14058225917E+00  0.32426361430E+00  0.84431593529E-01  0.10059239321E+01  0.93800000000E+00 0.  1.
         22    1    1    2    0    0 -0.13870997945E+00 -0.26277317762E+00  0.31102360330E+01  0.31243972831E+01  0.00000000000E+00 0.  1.
</event>
<event>
 5    1  0.3222854E+002  0.1590767E+01  0.7818608E-02  0.3363446E+00
         11   -1    0    0    0    0  0.00000000000E+00  0.00000000000E+00  0.39999999674E+01  0.40000000000E+01  0.51100000000E-03 0. -1.
    9000002   -1    0    0    0    0 -0.00000000000E+00 -0.00000000000E+00  0.00000000000E+00  0.93800000000E+00  0.93800000000E+00 0. -1.
         11    1    1    2    0    0 -0.43172795019E-01  0.11972936670E-01  0.21705630621E+00  0.22163244941E+00  0.51100000000E-03 0. -1.
    9000002    1    1    2    0    0 -0.79040074215E-01  0.15849607575E+00  0.27396463783E-01  0.95496748928E+00  0.93800000000E+00 0. -1.
         22    1    1    2    0    0  0.12221286923E+00 -0.17046901242E+00  0.37555471974E+01  0.37614000613E+01  0.00000000000E+00 0. -1.
</event>
<event>
 5    1  0.3222854E+002  0.1598584E+01  0.7818608E-02  0.3354901E+00
         11   -1    0    0    0    0  0.00000000000E+00  0.00000000000E+00  0.39999999674E+01  0.40000000000E+01  0.51100000000E-03 0. -1.
    9000002   -1    0    0    0    0 -0.00000000000E+00 -0.00000000000E+00  0.00000000000E+00  0.93800000000E+00  0.93800000000E+00 0. -1.
         11    1    1    2    0    0  0.37553920610E-01 -0.90943742256E-02  0.68703403600E+00  0.68811992584E+00  0.51100000000E-03 0. -1.
    9000002    1    1    2    0    0 -0.38390870293E+00  0.74666515457E-01  0.10396309852E+00  0.10215739359E+01  0.93800000000E+00 0. -1.
         22    1    1    2    0    0  0.34635478232E+00 -0.65572141232E-01  0.32090028328E+01  0.32283061382E+01  0.00000000000E+00 0. -1.
</event>
<event>
 5    1  0.3222854E+002  0.1556688E+01  0.7818608E-02  0.3401757E+00
         11   -1    0    0    0    0  0.00000000000E+00  0.00000000000E+00  0.39999999674E+01  0.40000000000E+01  0.51100000000E-03 0. -1.
    9000002   -1    0    0    0    0 -0.00000000000E+00 -0.00000000000E+00  0.00000000000E+00  0.93800000000E+00  0.93800000000E+00 0.  1.
         11    1    1    2    0    0 -0.20282830962E-01  0.26553434381E+00  0.14359761056E+01  0.14604614058E+01  0.51100000000E-03 0. -1.
    9000002    1    1    2    0    0 -0.96064639124E-01 -0.87389410262E-01  0.43390644188E-01  0.94794096436E+00  0.93800000000E+00 0.  1.
         22    1    1    2    0    0  0.11634747009E+00 -0.17814493355E+00  0.25206332176E+01  0.25295976298E+01  0.00000000000E+00 0.  1.
</event>
<event>
 5    1  0.3222854E+002  0.1599603E+01  0.7818608E-02  0.3353795E+00
         11   -1    0    0    0    0  0.00000000000E+00  0.00000000000E+00  0.39999999674E+01  0.40000000000E+01  0.51100000000E-03 0. -1.
    9000002   -1    0    0    0    0 -0.00000000000E+00 -0.00000000000E+00  0.00000000000E+00  0.93800000000E+00  0.93800000000E+00 0.  1.
         11    1    1    2    0    0 -0.11263387016E+00 -0.93136681270E-02  0.11801484531E+01  0.11855478757E+01  0.51100000000E-03 0. -1.
    9000002    1    1    2    0    0  0.39936450237E+00  0.45331261566E-01  0.10905570741E+00  0.10262962907E+01  0.93800000000E+00 0.  1.
         22    1    1    2    0    0 -0.28673063221E+00 -0.36017593439E-01  0.27107958069E+01  0.27261558336E+01  0.00000000000E+00 0.  1.
</event>
<event>
 5    1  0.3222854E+002  0.1583665E+01  0.7818608E-02  0.3371286E+00
         11   -1    0    0    0    0  0.00000000000E+00  0.00000000000E+00  0.39999999674E+01  0.40000000000E+01  0.51100000000E-03 0.  1.
    9000002   -1    0    0    0    0 -0.00000000000E+00 -0.00000000000E+00  0.00000000000E+00  0.93800000000E+00  0.93800000000E+00 0.  1.
         11    1    1    2    0    0  0.34031362198E-01 -0.10270349021E-01  0.19270833035E+01  0.19274111999E+01  0.51100000000E-03 0.  1.
    9000002    1    1    2    0    0 -0.24756413343E-02 -0.28322489912E+00  0.65968089321E-01  0.98204799327E+00  0.93800000000E+00 0.  1.
         22    1    1    2    0    0 -0.31555720864E-01  0.29349524814E+00  0.20069485745E+01  0.20285408069E+01  0.00000000000E+00 0.  1.
</event>
<event>
 5    1  0.3222854E+002  0.1541755E+01  0.7818608E-02  0.3419113E+00
         11   -1    0    0    0    0  0.00000000000E+00  0.00000000000E+00  0.39999999674E+01  0.40000000000E+01  0.51100000000E-03 0.  1.
    9000002   -1    0    0    0    0 -0.00000000000E+00 -0.00000000000E+00  0.00000000000E+00  0.93800000000E+00  0.93800000000E+00 0. -1.
         11    1    1    2    0    0 -0.12688577669E-01  0.14903208226E+00  0.20486982469E+00  0.25366014219E+00  0.51100000000E-03 0.  1.
    9000002    1    1    2    0    0  0.52051254434E+00 -0.19655711634E+00  0.27136782542E+00  0.11238560875E+01  0.93800000000E+00 0. -1.
         22    1    1    2    0    0 -0.50782396667E+00  0.47525034077E-01  0.35237623172E+01  0.35604837703E+01  0.00000000000E+00 0.  1.
</event>
<event>
 5    1  0.3222854E+002  0.1599605E+01  0.7818608E-02  0.3353792E+00
         11   -1    0    0    0    0  0.00000000000E+00  0.00000000000E+00  0.39999999674E+01  0.40000000000E+01  0.51100000000E-03 0. -1.
    9000002   -1    0    0    0    0 -0.00000000000E+00 -0.00000000000E+00  0.00000000000E+00  0.93800000000E+00  0.93800000000E+00 0.  1.
         11    1    1    2    0    0  0.18873779006E-01 -0.15259327269E+00  0.16293638859E+01  0.16366025358E+01  0.51100000000E-03 0. -1.
    9000002    1    1    2    0    0 -0.21181776578E-01  0.36473076201E+00  0.89711679389E-01  0.10106282115E+01  0.93800000000E+00 0.  1.
         22    1    1    2    0    0  0.23079975715E-02 -0.21213748933E+00  0.22809244021E+01  0.22907692527E+01  0.00000000000E+00 0. -1.
</event>
<event>
 5    1  0.3222854E+002  0.1589091E+01  0.7818608E-02  0.3365289E+00
         11   -1    0    0    0    0  0.00000000000E+00  0.00000000000E+00  0.39999999674E+01  0.40000000000E+01  0.51100000000E-03 0. -1.
    9000002   -1    0    0    0    0 -0.00000000000E+00 -0.00000000000E+00  0.00000000000E+00  0.93800000000E+00  0.93800000000E+00 0.  1.
         11    1    1    2    0    0 -0.20278138926E+00  0.27816381422E+00  0.21887458353E+01  0.22156497900E+01  0.51100000000E-03 0. -1.
    9000002    1    1    2    0    0  0.48484910215E+00 -0.31859550040E+00  0.24423741027E+00  0.11296360729E+01  0.93800000000E+00 0.  1.
         22    1    1    2    0    0 -0.28206771289E+00  0.40431686184E-01  0.15670167218E+01  0.15927141370E+01  0.00000000000E+00 0.  1.
</event>
<event>
 5    1  0.3222854E+002  0.1599676E+01  0.7818608E-02  0.3353715E+00
         11   -1    0    0    0    0  0.00000000000E+00  0.00000000000E+00  0.39999999674E+01  0.40000000000E+01  0.51100000000E-03 0.  1.
    9000002   -1    0    0    0    0 -0.00000000000E+00 -0.00000000000E+00  0.00000000000E+00  0.93800000000E+00  0.93800000000E+00 0. -1.
         11    1    1    2    0    0  0.30567952617E-01 -0.96556528278E-01  0.12942438082E+01  0.12982006236E+01  0.51100000000E-03 0.  1.
    9000002    1    1    2    0    0 -0.89801683095E-01  0.29389867718E+00  0.63046728893E-01  0.98907010103E+00  0.93800000000E+00 0. -1.
         22    1    1    2    0    0  0.59233730478E-01 -0.19734214890E+00  0.26427094302E+01  0.26507292754E+01  0.00000000000E+00 0.  1.
</event>
<event>
 5    1  0.3222854E+002  0.1597493E+01  0.7818608E-02  0.3356088E+00
         11   -1    0    0    0    0  0.00000000000E+00  0.00000000000E+00  0.39999999674E+01  0.40000000000E+01  0.51100000000E-03 0.  1.
    9000002   -1    0    0    0    0 -0.00000000000E+00 -0.00000000000E+00  0.00000000000E+00  0.93800000000E+00  0.93800000000E+00 0. -1.
         11    1    1    2    0    0 -0.27270851933E-01 -0.29714799590E-02  0.89347786797E+00  0.89389903834E+00  0.51100000000E-03 0.  1.
    9000002    1    1    2    0    0  0.81639263506E-01  0.21794486588E+00  0.37593851302E-01  0.96717228639E+00  0.93800000000E+00 0. -1.
         22    1    1    2    0    0 -0.54368411574E-01 -0.21497338592E+00  0.30689282481E+01  0.30769286753E+01  0.00000000000E+00 0.  1.
</event>
<event>
 5    1  0.3222854E+002  0.1599645E+01  0.7818608E-02  0.3353749E+00
         11   -1    0    0    0    0  0.00000000000E+00  0.00000000000E+00  0.39999999674E+01  0.40000000000E+01  0.51100000000E-03 0.  1.
    9000002   -1    0    0    0    0 -0.00000000000E+00 -0.00000000000E+00  0.00000000000E+00  0.93800000000E+00  0.93800000000E+00 0. -1.
         11    1    1    2    0    0 -0.13466119048E-01  0.30424615381E-01  0.39568320835E+00  0.39707991144E+00  0.51100000000E-03 0.  1.
    9000002    1    1    2    0    0  0.11300397998E+00 -0.33603013694E+00  0.84341973397E-01  0.10063020028E+01  0.93800000000E+00 0. -1.
         22    1    1    2    0    0 -0.99537860934E-01  0.30560552156E+00  0.35199747856E+01  0.35346180857E+01  0.00000000000E+00 0.  1.
</event>
<event>
 5    1  0.3222854E+002  0.1500212E+01  0.7818608E-02  0.3469342E+00
         11   -1    0    0    0    0  0.00000000000E+00  0.00000000000E+00  0.39999999674E+01  0.40000000000E+01  0.51100000000E-03 0.  1.
    9000002   -1    0    0    0    0 -0.00000000000E+00 -0.00000000000E+00  0.00000000000E+00  0.93800000000E+00  0.93800000000E+00 0. -1.
         11    1    1    2    0    0  0.24357257190E+00 -0.25194340122E-01  0.43617293635E+00  0.50020940024E+00  0.51100000000E-03 0.  1.
    9000002    1    1    2    0    0 -0.69297654416E-01 -0.47103342942E+00  0.24831584326E+00  0.10808234891E+01  0.93800000000E+00 0. -1.
         22    1    1    2    0    0 -0.17427491748E+00  0.49622776954E+00  0.33155111877E+01  0.33569671107E+01  0.00000000000E+00 0.  1.
</event>
<event>
 5    1  0.3222854E+002  0.1599670E+01  0.7818608E-02  0.3353721E+00
         11   -1    0    0    0    0  0.00000000000E+00  0.00000000000E+00  0.39999999674E+01  0.40000000000E+01  0.51100000000E-03 0. -1.
    9000002   -1    0    0    0    0 -0.00000000000E+00 -0.00000000000E+00  0.00000000000E+00  0.93800000000E+00  0.93800000000E+00 0.  1.
         11    1    1    2    0    0 -0.29501880479E-02  0.40485083761E-01  0.38927419318E+00  0.39138523761E+00  0.51100000000E-03 0. -1.
    9000002    1    1    2    0    0  0.35435002173E-01 -0.38801041916E+00  0.10226865726E+00  0.10208381865E+01  0.93800000000E+00 0.  1.
         22    1    1    2    0    0 -0.32484814125E-01  0.34752533540E+00  0.35084571169E+01  0.35257765759E+01  0.00000000000E+00 0. -1.
</event>
<event>
 5    1  0.3222854E+002  0.1599673E+01  0.7818608E-02  0.3353718E+00
         11   -1    0    0    0    0  0.00000000000E+00  0.00000000000E+00  0.39999999674E+01  0.40000000000E+01  0.51100000000E-03 0.  1.
    9000002   -1    0    0    0    0 -0.00000000000E+00 -0.00000000000E+00  0.00000000000E+00  0.93800000000E+00  0.93800000000E+00 0.  1.
         11    1    1    2    0    0 -0.62649457221E-02  0.57472810275E-02  0.16780498597E+00  0.16802099637E+00  0.51100000000E-03 0. -1.
    9000002    1    1    2    0    0  0.15145547551E+00 -0.15482986258E+00  0.31091324222E-01  0.96318311751E+00  0.93800000000E+00 0.  1.
         22    1    1    2    0    0 -0.14519052979E+00  0.14908258155E+00  0.38011036572E+01  0.38067958861E+01  0.00000000000E+00 0.  1.
</event>
<event>
 5    1  0.3222854E+002  0.1599636E+01  0.7818608E-02  0.3353759E+00
         11   -1    0    0    0    0  0.00000000000E+00  0.00000000000E+00  0.39999999674E+01  0.40000000000E+01  0.51100000000E-03 0. -1.
    9000002   -1    0    0    0    0 -0.00000000000E+00 -0.00000000000E+00  0.00000000000E+00  0.93800000000E+00  0.93800000000E+00 0.  1.
         11    1    1    2    0    0  0.52449879516E-01 -0.47158654164E-01  0.78455724303E+00  0.78772156073E+00  0.51100000000E-03 0. -1.
    9000002    1    1    2    0    0 -0.25304767759E+00  0.20676721807E+00  0.71457176169E-01  0.99585939651E+00  0.93800000000E+00 0.  1.
         22    1    1    2    0    0  0.20059779807E+00 -0.15960856391E+00  0.31439855482E+01  0.31544190428E+01  0.00000000000E+00 0. -1.
</event>
<event>
 5    1  0.3222854E+002  0.1599420E+01  0.7818608E-02  0.3353993E+00
         11   -1    0    0    0    0  0.00000000000E+00  0.00000000000E+00  0.39999999674E+01  0.40000000000E+01  0.51100000000E-03 0.  1.
    9000002   -1    0    0    0    0 -0.00000000000E+00 -0.00000000000E+00  0.00000000000E+00  0.93800000000E+00  0.93800000000E+00 0.  1.
         11    1    1    2    0    0 -0.13151951550E+00 -0.35129298646E-01  0.13782853775E+01  0.13849918027E+01  0.51100000000E-03 0.  1.
    9000002    1    1    2    0    0  0.33691048316E+00  0.13740941595E+00  0.89116465520E-01  0.10100375071E+01  0.93800000000E+00 0.  1.
         22    1    1    2    0    0 -0.20539096766E+00 -0.10228011731E+00  0.25325981244E+01  0.25429706903E+01  0.00000000000E+00 0.  1.
</event>
<event>
 5    1  0.3222854E+002  0.1599556E+01  0.7818608E-02  0.3353845E+00
         11   -1    0    0    0    0  0.00000000000E+00  0.00000000000E+00  0.39999999674E+01  0.40000000000E+01  0.51100000000E-03 0.  1.
    9000002   -1    0    0    0    0 -0.00000000000E+00 -0.00000000000E+00  0.00000000000E+00  0.93800000000E+00  0.93800000000E+00 0.  1.
         11    1    1    2    0    0  0.81886968084E-03 -0.26474226865E-04  0.38004320135E-01  0.38016584781E-01  0.51100000000E-03 0.  1.
    9000002    1    1    2    0    0 -0.74133680928E-01 -0.26064023199E+00  0.48953535082E-01  0.97758354210E+00  0.93800000000E+00 0.  1.
         22    1    1    2    0    0  0.73314811247E-01  0.26066670622E+00  0.39130421121E+01  0.39223998731E+01  0.00000000000E+00 0.  1.
</event>
<event>
 5    1  0.3222854E+002  0.1557411E+01  0.7818608E-02  0.3400926E+00
         11   -1    0    0    0    0  0.00000000000E+00  0.00000000000E+00  0.39999999674E+01  0.40000000000E+01  0.51100000000E-03 0.  1.
    9000002   -1    0    0    0    0 -0.00000000000E+00 -0.00000000000E+00  0.00000000000E+00  0.93800000000E+00  0.93800000000E+00 0.  1.
         11    1    1    2    0    0  0.10378773595E+00 -0.15250170968E+00  0.63861588632E+00  0.66472488818E+00  0.51100000000E-03 0.  1.
    9000002    1    1    2    0    0 -0.11520830862E+00 -0.59913127923E-01  0.42833967308E-01  0.94791417651E+00  0.93800000000E+00 0.  1.
         22    1    1    2    0    0  0.11420572669E-01  0.21241483760E+00  0.33185501137E+01  0.33253609353E+01  0.00000000000E+00 0.  1.
</event>
<event>
 5    1  0.3222854E+002  0.1586700E+01  0.7818608E-02  0.3367926E+00
         11   -1    0    0    0    0  0.00000000000E+00  0.00000000000E+00  0.39999999674E+01  0.40000000000E+01  0.51100000000E-03 0. -1.
    9000002   -1    0    0    0    0 -0.00000000000E+00 -0.00000000000E+00  0.00000000000E+00  0.93800000000E+00  0.93800000000E+00 0. -1.
         11    1    1    2    0    0  0.13420886738E+00  0.18165691081E+00  0.17938327148E+01  0.18079953881E+01  0.51100000000E-03 0. -1.
    9000002    1    1    2    0    0 -0.33273096376E+00 -0.10084822881E+00  0.91539083356E-01  0.10045415189E+01  0.93800000000E+00 0. -1.
         22    1    1    2    0    0  0.19852209638E+00 -0.80808682000E-01  0.21146281692E+01  0.21254630930E+01  0.00000000000E+00 0. -1.
</event>
<event>
 5    1  0.3222854E+002  0.1599676E+01  0.7818608E-02  0.3353715E+00
         11   -1    0    0    0    0  0.00000000000E+00  0.00000000000E+00  0.39999999674E+01  0.40000000000E+01  0.51100000000E-03 0. -1.
    9000002   -1    0    0    0    0 -0.00000000000E+00 -0.00000000000E+00  0.00000000000E+00  0.93800000000E+00  0.93800000000E+00 0. -1.
         11    1    1    2    0    0 -0.18512274596E+00  0.10089637513E+00  0.18728037287E+01  0.18846338044E+01  0.51100000000E-03 0. -1.
    9000002    1    1    2    0    0  0.38109245495E+00 -0.21007816282E+00  0.12833824894E+00  0.10419592122E+01  0.93800000000E+00 0. -1.
         22    1    1    2    0    0 -0.19596970899E+00  0.10918178769E+00  0.19988579898E+01  0.20114069834E+01  0.00000000000E+00 0. -1.
</event>
<event>
 5    1  0.3222854E+002  0.1599674E+01  0.7818608E-02  0.3353718E+00
         11   -1    0    0    0    0  0.00000000000E+00  0.00000000000E+00  0.39999999674E+01  0.40000000000E+01  0.51100000000E-03 0.  1.
    9000002   -1    0    0    0    0 -0.00000000000E+00 -0.00000000000E+00  0.00000000000E+00  0.93800000000E+00  0.93800000000E+00 0. -1.
         11    1    1    2    0    0 -0.13692346395E-01 -0.15014685081E-01  0.20195498655E+00  0.20297536508E+00  0.51100000000E-03 0.  1.
    9000002    1    1    2    0    0  0.24776947087E+00  0.28774706495E+00  0.97015111377E-01  0.10165844854E+01  0.93800000000E+00 0. -1.
         22    1    1    2    0    0 -0.23407712447E+00 -0.27273237987E+00  0.37010298694E+01  0.37184401495E+01  0.00000000000E+00 0.  1.
</event>
<event>
 5    1  0.3222854E+002  0.1588926E+01  0.7818608E-02  0.3365471E+00
         11   -1    0    0    0    0  0.00000000000E+00  0.00000000000E+00  0.39999999674E+01  0.40000000000E+01  0.51100000000E-03 0.  1.
    9000002   -1    0    0    0    0 -0.00000000000E+00 -0.00000000000E+00  0.00000000000E+00  0.93800000000E+00  0.93800000000E+00 0. -1.
         11    1    1    2    0    0 -0.10649518513E+00  0.51421984264E-01  0.10543269150E+01  0.10609387116E+01  0.51100000000E-03 0.  1.
    9000002    1    1    2    0    0 -0.33154771496E-02 -0.28942254263E+00  0.64250995846E-01  0.98374213646E+00  0.93800000000E+00 0. -1.
         22    1    1    2    0    0  0.10981066228E+00  0.23800055837E+00  0.28814220565E+01  0.28933191519E+01  0.00000000000E+00 0.  1.
</event>
<event>
 5    1  0.3222854E+002  0.1599677E+01  0.7818608E-02  0.3353714E+00
         11   -1    0    0    0    0  0.00000000000E+00  0.00000000000E+00  0.39999999674E+01  0.40000000000E+01  0.51100000000E-03 0.  1.
    9000002   -1    0    0    0    0 -0.00000000000E+00 -0.00000000000E+00  0.00000000000E+00  0.93800000000E+00  0.93800000000E+00 0.  1.
         11    1    1    2    0    0 -0.78826981210E+00  0.21240738127E+00  0.18064710762E+01  0.19823784206E+01  0.51100000000E-03 0.  1.
    9000002    1    1    2    0    0  0.11539371384E+01 -0.31115533137E+00  0.13559329485E+01  0.20363660576E+01  0.93800000000E+00 0.  1.
         22    1    1    2    0    0 -0.36566732630E+00  0.98747950099E-01  0.83759594273E+00  0.91925552185E+00  0.00000000000E+00 0.  1.
</event>
<event>
 5    1  0.3222854E+002  0.1599630E+01  0.7818608E-02  0.3353765E+00
         11   -1    0    0    0    0  0.00000000000E+00  0.00000000000E+00  0.39999999674E+01  0.40000000000E+01  0.51100000000E-03 0.  1.
    9000002   -1    0    0    0    0 -0.00000000000E+00 -0.00000000000E+00  0.00000000000E+00  0.93800000000E+00  0.93800000000E+00 0.  1.
         11    1    1    2    0    0  0.52201338624E-02 -0.58331263613E-01  0.92115652808E+00  0.92301646597E+00  0.51100000000E-03 0.  1.
    9000002    1    1    2    0    0 -0.51120881969E-01  0.25862263677E+00  0.46253133307E-01  0.97543957535E+00  0.93800000000E+00 0.  1.
         22    1    1    2    0    0  0.45900748107E-01 -0.20029137315E+00  0.30325903060E+01  0.30395439587E+01  0.00000000000E+00 0.  1.
</event>
<event>
 5    1  0.3222854E+002  0.1595537E+01  0.7818608E-02  0.3358222E+00
         11   -1    0    0    0    0  0.00000000000E+00  0.00000000000E+00  0.39999999674E+01  0.40000000000E+01  0.51100000000E-03 0. -1.
    9000002   -1    0    0    0    0 -0.00000000000E+00 -0.00000000000E+00  0.00000000000E+00  0.93800000000E+00  0.93800000000E+00 0. -1.
         11    1    1    2    0    0  0.13071453598E-01 -0.10864270738E-02  0.34170657795E-01  0.36605166276E-01  0.51100000000E-03 0. -1.
    9000002    1    1    2    0    0  0.12054094285E+00 -0.27523477348E+00  0.63480727460E-01  0.98699447931E+00  0.93800000000E+00 0. -1.
         22    1    1    2    0    0 -0.13361239645E+00  0.27632120055E+00  0.39023485821E+01  0.39144003544E+01  0.00000000000E+00 0. -1.
</event>
<event>
 5    1  0.3222854E+002  0.1599661E+01  0.7818608E-02  0.3353731E+00
         11   -1    0    0    0    0  0.00000000000E+00  0.00000000000E+00  0.39999999674E+01  0.40000000000E+01  0.51100000000E-03 0.  1.
    9000002   -1    0    0    0    0 -0.00000000000E+00 -0.00000000000E+00  0.00000000000E+00  0.93800000000E+00  0.93800000000E+00 0.  1.
         11    1    1    2    0    0  0.66745653623E-01  0.56307000777E+00  0.18481233352E+01  0.19331484524E+01  0.51100000000E-03 0.  1.
    9000002    1    1    2    0    0 -0.11676574028E+00 -0.97567038879E+00  0.76931926756E+00  0.15611736230E+01  0.93800000000E+00 0.  1.
         22    1    1    2    0    0  0.50020086659E-01  0.41260038103E+00  0.13825573646E+01  0.14436779246E+01  0.00000000000E+00 0. -1.
</event>
<event>
 5    1  0.3222854E+002  0.1599677E+01  0.7818608E-02  0.3353714E+00
         11   -1    0    0    0    0  0.00000000000E+00  0.00000000000E+00  0.39999999674E+01  0.40000000000E+01  0.51100000000E-03 0. -1.
    9000002   -1    0    0    0    0 -0.00000000000E+00 -0.00000000000E+00  0.00000000000E+00  0.93800000000E+00  0.93800000000E+00 0.  1.
         11    1    1    2    0    0  0.10321295755E+00 -0.74448580872E-01  0.11096655397E+01  0.11169392898E+01  0.51100000000E-03 0. -1.
    9000002    1    1    2    0    0 -0.36015459898E+00  0.25800747441E+00  0.13317428307E+00  0.10458769439E+01  0.93800000000E+00 0.  1.
         22    1    1    2    0    0  0.25694164144E+00 -0.18355889354E+00  0.27571601446E+01  0.27751837664E+01  0.00000000000E+00 0. -1.
</event>
<event>
 5    1  0.3222854E+002  0.1599547E+01  0.7818608E-02  0.3353855E+00
         11   -1    0    0    0    0  0.00000000000E+00  0.00000000000E+00  0.39999999674E+01  0.40000000000E+01  0.51100000000E-03 0.  1.
    9000002   -1    0    0    0    0 -0.00000000000E+00 -0.00000000000E+00  0.00000000000E+00  0.93800000000E+00  0.93800000000E+00 0. -1.
         11    1    1    2    0    0 -0.18610089864E+00  0.35407107271E+00  0.15535049224E+01  0.16041750759E+01  0.51100000000E-03 0.  1.
    9000002    1    1    2    0    0  0.38166615884E+00 -0.77641473969E+00  0.56487748592E+00  0.13954997237E+01  0.93800000000E+00 0. -1.
         22    1    1    2    0    0 -0.19556526020E+00  0.42234366698E+00  0.18816175590E+01  0.19383252004E+01  0.00000000000E+00 0.  1.
</event>
<event>
 5    1  0.3222854E+002  0.1576588E+01  0.7818608E-02  0.3379173E+00
         11   -1    0    0    0    0  0.00000000000E+00  0.00000000000E+00  0.39999999674E+01  0.40000000000E+01  0.51100000000E-03 0.  1.
    9000002   -1    0    0    0    0 -0.00000000000E+00 -0.00000000000E+00  0.00000000000E+00  0.93800000000E+00  0.93800000000E+00 0.  1.
         11    1    1    2    0    0  0.20824524161E+00  0.10572725930E+00  0.22146681846E+01  0.22269485317E+01  0.51100000000E-03 0.  1.
    9000002    1    1    2    0    0 -0.52921562382E-01 -0.24584073055E+00  0.59882830033E-01  0.97296881240E+00  0.93800000000E+00 0.  1.
         22    1    1    2    0    0 -0.15532367923E+00  0.14011347125E+00  0.17254489527E+01  0.17380826559E+01  0.00000000000E+00 0. -1.
</event>
<event>
 5    1  0.3222854E+002  0.1599671E+01  0.7818608E-02  0.3353720E+00
         11   -1    0    0    0    0  0.00000000000E+00  0.00000000000E+00  0.39999999674E+01  0.40000000000E+01  0.51100000000E-03 0. -1.
    9000002   -1    0    0    0    0 -0.00000000000E+00 -0.00000000000E+00  0.00000000000E+00  0.93800000000E+00  0.93800000000E+00 0. -1.
         11    1    1    2    0    0 -0.42081751559E-01 -0.18817936446E-01  0.74563957932E+00  0.74706333862E+00  0.51100000000E-03 0. -1.
    9000002    1    1    2    0    0  0.22824941432E+00  0.11082162464E+00  0.42783302709E-01  0.97265288701E+00  0.93800000000E+00 0. -1.
         22    1    1    2    0    0 -0.18616766276E+00 -0.92003688194E-01  0.32115770853E+01  0.32182837744E+01  0.00000000000E+00 0. -1.
</event>
<event>
 5    1  0.3222854E+002  0.1599467E+01  0.7818608E-02  0.3353943E+00
         11   -1    0    0    0    0  0.00000000000E+00  0.00000000000E+00  0.39999999674E+01  0.40000000000E+01  0.51100000000E-03 0. -1.
    9000002   -1    0    0    0    0 -0.00000000000E+00 -0.00000000000E+00  0.00000000000E+00  0.93800000000E+00  0.93800000000E+00 0.  1.
         11    1    1    2    0    0  0.12336538359E-03  0.12269082985E-02  0.12584418800E-01  0.12655008515E-01  0.51100000000E-03 0. -1.
    9000002    1    1    2    0    0 -0.19258770029E+00  0.19135196255E+00  0.49208610037E-01  0.97773773742E+00  0.93800000000E+00 0.  1.
         22    1    1    2    0    0  0.19246433491E+00 -0.19257887085E+00  0.39382069385E+01  0.39476072541E+01  0.00000000000E+00 0. -1.
</event>
<event>
 5    1  0.3222854E+002  0.1453699E+01  0.7818608E-02  0.3529260E+00
         11   -1    0    0    0    0  0.00000000000E+00  0.00000000000E+00  0.39999999674E+01  0.40000000000E+01  0.51100000000E-03 0.  1.
    9000002   -1    0    0    0    0 -0.00000000000E+00 -0.00000000000E+00  0.00000000000E+00  0.93800000000E+00  0.93800000000E+00 0. -1.
         11    1    1    2    0    0 -0.44653580432E+00  0.13497935096E+00  0.32186517140E+01  0.32522811635E+01  0.51100000000E-03 0.  1.
    9000002    1    1    2    0    0  0.12724438064E+00 -0.72592572856E-01  0.13077332320E+00  0.95833526289E+00  0.93800000000E+00 0. -1.
         22    1    1    2    0    0  0.31929142368E+00 -0.62386778107E-01  0.65057493018E+00  0.72738357357E+00  0.00000000000E+00 0. -1.
</event>
<event>
 5    1  0.3222854E+002  0.1577418E+01  0.7818608E-02  0.3378243E+00
         11   -1    0    0    0    0  0.00000000000E+00  0.00000000000E+00  0.39999999674E+01  0.40000000000E+01  0.51100000000E-03 0. -1.
    9000002   -1    0    0    0    0 -0.00000000000E+00 -0.00000000000E+00  0.00000000000E+00  0.93800000000E+00  0.93800000000E+00 0. -1.
         11    1    1    2    0    0 -0.15981558868E+00 -0.48853371836E-01  0.51257403904E+00  0.53912900214E+00  0.51100000000E-03 0. -1.
    9000002    1    1    2    0    0  0.28389682755E+00  0.24667636796E+00  0.11357821186E+00  0.10169516456E+01  0.93800000000E+00 0. -1.
         22    1    1    2    0    0 -0.12408123886E+00 -0.19782299612E+00  0.33738477165E+01  0.33819193523E+01  0.00000000000E+00 0. -1.
</event>
<event>
 5    1  0.3222854E+002  0.1599677E+01  0.7818608E-02  0.3353714E+00
         11   -1    0    0    0    0  0.00000000000E+00  0.00000000000E+00  0.39999999674E+01  0.40000000000E+01  0.51100000000E-03 0. -1.
    9000002   -1    0    0    0    0 -0.00000000000E+00 -0.00000000000E+00  0.00000000000E+00  0.93800000000E+00  0.93800000000E+00 0.  1.
         11    1    1    2    0    0 -0.35108704566E-01 -0.12122569453E-01  0.47885924683E+00  0.48029784220E+00  0.51100000000E-03 0.  1.
    9000002    1    1    2    0    0  0.28899024270E+00  0.99793042966E-01  0.62391478869E-01  0.98853968481E+00  0.93800000000E+00 0.  1.
         22    1    1    2    0    0 -0.25388153814E+00 -0.87670473513E-01  0.34587492417E+01  0.34691624730E+01  0.00000000000E+00 0. -1.
</event>
<event>
 5    1  0.3222854E+002  0.1599470E+01  0.7818608E-02  0.3353939E+00
         11   -1    0    0    0    0  0.00000000000E+00  0.00000000000E+00  0.39999999674E+01  0.40000000000E+01  0.51100000000E-03 0.  1.
    9000002   -1    0    0    0    0 -0.00000000000E+00 -0.00000000000E+00  0.00000000000E+00  0.93800000000E+00  0.93800000000E+00 0.  1.
         11    1    1    2    0    0  0.78707004802E-01  0.11635263545E+00  0.13355417666E+01  0.13429090810E+01  0.51100000000E-03 0.  1.
    9000002    1    1    2    0    0 -0.24632303053E+00 -0.29467827300E+00  0.99470421713E-01  0.10184540661E+01  0.93800000000E+00 0.  1.
         22    1    1    2    0    0  0.16761602573E+00  0.17832563755E+00  0.25649877791E+01  0.25766368529E+01  0.00000000000E+00 0.  1.
</event>
<event>
 5    1  0.3222854E+002  0.1584795E+01  0.7818608E-02  0.3370034E+00
         11   -1    0    0    0    0  0.00000000000E+00  0.00000000000E+00  0.39999999674E+01  0.40000000000E+01  0.51100000000E-03 0. -1.
    9000002   -1    0    0    0    0 -0.00000000000E+00 -0.00000000000E+00  0.00000000000E+00  0.93800000000E+00  0.93800000000E+00 0.  1.
         11    1    1    2    0    0  0.47524229500E-01  0.12551646007E+00  0.95255566329E+00  0.96196438963E+00  0.51100000000E-03 0. -1.
    9000002    1    1    2    0    0  0.24567957481E+00 -0.24405993882E+00  0.92431510948E-01  0.10041470467E+01  0.93800000000E+00 0.  1.
         22    1    1    2    0    0 -0.29320380431E+00  0.11854347875E+00  0.29550127931E+01  0.29718885636E+01  0.00000000000E+00 0. -1.
</event>
<event>
 5    1  0.3222854E+002  0.1599677E+01  0.7818608E-02  0.3353714E+00
         11   -1    0    0    0    0  0.00000000000E+00  0.00000000000E+00  0.39999999674E+01  0.40000000000E+01  0.51100000000E-03 0.  1.
    9000002   -1    0    0    0    0 -0.00000000000E+00 -0.00000000000E+00  0.00000000000E+00  0.93800000000E+00  0.93800000000E+00 0.  1.
         11    1    1    2    0    0  0.43855848790E-01 -0.71790593016E-01  0.11496949245E+01  0.11527687996E+01  0.51100000000E-03 0. -1.
    9000002    1    1    2    0    0 -0.15229590523E+00  0.24644367402E+00  0.55937305116E-01  0.98331150167E+00  0.93800000000E+00 0.  1.
         22    1    1    2    0    0  0.10844005644E+00 -0.17465308101E+00  0.27943677377E+01  0.28019196987E+01  0.00000000000E+00 0.  1.
</event>
<event>
 5    1  0.3222854E+002  0.1584248E+01  0.7818608E-02  0.3370640E+00
         11   -1    0    0    0    0  0.00000000000E+00  0.00000000000E+00  0.39999999674E+01  0.40000000000E+01  0.51100000000E-03 0.  1.
    9000002   -1    0    0    0    0 -0.00000000000E+00 -0.00000000000E+00  0.00000000000E+00  0.93800000000E+00  0.93800000000E+00 0.  1.
         11    1    1    2    0    0 -0.10842498940E+00 -0.13403179874E+00  0.72965815760E+00  0.74974781725E+00  0.51100000000E-03 0.  1.
    9000002    1    1    2    0    0  0.38869095951E+00  0.11557669092E+00  0.12399850024E+00  0.10293970379E+01  0.93800000000E+00 0.  1.
         22    1    1    2    0    0 -0.28026597012E+00  0.18455107819E-01  0.31463433095E+01  0.31588551449E+01  0.00000000000E+00 0.  1.
</event>
<event>
 5    1  0.3222854E+002  0.1599547E+01  0.7818608E-02  0.3353855E+00
         11   -1    0    0    0    0  0.00000000000E+00  0.00000000000E+00  0.39999999674E+01  0.40000000000E+01  0.51100000000E-03 0.  1.
    9000002   -1    0    0    0    0 -0.00000000000E+00 -0.00000000000E+00  0.00000000000E+00  0.93800000000E+00  0.93800000000E+00 0.  1.
         11    1    1    2    0    0  0.13844487052E-01 -0.46485765767E-02  0.25043602690E+00  0.25086200146E+00  0.51100000000E-03 0.  1.
    9000002    1    1    2    0    0 -0.24604192533E+00 -0.28355631673E-01  0.40840123137E-01  0.97100596627E+00  0.93800000000E+00 0.  1.
         22    1    1    2    0    0  0.23219743828E+00  0.33004208250E-01  0.37087238173E+01  0.37161320323E+01  0.00000000000E+00 0.  1.
</event>
<event>
 5    1  0.3222854E+002  0.1599627E+01  0.7818608E-02  0.3353769E+00
         11   -1    0    0    0    0  0.00000000000E+00  0.00000000000E+00  0.39999999674E+01  0.40000000000E+01  0.51100000000E-03 0. -1.
    9000002   -1    0    0    0    0 -0.00000000000E+00 -0.00000000000E+00  0.00000000000E+00  0.93800000000E+00  0.93800000000E+00 0. -1.
         11    1    1    2    0    0  0.11964188680E-01 -0.30427042430E-02  0.24876725561E+00  0.24907390157E+00  0.51100000000E-03 0. -1.
    9000002    1    1    2    0    0 -0.21815128612E+00 -0.11085704609E-01  0.31661646502E-01  0.96361783729E+00  0.93800000000E+00 0. -1.
         22    1    1    2    0    0  0.20618709744E+00  0.14128408852E-01  0.37195710652E+01  0.37253082611E+01  0.00000000000E+00 0. -1.
</event>
<event>
 5    1  0.3222854E+002  0.1598016E+01  0.7818608E-02  0.3355519E+00
         11   -1    0    0    0    0  0.00000000000E+00  0.00000000000E+00  0.39999999674E+01  0.40000000000E+01  0.51100000000E-03 0. -1.
    9000002   -1    0    0    0    0 -0.00000000000E+00 -0.00000000000E+00  0.00000000000E+00  0.93800000000E+00  0.93800000000E+00 0. -1.
         11    1    1    2    0    0  0.10440914269E+00 -0.12437145944E+00  0.17359297854E+01  0.17435085346E+01  0.51100000000E-03 0. -1.
    9000002    1    1    2    0    0 -0.21642550331E+00  0.38486595028E+00  0.13367807759E+00  0.10453112582E+01  0.93800000000E+00 0. -1.
         22    1    1    2    0    0  0.11201636063E+00 -0.26049449084E+00  0.21303921043E+01  0.21491802072E+01  0.00000000000E+00 0. -1.
</event>
<event>
 5    1  0.3222854E+002  0.1595407E+01  0.7818608E-02  0.3358363E+00
         11   -1    0    0    0    0  0.00000000000E+00  0.00000000000E+00  0.39999999674E+01  0.40000000000E+01  0.51100000000E-03 0. -1.
    9000002   -1    0    0    0    0 -0.00000000000E+00 -0.00000000000E+00  0.00000000000E+00  0.93800000000E+00  0.93800000000E+00 0.  1.
         11    1    1    2    0    0  0.78383850875E-02 -0.14240566226E+00  0.21642750005E+01  0.21689691910E+01  0.51100000000E-03 0. -1.
    9000002    1    1    2    0    0  0.42681663499E-01  0.38569057555E+00  0.10494719067E+00  0.10205081368E+01  0.93800000000E+00 0.  1.
         22    1    1    2    0    0 -0.50520048586E-01 -0.24328491330E+00  0.17307777762E+01  0.17485226721E+01  0.00000000000E+00 0.  1.
</event>
<event>
 5    1  0.3222854E+002  0.1599676E+01  0.7818608E-02  0.3353715E+00
         11   -1    0    0    0    0  0.00000000000E+00  0.00000000000E+00  0.39999999674E+01  0.40000000000E+01  0.51100000000E-03 0.  1.
    9000002   -1    0    0    0    0 -0.00000000000E+00 -0.00000000000E+00  0.00000000000E+00  0.93800000000E+00  0.93800000000E+00 0.  1.
         11    1    1    2    0    0  0.12788372568E-01  0.41256385815E-01  0.39187135776E+00  0.39424491626E+00  0.51100000000E-03 0. -1.
    9000002    1    1    2    0    0 -0.12989294372E+00 -0.40404544404E+00  0.12189349963E+00  0.10367385991E+01  0.93800000000E+00 0.  1.
         22    1    1    2    0    0  0.11710457115E+00  0.36278905822E+00  0.34862351100E+01  0.35070164846E+01  0.00000000000E+00 0.  1.
</event>
<event>
 5    1  0.3222854E+002  0.1598932E+01  0.7818608E-02  0.3354523E+00
         11   -1    0    0    0    0  0.00000000000E+00  0.00000000000E+00  0.39999999674E+01  0.40000000000E+01  0.51100000000E-03 0.  1.
    9000002   -1    0    0    0    0 -0.00000000000E+00 -0.00000000000E+00  0.00000000000E+00  0.93800000000E+00  0.93800000000E+00 0. -1.
         11    1    1    2    0    0 -0.15264278697E-01  0.11821807399E+00  0.64532032852E+00  0.65623707510E+00  0.51100000000E-03 0.  1.
    9000002    1    1    2    0    0  0.13278729361E+00 -0.78120902756E+00  0.46231534070E+00  0.13120592534E+01  0.93800000000E+00 0. -1.
         22    1    1    2    0    0 -0.11752301491E+00  0.66299095357E+00  0.28923642981E+01  0.29697036715E+01  0.00000000000E+00 0.  1.
</event>
<event>
 5    1  0.3222854E+002  0.1589224E+01  0.7818608E-02  0.3365142E+00
         11   -1    0    0    0    0  0.00000000000E+00  0.00000000000E+00  0.39999999674E+01  0.40000000000E+01  0.51100000000E-03 0.  1.
    9000002   -1    0    0    0    0 -0.00000000000E+00 -0.00000000000E+00  0.00000000000E+00  0.93800000000E+00  0.93800000000E+00 0.  1.
         11    1    1    2    0    0  0.14611823385E+00  0.78573603420E-01  0.16143815887E+01  0.16228840145E+01  0.51100000000E-03 0.  1.
    9000002    1    1    2    0    0 -0.27239347650E+00  0.91306804152E-01  0.63169418942E-01  0.98304095236E+00  0.93800000000E+00 0.  1.
         22    1    1    2    0    0  0.12627524264E+00 -0.16988040757E+00  0.23224489597E+01  0.23320750332E+01  0.00000000000E+00 0.  1.
</event>
<event>
 5    1  0.3222854E+002  0.1549210E+01  0.7818608E-02  0.3410404E+00
         11   -1    0    0    0    0  0.00000000000E+00  0.00000000000E+00  0.39999999674E+01  0.40000000000E+01  0.51100000000E-03 0. -1.
    9000002   -1    0    0    0    0 -0.00000000000E+00 -0.00000000000E+00  0.00000000000E+00  0.93800000000E+00  0.93800000000E+00 0.  1.
         11    1    1    2    0    0 -0.23249227646E+00  0.64066145898E-02  0.11265277313E+01  0.11502863530E+01  0.51100000000E-03 0. -1.
    9000002    1    1    2    0    0 -0.22896363384E-01  0.15750702507E+00  0.55047768290E-01  0.95299893137E+00  0.93800000000E+00 0.  1.
         22    1    1    2    0    0  0.25538863985E+00 -0.16391363966E+00  0.28184244677E+01  0.28347147156E+01  0.00000000000E+00 0. -1.
</event>
<event>
 5    1  0.3222854E+002  0.1598580E+01  0.7818608E-02  0.3354906E+00
         11   -1    0    0    0    0  0.00000000000E+00  0.00000000000E+00  0.39999999674E+01  0.40000000000E+01  0.51100000000E-03 0. -1.
    9000002   -1    0    0    0    0 -0.00000000000E+00 -0.00000000000E+00  0.00000000000E+00  0.93800000000E+00  0.93800000000E+00 0.  1.
         11    1    1    2    0    0  0.20555946378E-01 -0.82919041068E-01  0.14910321821E+01  0.14934776006E+01  0.51100000000E-03 0. -1.
    9000002    1    1    2    0    0 -0.34839898416E-01  0.31893429646E+00  0.69674813642E-01  0.99379650011E+00  0.93800000000E+00 0.  1.
         22    1    1    2    0    0  0.14283952038E-01 -0.23601525540E+00  0.24392929716E+01  0.24507258993E+01  0.00000000000E+00 0. -1.
</event>
<event>
 5    1  0.3222854E+002  0.1585928E+01  0.7818608E-02  0.3368780E+00
         11   -1    0    0    0    0  0.00000000000E+00  0.00000000000E+00  0.39999999674E+01  0.40000000000E+01  0.51100000000E-03 0.  1.
    9000002   -1    0    0    0    0 -0.00000000000E+00 -0.00000000000E+00  0.00000000000E+00  0.93800000000E+00  0.93800000000E+00 0.  1.
         11    1    1    2    0    0  0.17158642059E-01  0.13329684951E+00  0.13511446179E+01  0.13578123982E+01  0.51100000000E-03 0.  1.
    9000002    1    1    2    0    0 -0.18487903610E+00 -0.22461567097E-01  0.33270659385E-01  0.95688856026E+00  0.93800000000E+00 0.  1.
         22    1    1    2    0    0  0.16772039405E+00 -0.11083528241E+00  0.26155846901E+01  0.26232990416E+01  0.00000000000E+00 0.  1.
</event>
<event>
 5    1  0.3222854E+002  0.1599673E+01  0.7818608E-02  0.3353718E+00
         11   -1    0    0    0    0  0.00000000000E+00  0.00000000000E+00  0.39999999674E+01  0.40000000000E+01  0.51100000000E-03 0. -1.
    9000002   -1    0    0    0    0 -0.00000000000E+00 -0.00000000000E+00  0.00000000000E+00  0.93800000000E+00  0.93800000000E+00 0. -1.
         11    1    1    2    0    0 -0.16519873169E-01  0.10888345183E-01  0.24588551139E+00  0.24668078179E+00  0.51100000000E-03 0. -1.
    9000002    1    1    2    0    0  0.26241912297E+00 -0.19141452233E+00  0.70555907037E-01  0.99515096919E+00  0.93800000000E+00 0. -1.
         22    1    1    2    0    0 -0.24589924980E+00  0.18052617715E+00  0.36835585489E+01  0.36961682490E+01  0.00000000000E+00 0. -1.
</event>
<event>
 5    1  0.3222854E+002  0.1599592E+01  0.7818608E-02  0.3353807E+00
         11   -1    0    0    0    0  0.00000000000E+00  0.00000000000E+00  0.39999999674E+01  0.40000000000E+01  0.51100000000E-03 0. -1.
    9000002   -1    0    0    0    0 -0.00000000000E+00 -0.00000000000E+00  0.00000000000E+00  0.93800000000E+00  0.93800000000E+00 0. -1.
         11    1    1    2    0    0 -0.60342210333E-02 -0.89626515316E-01  0.10775016265E+01  0.10812397238E+01  0.51100000000E-03 0. -1.
    9000002    1    1    2    0    0  0.34988240578E-01  0.35919761780E+00  0.87508142997E-01  0.10088353586E+01  0.93800000000E+00 0. -1.
         22    1    1    2    0    0 -0.28954019545E-01 -0.26957110248E+00  0.28349901978E+01  0.28479249176E+01  0.00000000000E+00 0. -1.
</event>
<event>
 5    1  0.3222854E+002  0.1452129E+01  0.7818608E-02  0.3531355E+00
         11   -1    0    0    0    0  0.00000000000E+00  0.00000000000E+00  0.39999999674E+01  0.40000000000E+01  0.51100000000E-03 0. -1.
    9000002   -1    0    0    0    0 -0.00000000000E+00 -0.00000000000E+00  0.00000000000E+00  0.93800000000E+00  0.93800000000E+00 0.  1.
         11    1    1    2    0    0 -0.47058460315E+00 -0.15729537191E+00  0.12053052994E+01  0.13034388473E+01  0.51100000000E-03 0. -1.
    9000002    1    1    2    0    0  0.96660980783E-01  0.26516572719E+00  0.18605778883E+00  0.99705451650E+00  0.93800000000E+00 0.  1.
         22    1    1    2    0    0  0.37392362237E+00 -0.10787035528E+00  0.26086368791E+01  0.26375066362E+01  0.00000000000E+00 0. -1.
</event>
<event>
 5    1  0.3222854E+002  0.1599677E+01  0.7818608E-02  0.3353714E+00
         11   -1    0    0    0    0  0.00000000000E+00  0.00000000000E+00  0.39999999674E+01  0.40000000000E+01  0.51100000000E-03 0.  1.
    9000002   -1    0    0    0    0 -0.00000000000E+00 -0.00000000000E+00  0.00000000000E+00  0.93800000000E+00  0.93800000000E+00 0. -1.
         11    1    1    2    0    0 -0.24387781957E-01  0.48533613451E-01  0.80635394433E+00  0.80818142777E+00  0.51100000000E-03 0. -1.
    9000002    1    1    2    0    0  0.12041237361E+00 -0.23646431492E+00  0.46832677493E-01  0.97593637683E+00  0.93800000000E+00 0. -1.
         22    1    1    2    0    0 -0.96024591651E-01  0.18793070147E+00  0.31468133455E+01  0.31538821954E+01  0.00000000000E+00 0.  1.
</event>
<event>
 5    1  0.3222854E+002  0.1537996E+01  0.7818608E-02  0.3423538E+00
         11   -1    0    0    0    0  0.00000000000E+00  0.00000000000E+00  0.39999999674E+01  0.40000000000E+01  0.51100000000E-03 0. -1.
    9000002   -1    0    0    0    0 -0.00000000000E+00 -0.00000000000E+00  0.00000000000E+00  0.93800000000E+00  0.93800000000E+00 0.  1.
         11    1    1    2    0    0  0.18521556809E+00 -0.10423768617E+00  0.65642514801E+00  0.68997430238E+00  0.51100000000E-03 0. -1.
    9000002    1    1    2    0    0  0.20563595668E+00  0.31825193271E+00  0.14903738182E+00  0.10225588396E+01  0.93800000000E+00 0.  1.
         22    1    1    2    0    0 -0.39085152476E+00 -0.21401424654E+00  0.31945374375E+01  0.32254668580E+01  0.00000000000E+00 0. -1.
</event>
<event>
 5    1  0.3222854E+002  0.1599676E+01  0.7818608E-02  0.3353715E+00
         11   -1    0    0    0    0  0.00000000000E+00  0.00000000000E+00  0.39999999674E+01  0.40000000000E+01  0.51100000000E-03 0.  1.
    9000002   -1    0    0    0    0 -0.00000000000E+00 -0.00000000000E+00  0.00000000000E+00  0.93800000000E+00  0.93800000000E+00 0.  1.
         11    1    1    2    0    0 -0.45496834019E-01 -0.14384594585E+00  0.16568087972E+01  0.16636638091E+01  0.51100000000E-03 0.  1.
    9000002    1    1    2    0    0  0.11038758520E+00  0.34115174080E+00  0.86291117736E-01  0.10078988472E+01  0.93800000000E+00 0.  1.
         22    1    1    2    0    0 -0.64890751183E-01 -0.19730579494E+00  0.22569000524E+01  0.22664373437E+01  0.00000000000E+00 0.  1.
</event>
<event>
 5    1  0.3222854E+002  0.1599559E+01  0.7818608E-02  0.3353843E+00
         11   -1    0    0    0    0  0.00000000000E+00  0.00000000000E+00  0.39999999674E+01  0.40000000000E+01  0.51100000000E-03 0. -1.
    9000002   -1    0    0    0    0 -0.00000000000E+00 -0.00000000000E+00  0.00000000000E+00  0.93800000000E+00  0.93800000000E+00 0. -1.
         11    1    1    2    0    0  0.31255566076E-01  0.26076925988E+00  0.10031124059E+01  0.10369244318E+01  0.51100000000E-03 0. -1.
    9000002    1    1    2    0    0 -0.14536828792E+00 -0.87476099808E+00  0.59867130494E+00  0.14228809066E+01  0.93800000000E+00 0. -1.
         22    1    1    2    0    0  0.11411272185E+00  0.61399173820E+00  0.23982162566E+01  0.24781946617E+01  0.00000000000E+00 0. -1.
</event>
<event>
 5    1  0.3222854E+002  0.1587361E+01  0.7818608E-02  0.3367196E+00
         11   -1    0    0    0    0  0.00000000000E+00  0.00000000000E+00  0.39999999674E+01  0.40000000000E+01  0.51100000000E-03 0.  1.
    9000002   -1    0    0    0    0 -0.00000000000E+00 -0.00000000000E+00  0.00000000000E+00  0.93800000000E+00  0.93800000000E+00 0. -1.
         11    1    1    2    0    0 -0.14827918631E-02 -0.12314521281E+00  0.78216806321E+00  0.79180432074E+00  0.51100000000E-03 0.  1.
    9000002    1    1    2    0    0 -0.23123045674E+00  0.13890810087E+00  0.57968966183E-01  0.97773584656E+00  0.93800000000E+00 0. -1.
         22    1    1    2    0    0  0.23271324860E+00 -0.15762888067E-01  0.31598629380E+01  0.31684598327E+01  0.00000000000E+00 0.  1.
</event>
<event>
 5    1  0.3222854E+002  0.1592069E+01  0.7818608E-02  0.3362017E+00
         11   -1    0    0    0    0  0.00000000000E+00  0.00000000000E+00  0.39999999674E+01  0.40000000000E+01  0.51100000000E-03 0.  1.
    9000002   -1    0    0    0    0 -0.00000000000E+00 -0.00000000000E+00  0.00000000000E+00  0.93800000000E+00  0.93800000000E+00 0.  1.
         11    1    1    2    0    0 -0.53440154331E-01 -0.17434528033E-01  0.20212381233E+00  0.20979539913E+00  0.51100000000E-03 0.  1.
    9000002    1    1    2    0    0  0.23598457177E+00 -0.85219226873E-01  0.47660013470E-01  0.97214531405E+00  0.93800000000E+00 0.  1.
         22    1    1    2    0    0 -0.18254441744E+00  0.10265375491E+00  0.37502161416E+01  0.37560592868E+01  0.00000000000E+00 0.  1.
</event>
<event>
 5    1  0.3222854E+002  0.1599486E+01  0.7818608E-02  0.3353921E+00
         11   -1    0    0    0    0  0.00000000000E+00  0.00000000000E+00  0.39999999674E+01  0.40000000000E+01  0.51100000000E-03 0.  1.
    9000002   -1    0    0    0    0 -0.00000000000E+00 -0.00000000000E+00  0.00000000000E+00  0.93800000000E+00  0.93800000000E+00 0.  1.
         11    1    1    2    0    0 -0.19807141723E+00 -0.23599396460E+00  0.23610477402E+01  0.23810653352E+01  0.51100000000E-03 0.  1.
    9000002    1    1    2    0    0  0.34498781999E+00  0.38923464688E+00  0.18600397494E+00  0.10885594540E+01  0.93800000000E+00 0.  1.
         22    1    1    2    0    0 -0.14691640276E+00 -0.15324068228E+00  0.14529482522E+01  0.14683752108E+01  0.00000000000E+00 0. -1.
</event>
<event>
 5    1  0.3222854E+002  0.1599593E+01  0.7818608E-02  0.3353805E+00
         11   -1    0    0    0    0  0.00000000000E+00  0.00000000000E+00  0.39999999674E+01  0.40000000000E+01  0.51100000000E-03 0. -1.
    9000002   -1    0    0    0    0 -0.00000000000E+00 -0.00000000000E+00  0.00000000000E+00  0.93800000000E+00  0.93800000000E+00 0.  1.
         11    1    1    2    0    0  0.15162788345E+00  0.71024453914E-01  0.14990476188E+01  0.15083698196E+01  0.51100000000E-03 0. -1.
    9000002    1    1    2    0    0 -0.41487537531E+00 -0.16918353100E+00  0.13637591442E+00  0.10484212103E+01  0.93800000000E+00 0.  1.
         22    1    1    2    0    0  0.26324749186E+00  0.98159077086E-01  0.23645764342E+01  0.23812089701E+01  0.00000000000E+00 0. -1.
</event>
<event>
 5    1  0.3222854E+002  0.1598284E+01  0.7818608E-02  0.3355228E+00
         11   -1    0    0    0    0  0.00000000000E+00  0.00000000000E+00  0.39999999674E+01  0.40000000000E+01  0.51100000000E-03 0.  1.
    9000002   -1    0    0    0    0 -0.00000000000E+00 -0.00000000000E+00  0.00000000000E+00  0.93800000000E+00  0.93800000000E+00 0. -1.
         11    1    1    2    0    0  0.55924514489E-02  0.42700453871E-02  0.42688178853E-01  0.43267199304E-01  0.51100000000E-03 0.  1.
    9000002    1    1    2    0    0  0.93854286182E-01  0.20746823455E+00  0.35443794255E-01  0.96589438239E+00  0.93800000000E+00 0. -1.
         22    1    1    2    0    0 -0.99446737631E-01 -0.21173827994E+00  0.39218679943E+01  0.39288384183E+01  0.00000000000E+00 0.  1.
</event>
<event>
 5    1  0.3222854E+002  0.1599615E+01  0.7818608E-02  0.3353781E+00
         11   -1    0    0    0    0  0.00000000000E+00  0.00000000000E+00  0.39999999674E+01  0.40000000000E+01  0.51100000000E-03 0. -1.
    9000002   -1    0    0    0    0 -0.00000000000E+00 -0.00000000000E+00  0.00000000000E+00  0.93800000000E+00  0.93800000000E+00 0.  1.
         11    1    1    2    0    0 -0.46662124564E-01 -0.11024271031E+00  0.12816484327E+01  0.12872271653E+01  0.51100000000E-03 0. -1.
    9000002    1    1    2    0    0  0.14957420709E+00  0.36129976134E+00  0.10307509909E+00  0.10214589747E+01  0.93800000000E+00 0.  1.
         22    1    1    2    0    0 -0.10291208253E+00 -0.25105705103E+00  0.26152764356E+01  0.26293138600E+01  0.00000000000E+00 0. -1.
</event>
<event>
 5    1  0.3222854E+002  0.1597571E+01  0.7818608E-02  0.3356004E+00
         11   -1    0    0    0    0  0.00000000000E+00  0.00000000000E+00  0.39999999674E+01  0.40000000000E+01  0.51100000000E-03 0. -1.
    9000002   -1    0    0    0    0 -0.00000000000E+00 -0.00000000000E+00  0.00000000000E+00  0.93800000000E+00  0.93800000000E+00 0.  1.
         11    1    1    2    0    0 -0.23930828449E+00 -0.14552105355E+00  0.11281013972E+01  0.11623501433E+01  0.51100000000E-03 0. -1.
    9000002    1    1    2    0    0  0.76797330082E+00  0.29287896440E+00  0.50427513389E+00  0.13452503444E+01  0.93800000000E+00 0.  1.
         22    1    1    2    0    0 -0.52866501633E+00 -0.14735791085E+00  0.23676234363E+01  0.24303995123E+01  0.00000000000E+00 0. -1.
</event>
<event>
 5    1  0.3222854E+002  0.1599677E+01  0.7818608E-02  0.3353714E+00
         11   -1    0    0    0    0  0.00000000000E+00  0.00000000000E+00  0.39999999674E+01  0.40000000000E+01  0.51100000000E-03 0. -1.
    9000002   -1    0    0    0    0 -0.00000000000E+00 -0.00000000000E+00  0.00000000000E+00  0.93800000000E+00  0.93800000000E+00 0.  1.
         11    1    1    2    0    0  0.61740054032E-01  0.59204276766E-01  0.11541433773E+01  0.11573090241E+01  0.51100000000E-03 0. -1.
    9000002    1    1    2    0    0 -0.21255575622E+00 -0.20182190198E+00  0.57276830157E-01  0.98439659939E+00  0.93800000000E+00 0.  1.
         22    1    1    2    0    0  0.15081570218E+00  0.14261762521E+00  0.27885797599E+01  0.27962943765E+01  0.00000000000E+00 0. -1.
</event>
<event>
 5    1  0.3222854E+002  0.1599676E+01  0.7818608E-02  0.3353716E+00
         11   -1    0    0    0    0  0.00000000000E+00  0.00000000000E+00  0.39999999674E+01  0.40000000000E+01  0.51100000000E-03 0. -1.
    9000002   -1    0    0    0    0 -0.00000000000E+00 -0.00000000000E+00  0.00000000000E+00  0.93800000000E+00  0.93800000000E+00 0. -1.
         11    1    1    2    0    0  0.78195274760E-01  0.24870988927E-01  0.11262707830E+01  0.11292560404E+01  0.51100000000E-03 0. -1.
    9000002    1    1    2    0    0 -0.27823339481E+00 -0.87548005295E-01  0.56714706827E-01  0.98394056385E+00  0.93800000000E+00 0. -1.
         22    1    1    2    0    0  0.20003812005E+00  0.62677016369E-01  0.28170144776E+01  0.28248033958E+01  0.00000000000E+00 0. -1.
</event>
<event>
 5    1  0.3222854E+002  0.1592657E+01  0.7818608E-02  0.3361372E+00
         11   -1    0    0    0    0  0.00000000000E+00  0.00000000000E+00  0.39999999674E+01  0.40000000000E+01  0.51100000000E-03 0.  1.
    9000002   -1    0    0    0    0 -0.00000000000E+00 -0.00000000000E+00  0.00000000000E+00  0.93800000000E+00  0.93800000000E+00 0.  1.
         11    1    1    2    0    0 -0.20306623050E+00 -0.52307708274E+00  0.21375233851E+01  0.22099438932E+01  0.51100000000E-03 0.  1.
    9000002    1    1    2    0    0  0.17300828332E+00  0.81772800775E+00  0.53088971642E+00  0.13639277297E+01  0.93800000000E+00 0.  1.
         22    1    1    2    0    0  0.30057947181E-01 -0.29465092501E+00  0.13315868659E+01  0.13641283771E+01  0.00000000000E+00 0.  1.
</event>
<event>
 5    1  0.3222854E+002  0.1595401E+01  0.7818608E-02  0.3358370E+00
         11   -1    0    0    0    0  0.00000000000E+00  0.00000000000E+00  0.39999999674E+01  0.40000000000E+01  0.51100000000E-03 0. -1.
    9000002   -1    0    0    0    0 -0.00000000000E+00 -0.00000000000E+00  0.00000000000E+00  0.93800000000E+00  0.93800000000E+00 0. -1.
         11    1    1    2    0    0 -0.82290512550E-02 -0.18976552041E-03  0.12366727152E+01  0.12367002139E+01  0.51100000000E-03 0. -1.
    9000002    1    1    2    0    0 -0.98714449580E-01 -0.19701351672E+00  0.35423825066E-01  0.96418759363E+00  0.93800000000E+00 0. -1.
         22    1    1    2    0    0  0.10694350083E+00  0.19720328224E+00  0.27279034270E+01  0.27371121925E+01  0.00000000000E+00 0. -1.
</event>
<event>
 5    1  0.3222854E+002  0.1597870E+01  0.7818608E-02  0.3355678E+00
         11   -1    0    0    0    0  0.00000000000E+00  0.00000000000E+00  0.39999999674E+01  0.40000000000E+01  0.51100000000E-03 0. -1.
    9000002   -1    0    0    0    0 -0.00000000000E+00 -0.00000000000E+00  0.00000000000E+00  0.93800000000E+00  0.93800000000E+00 0. -1.
         11    1    1    2    0    0 -0.38018604813E-01  0.98943780635E-01  0.54025873587E+00  0.55055885139E+00  0.51100000000E-03 0. -1.
    9000002    1    1    2    0    0  0.23904913190E+00 -0.44683501927E+00  0.17763836449E+00  0.10808355150E+01  0.93800000000E+00 0. -1.
         22    1    1    2    0    0 -0.20103052709E+00  0.34789123864E+00  0.32821028670E+01  0.33066056336E+01  0.00000000000E+00 0. -1.
</event>
<event>
 5    1  0.3222854E+002  0.1550674E+01  0.7818608E-02  0.3408704E+00
         11   -1    0    0    0    0  0.00000000000E+00  0.00000000000E+00  0.39999999674E+01  0.40000000000E+01  0.51100000000E-03 0. -1.
    9000002   -1    0    0    0    0 -0.00000000000E+00 -0.00000000000E+00  0.00000000000E+00  0.93800000000E+00  0.93800000000E+00 0. -1.
         11    1    1    2    0    0  0.28368226145E+00 -0.14447615840E-01  0.16666949623E+01  0.16907266832E+01  0.51100000000E-03 0. -1.
    9000002    1    1    2    0    0 -0.72120858129E-01 -0.13593236594E+00  0.52756438648E-01  0.95200119123E+00  0.93800000000E+00 0. -1.
         22    1    1    2    0    0 -0.21156140333E+00  0.15037998178E+00  0.22805485665E+01  0.22952721255E+01  0.00000000000E+00 0.  1.
</event>
<event>
 5    1  0.3222854E+002  0.1599211E+01  0.7818608E-02  0.3354220E+00
         11   -1    0    0    0    0  0.00000000000E+00  0.00000000000E+00  0.39999999674E+01  0.40000000000E+01  0.51100000000E-03 0.  1.
    9000002   -1    0    0    0    0 -0.00000000000E+00 -0.00000000000E+00  0.00000000000E+00  0.93800000000E+00  0.93800000000E+00 0. -1.
         11    1    1    2    0    0  0.67357208447E-01  0.27552681640E-01  0.13307215946E+01  0.13327101588E+01  0.51100000000E-03 0.  1.
    9000002    1    1    2    0    0 -0.27256403342E+00 -0.85644783027E-01  0.54745447785E-01  0.98207293274E+00  0.93800000000E+00 0. -1.
         22    1    1    2    0    0  0.20520682498E+00  0.58092101386E-01  0.26145329250E+01  0.26232169085E+01  0.00000000000E+00 0.  1.
</event>
<event>
 5    1  0.3222854E+002  0.1599668E+01  0.7818608E-02  0.3353724E+00
         11   -1    0    0    0    0  0.00000000000E+00  0.00000000000E+00  0.39999999674E+01  0.40000000000E+01  0.51100000000E-03 0.  1.
    9000002   -1    0    0    0    0 -0.00000000000E+00 -0.00000000000E+00  0.00000000000E+00  0.93800000000E+00  0.93800000000E+00 0.  1.
         11    1    1    2    0    0 -0.16143384974E+00  0.17726235897E+00  0.15583590203E+01  0.15766946213E+01  0.51100000000E-03 0.  1.
    9000002    1    1    2    0    0  0.39792076005E+00 -0.43013340650E+00  0.23886169851E+00  0.11314833581E+01  0.93800000000E+00 0.  1.
         22    1    1    2    0    0 -0.23648691030E+00  0.25287104753E+00  0.22027792486E+01  0.22298220205E+01  0.00000000000E+00 0. -1.
</event>
<event>
 5    1  0.3222854E+002  0.1430528E+01  0.7818608E-02  0.3560694E+00
         11   -1    0    0    0    0  0.00000000000E+00  0.00000000000E+00  0.39999999674E+01  0.40000000000E+01  0.51100000000E-03 0. -1.
    9000002   -1    0    0    0    0 -0.00000000000E+00 -0.00000000000E+00  0.00000000000E+00  0.93800000000E+00  0.93800000000E+00 0. -1.
         11    1    1    2    0    0  0.25690074104E+00 -0.44981080639E+00  0.18407045193E+01  0.19122032164E+01  0.51100000000E-03 0. -1.
    9000002    1    1    2    0    0 -0.65365840964E+00 -0.70793669695E-01  0.51484245100E+00  0.12558613815E+01  0.93800000000E+00 0. -1.
         22    1    1    2    0    0  0.39675766860E+00  0.52060447609E+00  0.16444529971E+01  0.17699354021E+01  0.00000000000E+00 0. -1.
</event>
<event>
 5    1  0.3222854E+002  0.1502348E+01  0.7818608E-02  0.3466685E+00
         11   -1    0    0    0    0  0.00000000000E+00  0.00000000000E+00  0.39999999674E+01  0.40000000000E+01  0.51100000000E-03 0.  1.
    9000002   -1    0    0    0    0 -0.00000000000E+00 -0.00000000000E+00  0.00000000000E+00  0.93800000000E+00  0.93800000000E+00 0.  1.
         11    1    1    2    0    0 -0.18845591221E+00  0.16178484968E+00  0.27904028150E+00  0.37356888020E+00  0.51100000000E-03 0.  1.
    9000002    1    1    2    0    0  0.56465872222E+00 -0.22454615114E-01  0.32137552307E+00  0.11412580379E+01  0.93800000000E+00 0.  1.
         22    1    1    2    0    0 -0.37620281001E+00 -0.13933023456E+00  0.33995841628E+01  0.34231730819E+01  0.00000000000E+00 0.  1.
</event>
<event>
 5    1  0.3222854E+002  0.1599676E+01  0.7818608E-02  0.3353716E+00
         11   -1    0    0    0    0  0.00000000000E+00  0.00000000000E+00  0.39999999674E+01  0.40000000000E+01  0.51100000000E-03 0.  1.
    9000002   -1    0    0    0    0 -0.00000000000E+00 -0.00000000000E+00  0.00000000000E+00  0.93800000000E+00  0.93800000000E+00 0.  1.
         11    1    1    2    0    0  0.13302519455E+00  0.10634095137E+00  0.13583537511E+01  0.13689884129E+01  0.51100000000E-03 0.  1.
    9000002    1    1    2    0    0 -0.37250695409E+00 -0.30054832773E+00  0.15628013645E+00  0.10645929782E+01  0.93800000000E+00 0.  1.
         22    1    1    2    0    0  0.23948175954E+00  0.19420737636E+00  0.24853660798E+01  0.25044186089E+01  0.00000000000E+00 0.  1.
</event>
<event>
 5    1  0.3222854E+002  0.1599495E+01  0.7818608E-02  0.3353912E+00
         11   -1    0    0    0    0  0.00000000000E+00  0.00000000000E+00  0.39999999674E+01  0.40000000000E+01  0.51100000000E-03 0.  1.
    9000002   -1    0    0    0    0 -0.00000000000E+00 -0.00000000000E+00  0.00000000000E+00  0.93800000000E+00  0.93800000000E+00 0. -1.
         11    1    1    2    0    0 -0.42245936045E-01 -0.39598536370E-01  0.86668065761E+00  0.86861290952E+00  0.51100000000E-03 0.  1.
    9000002    1    1    2    0    0  0.25304201445E+00  0.17648643446E+00  0.63688771127E-01  0.98948369476E+00  0.93800000000E+00 0. -1.
         22    1    1    2    0    0 -0.21079607840E+00 -0.13688789809E+00  0.30696305386E+01  0.30799033957E+01  0.00000000000E+00 0.  1.
</event>
<event>
 5    1  0.3222854E+002  0.1599663E+01  0.7818608E-02  0.3353729E+00
         11   -1    0    0    0    0  0.00000000000E+00  0.00000000000E+00  0.39999999674E+01  0.40000000000E+01  0.51100000000E-03 0.  1.
    9000002   -1    0    0    0    0 -0.00000000000E+00 -0.00000000000E+00  0.00000000000E+00  0.93800000000E+00  0.93800000000E+00 0. -1.
         11    1    1    2    0    0 -0.12526711972E+00 -0.12984148073E+00  0.13997593177E+01  0.14113387510E+01  0.51100000000E-03 0.  1.
    9000002    1    1    2    0    0  0.33663283242E+00  0.36537713077E+00  0.16888591368E+00  0.10747969871E+01  0.93800000000E+00 0. -1.
         22    1    1    2    0    0 -0.21136571271E+00 -0.23553565004E+00  0.24313547359E+01  0.24518642619E+01  0.00000000000E+00 0.  1.
</event>
<event>
 5    1  0.3222854E+002  0.1587681E+01  0.7818608E-02  0.3366843E+00
         11   -1    0    0    0    0  0.00000000000E+00  0.00000000000E+00  0.39999999674E+01  0.40000000000E+01  0.51100000000E-03 0. -1.
    9000002   -1    0    0    0    0 -0.00000000000E+00 -0.00000000000E+00  0.00000000000E+00  0.93800000000E+00  0.93800000000E+00 0. -1.
         11    1    1    2    0    0  0.29101156055E-02  0.13093642017E-01  0.60712499289E-02  0.14732054534E-01  0.51100000000E-03 0. -1.
    9000002    1    1    2    0    0 -0.20485924984E+00  0.62179313976E-01  0.39459692065E-01  0.96293023975E+00  0.93800000000E+00 0. -1.
         22    1    1    2    0    0  0.20194913423E+00 -0.75272955992E-01  0.39544690254E+01  0.39603377057E+01  0.00000000000E+00 0. -1.
</event>
<event>
 5    1  0.3222854E+002  0.1598226E+01  0.7818608E-02  0.3355291E+00
         11   -1    0    0    0    0  0.00000000000E+00  0.00000000000E+00  0.39999999674E+01  0.40000000000E+01  0.51100000000E-03 0.  1.
    9000002   -1    0    0    0    0 -0.00000000000E+00 -0.00000000000E+00  0.00000000000E+00  0.93800000000E+00  0.93800000000E+00 0.  1.
         11    1    1    2    0    0 -0.89683640743E-01  0.65869049636E-01  0.12342130353E+01  0.12392190947E+01  0.51100000000E-03 0.  1.
    9000002    1    1    2    0    0  0.16139049416E+00 -0.26367312401E+00  0.64953217120E-01  0.98976427918E+00  0.93800000000E+00 0.  1.
         22    1    1    2    0    0 -0.71706853413E-01  0.19780407438E+00  0.27008337150E+01  0.27090166261E+01  0.00000000000E+00 0.  1.
</event>
<event>
 5    1  0.3222854E+002  0.1599673E+01  0.7818608E-02  0.3353719E+00
         11   -1    0    0    0    0  0.00000000000E+00  0.00000000000E+00  0.39999999674E+01  0.40000000000E+01  0.51100000000E-03 0. -1.
    9000002   -1    0    0    0    0 -0.00000000000E+00 -0.00000000000E+00  0.00000000000E+00  0.93800000000E+00  0.93800000000E+00 0. -1.
         11    1    1    2    0    0  0.12202306792E+00  0.86964000133E-01  0.49132459167E+00  0.51366572976E+00  0.51100000000E-03 0. -1.
    9000002    1    1    2    0    0 -0.80306100936E+00 -0.58004711171E+00  0.78533169873E+00  0.15741510454E+01  0.93800000000E+00 0. -1.
         22    1    1    2    0    0  0.68103794145E+00  0.49308311158E+00  0.27233436770E+01  0.28501832249E+01  0.00000000000E+00 0. -1.
</event>
<event>
 5    1  0.3222854E+002  0.1599674E+01  0.7818608E-02  0.3353717E+00
         11   -1    0    0    0    0  0.00000000000E+00  0.00000000000E+00  0.39999999674E+01  0.40000000000E+01  0.51100000000E-03 0.  1.
    9000002   -1    0    0    0    0 -0.00000000000E+00 -0.00000000000E+00  0.00000000000E+00  0.93800000000E+00  0.93800000000E+00 0.  1.
         11    1    1    2    0    0 -0.17242641834E+00  0.13858503297E+00  0.17155138904E+01  0.17297181419E+01  0.51100000000E-03 0.  1.
    9000002    1    1    2    0    0  0.38212995703E+00 -0.30712776979E+00  0.16427024713E+00  0.10710646503E+01  0.93800000000E+00 0.  1.
         22    1    1    2    0    0 -0.20970353869E+00  0.16854273682E+00  0.21202158298E+01  0.21372172078E+01  0.00000000000E+00 0.  1.
</event>
<event>
 5    1  0.3222854E+002  0.1595910E+01  0.7818608E-02  0.3357814E+00
         11   -1    0    0    0    0  0.00000000000E+00  0.00000000000E+00  0.39999999674E+01  0.40000000000E+01  0.51100000000E-03 0.  1.
    9000002   -1    0    0    0    0 -0.00000000000E+00 -0.00000000000E+00  0.00000000000E+00  0.93800000000E+00  0.93800000000E+00 0.  1.
         11    1    1    2    0    0 -0.38891020296E-01 -0.45095077354E-01  0.14498044194E+01  0.14510269443E+01  0.51100000000E-03 0.  1.
    9000002    1    1    2    0    0  0.12364273668E+00  0.31437123026E+00  0.79432449689E-01  0.10001351463E+01  0.93800000000E+00 0.  1.
         22    1    1    2    0    0 -0.84751716388E-01 -0.26927615291E+00  0.24707630983E+01  0.24868379095E+01  0.00000000000E+00 0.  1.
</event>
<event>
 5    1  0.3222854E+002  0.1565580E+01  0.7818608E-02  0.3391591E+00
         11   -1    0    0    0    0  0.00000000000E+00  0.00000000000E+00  0.39999999674E+01  0.40000000000E+01  0.51100000000E-03 0.  1.
    9000002   -1    0    0    0    0 -0.00000000000E+00 -0.00000000000E+00  0.00000000000E+00  0.93800000000E+00  0.93800000000E+00 0.  1.
         11    1    1    2    0    0 -0.13029962889E+00 -0.43138355475E+00  0.12169023867E+01  0.12976599880E+01  0.51100000000E-03 0.  1.
    9000002    1    1    2    0    0  0.94802533326E-01  0.70713099551E+00  0.40515652020E+00  0.12462012562E+01  0.93800000000E+00 0.  1.
         22    1    1    2    0    0  0.35497095562E-01 -0.27574744076E+00  0.23779410604E+01  0.23941387557E+01  0.00000000000E+00 0.  1.
</event>
<event>
 5    1  0.3222854E+002  0.1599673E+01  0.7818608E-02  0.3353718E+00
         11   -1    0    0    0    0  0.00000000000E+00  0.00000000000E+00  0.39999999674E+01  0.40000000000E+01  0.51100000000E-03 0. -1.
    9000002   -1    0    0    0    0 -0.00000000000E+00 -0.00000000000E+00  0.00000000000E+00  0.93800000000E+00  0.93800000000E+00 0. -1.
         11    1    1    2    0    0  0.16356610597E+00  0.20558925752E-01  0.74553975227E+00  0.76354850782E+00  0.51100000000E-03 0. -1.
    9000002    1    1    2    0    0 -0.77883067261E+00 -0.10690610450E+00  0.45314093671E+00  0.13050620063E+01  0.93800000000E+00 0. -1.
         22    1    1    2    0    0  0.61526456664E+00  0.86347178750E-01  0.28013192784E+01  0.28693894859E+01  0.00000000000E+00 0. -1.
</event>
<event>
 5    1  0.3222854E+002  0.1552778E+01  0.7818608E-02  0.3406268E+00
         11   -1    0    0    0    0  0.00000000000E+00  0.00000000000E+00  0.39999999674E+01  0.40000000000E+01  0.51100000000E-03 0.  1.
    9000002   -1    0    0    0    0 -0.00000000000E+00 -0.00000000000E+00  0.00000000000E+00  0.93800000000E+00  0.93800000000E+00 0.  1.
         11    1    1    2    0    0 -0.13044608967E+00 -0.34166266024E-01  0.15460903340E+01  0.15519597604E+01  0.51100000000E-03 0.  1.
    9000002    1    1    2    0    0 -0.27460215477E+00  0.30169454729E+00  0.15272270656E+00  0.10342118586E+01  0.93800000000E+00 0.  1.
         22    1    1    2    0    0  0.40504824443E+00 -0.26752828127E+00  0.23011869268E+01  0.23518283810E+01  0.00000000000E+00 0.  1.
</event>
<event>
 5    1  0.3222854E+002  0.1599641E+01  0.7818608E-02  0.3353753E+00
         11   -1    0    0    0    0  0.00000000000E+00  0.00000000000E+00  0.39999999674E+01  0.40000000000E+01  0.51100000000E-03 0.  1.
    9000002   -1    0    0    0    0 -0.00000000000E+00 -0.00000000000E+00  0.00000000000E+00  0.93800000000E+00  0.93800000000E+00 0.  1.
         11    1    1    2    0    0 -0.86417096584E-01 -0.90926272961E-01  0.12874098213E+01  0.12935067881E+01  0.51100000000E-03 0.  1.
    9000002    1    1    2    0    0  0.24287519535E+00  0.27022740837E+00  0.88676865071E-01  0.10098112691E+01  0.93800000000E+00 0.  1.
         22    1    1    2    0    0 -0.15645809877E+00 -0.17930113541E+00  0.26239132810E+01  0.26346819429E+01  0.00000000000E+00 0.  1.
</event>
<event>
 5    1  0.3222854E+002  0.1561397E+01  0.7818608E-02  0.3396358E+00
         11   -1    0    0    0    0  0.00000000000E+00  0.00000000000E+00  0.39999999674E+01  0.40000000000E+01  0.51100000000E-03 0. -1.
    9000002   -1    0    0    0    0 -0.00000000000E+00 -0.00000000000E+00  0.00000000000E+00  0.93800000000E+00  0.93800000000E+00 0. -1.
         11    1    1    2    0    0  0.16591639436E+00 -0.21728820650E+00  0.89957449202E+00  0.94020047991E+00  0.51100000000E-03 0. -1.
    9000002    1    1    2    0    0 -0.35043836987E-01  0.39670305130E+00  0.13948571854E+00  0.10285434590E+01  0.93800000000E+00 0. -1.
         22    1    1    2    0    0 -0.13087255737E+00 -0.17941484480E+00  0.29609397568E+01  0.29692560611E+01  0.00000000000E+00 0. -1.
</event>
<event>
 5    1  0.3222854E+002  0.1433367E+01  0.7818608E-02  0.3556783E+00
         11   -1    0    0    0    0  0.00000000000E+00  0.00000000000E+00  0.39999999674E+01  0.40000000000E+01  0.51100000000E-03 0. -1.
    9000002   -1    0    0    0    0 -0.00000000000E+00 -0.00000000000E+00  0.00000000000E+00  0.93800000000E+00  0.93800000000E+00 0.  1.
         11    1    1    2    0    0 -0.19796103192E+00  0.17679667092E+00  0.34170066571E+01  0.34272992850E+01  0.51100000000E-03 0. -1.
    9000002    1    1    2    0    0 -0.49723058061E-01  0.52357808150E-01  0.13586148493E+00  0.95053462097E+00  0.93800000000E+00 0.  1.
         22    1    1    2    0    0  0.24768408998E+00 -0.22915447907E+00  0.44713182535E+00  0.56016609407E+00  0.00000000000E+00 0. -1.
</event>
<event>
 5    1  0.3222854E+002  0.1599677E+01  0.7818608E-02  0.3353714E+00
         11   -1    0    0    0    0  0.00000000000E+00  0.00000000000E+00  0.39999999674E+01  0.40000000000E+01  0.51100000000E-03 0. -1.
    9000002   -1    0    0    0    0 -0.00000000000E+00 -0.00000000000E+00  0.00000000000E+00  0.93800000000E+00  0.93800000000E+00 0.  1.
         11    1    1    2    0    0  0.63228088153E-01 -0.23384165179E-01  0.74486233146E+00  0.74790692219E+00  0.51100000000E-03 0.  1.
    9000002    1    1    2    0    0 -0.33284838057E+00  0.12395721696E+00  0.84636067136E-01  0.10065588408E+01  0.93800000000E+00 0.  1.
         22    1    1    2    0    0  0.26962029241E+00 -0.10057305178E+00  0.31705015688E+01  0.31835342370E+01  0.00000000000E+00 0. -1.
</event>
<event>
 5    1  0.3222854E+002  0.1595422E+01  0.7818608E-02  0.3358348E+00
         11   -1    0    0    0    0  0.00000000000E+00  0.00000000000E+00  0.39999999674E+01  0.40000000000E+01  0.51100000000E-03 0.  1.
    9000002   -1    0    0    0    0 -0.00000000000E+00 -0.00000000000E+00  0.00000000000E+00  0.93800000000E+00  0.93800000000E+00 0.  1.
         11    1    1    2    0    0 -0.37100126375E+00  0.36987662044E+00  0.84038507250E+00  0.99030196569E+00  0.51100000000E-03 0.  1.
    9000002    1    1    2    0    0  0.76867782638E+00 -0.10103493657E+01  0.18082431048E+01  0.24002621872E+01  0.93800000000E+00 0.  1.
         22    1    1    2    0    0 -0.39767656262E+00  0.64047274521E+00  0.13513717901E+01  0.15474358471E+01  0.00000000000E+00 0. -1.
</event>
<event>
 5    1  0.3222854E+002  0.1466448E+01  0.7818608E-02  0.3512426E+00
         11   -1    0    0    0    0  0.00000000000E+00  0.00000000000E+00  0.39999999674E+01  0.40000000000E+01  0.51100000000E-03 0.  1.
    9000002   -1    0    0    0    0 -0.00000000000E+00 -0.00000000000E+00  0.00000000000E+00  0.93800000000E+00  0.93800000000E+00 0. -1.
         11    1    1    2    0    0  0.31197854514E-01  0.37455386127E+00  0.12623984866E+01  0.13171613801E+01  0.51100000000E-03 0.  1.
    9000002    1    1    2    0    0  0.69017090563E-02  0.11092125861E+00  0.11282949819E+00  0.95127580378E+00  0.93800000000E+00 0. -1.
         22    1    1    2    0    0 -0.38099563571E-01 -0.48547511988E+00  0.26247719826E+01  0.26695628161E+01  0.00000000000E+00 0.  1.
</event>
<event>
 5    1  0.3222854E+002  0.1599677E+01  0.7818608E-02  0.3353714E+00
         11   -1    0    0    0    0  0.00000000000E+00  0.00000000000E+00  0.39999999674E+01  0.40000000000E+01  0.51100000000E-03 0.  1.
    9000002   -1    0    0    0    0 -0.00000000000E+00 -0.00000000000E+00  0.00000000000E+00  0.93800000000E+00  0.93800000000E+00 0.  1.
         11    1    1    2    0    0 -0.32165525659E+00  0.57152396313E-01  0.18527680287E+01  0.18813500817E+01  0.51100000000E-03 0.  1.
    9000002    1    1    2    0    0  0.64250851521E+00 -0.11483192207E+00  0.30080361629E+00  0.11816642408E+01  0.93800000000E+00 0.  1.
         22    1    1    2    0    0 -0.32085325861E+00  0.57679525759E-01  0.18464283223E+01  0.18749856775E+01  0.00000000000E+00 0.  1.
</event>
<event>
 5    1  0.3222854E+002  0.1594535E+01  0.7818608E-02  0.3359316E+00
         11   -1    0    0    0    0  0.00000000000E+00  0.00000000000E+00  0.39999999674E+01  0.40000000000E+01  0.51100000000E-03 0. -1.
    9000002   -1    0    0    0    0 -0.00000000000E+00 -0.00000000000E+00  0.00000000000E+00  0.93800000000E+00  0.93800000000E+00 0. -1.
         11    1    1    2    0    0 -0.23032878913E-01  0.64940817991E-01  0.64531175045E+00  0.64898023063E+00  0.51100000000E-03 0. -1.
    9000002    1    1    2    0    0  0.24434879183E+00 -0.20969927047E-01  0.43871548024E-01  0.97052294287E+00  0.93800000000E+00 0. -1.
         22    1    1    2    0    0 -0.22131591292E+00 -0.43970890943E-01  0.33108166689E+01  0.33184968265E+01  0.00000000000E+00 0. -1.
</event>
<event>
 5    1  0.3222854E+002  0.1599648E+01  0.7818608E-02  0.3353745E+00
         11   -1    0    0    0    0  0.00000000000E+00  0.00000000000E+00  0.39999999674E+01  0.40000000000E+01  0.51100000000E-03 0.  1.
    9000002   -1    0    0    0    0 -0.00000000000E+00 -0.00000000000E+00  0.00000000000E+00  0.93800000000E+00  0.93800000000E+00 0. -1.
         11    1    1    2    0    0 -0.27981336032E-02  0.83552729847E-02  0.19481165386E+00  0.19501149130E+00  0.51100000000E-03 0.  1.
    9000002    1    1    2    0    0  0.10818512235E+00 -0.19260515673E+00  0.32371749971E-01  0.96420573390E+00  0.93800000000E+00 0. -1.
         22    1    1    2    0    0 -0.10538698875E+00  0.18424988375E+00  0.37728165635E+01  0.37787827748E+01  0.00000000000E+00 0.  1.
</event>
<event>
 5    1  0.3222854E+002  0.1599675E+01  0.7818608E-02  0.3353716E+00
         11   -1    0    0    0    0  0.00000000000E+00  0.00000000000E+00  0.39999999674E+01  0.40000000000E+01  0.51100000000E-03 0.  1.
    9000002   -1    0    0    0    0 -0.00000000000E+00 -0.00000000000E+00  0.00000000000E+00  0.93800000000E+00  0.93800000000E+00 0. -1.
         11    1    1    2    0    0 -0.41646861633E-01 -0.44012261013E-03  0.49758807443E+00  0.49932835662E+00  0.51100000000E-03 0.  1.
    9000002    1    1    2    0    0  0.32100564054E+00  0.18988168808E-02  0.68885943929E-01  0.99379952709E+00  0.93800000000E+00 0. -1.
         22    1    1    2    0    0 -0.27935877891E+00 -0.14586942707E-02  0.34335259490E+01  0.34448721163E+01  0.00000000000E+00 0.  1.
</event>
<event>
 5    1  0.3222854E+002  0.1599666E+01  0.7818608E-02  0.3353726E+00
         11   -1    0    0    0    0  0.00000000000E+00  0.00000000000E+00  0.39999999674E+01  0.40000000000E+01  0.51100000000E-03 0. -1.
    9000002   -1    0    0    0    0 -0.00000000000E+00 -0.00000000000E+00  0.00000000000E+00  0.93800000000E+00  0.93800000000E+00 0. -1.
         11    1    1    2    0    0 -0.30595316799E+00  0.21872307053E+00  0.15918476367E+01  0.16356730364E+01  0.51100000000E-03 0. -1.
    9000002    1    1    2    0    0  0.66578908414E+00 -0.47633111941E+00  0.49687241138E+00  0.13404822390E+01  0.93800000000E+00 0. -1.
         22    1    1    2    0    0 -0.35983591615E+00  0.25760804888E+00  0.19112799193E+01  0.19618447246E+01  0.00000000000E+00 0. -1.
</event>
<event>
 5    1  0.3222854E+002  0.1599430E+01  0.7818608E-02  0.3353982E+00
         11   -1    0    0    0    0  0.00000000000E+00  0.00000000000E+00  0.39999999674E+01  0.40000000000E+01  0.51100000000E-03 0. -1.
    9000002   -1    0    0    0    0 -0.00000000000E+00 -0.00000000000E+00  0.00000000000E+00  0.93800000000E+00  0.93800000000E+00 0.  1.
         11    1    1    2    0    0  0.28498003179E-01  0.69943675296E-01  0.83198466036E+00  0.83540588344E+00  0.51100000000E-03 0. -1.
    9000002    1    1    2    0    0 -0.81827433184E-01 -0.28111740902E+00  0.57341150797E-01  0.98430418777E+00  0.93800000000E+00 0.  1.
         22    1    1    2    0    0  0.53329430005E-01  0.21117373373E+00  0.31106741562E+01  0.31182899288E+01  0.00000000000E+00 0.  1.
</event>
<event>
 5    1  0.3222854E+002  0.1599676E+01  0.7818608E-02  0.3353715E+00
         11   -1    0    0    0    0  0.00000000000E+00  0.00000000000E+00  0.39999999674E+01  0.40000000000E+01  0.51100000000E-03 0. -1.
    9000002   -1    0    0    0    0 -0.00000000000E+00 -0.00000000000E+00  0.00000000000E+00  0.93800000000E+00  0.93800000000E+00 0. -1.
         11    1    1    2    0    0 -0.21124742625E+00  0.12194707536E+00  0.18456046030E+01  0.18616533447E+01  0.51100000000E-03 0. -1.
    9000002    1    1    2    0    0  0.43909314232E+00 -0.25107251385E+00  0.17530965152E+00  0.10800081799E+01  0.93800000000E+00 0. -1.
         22    1    1    2    0    0 -0.22784571607E+00  0.12912543849E+00  0.19790857129E+01  0.19963384753E+01  0.00000000000E+00 0. -1.
</event>
<event>
 5    1  0.3222854E+002  0.1599676E+01  0.7818608E-02  0.3353715E+00
         11   -1    0    0    0    0  0.00000000000E+00  0.00000000000E+00  0.39999999674E+01  0.40000000000E+01  0.51100000000E-03 0.  1.
    9000002   -1    0    0    0    0 -0.00000000000E+00 -0.00000000000E+00  0.00000000000E+00  0.93800000000E+00  0.93800000000E+00 0. -1.
         11    1    1    2    0    0 -0.31071017972E+00  0.20231297931E+00  0.24077529657E+01  0.24361334040E+01  0.51100000000E-03 0.  1.
    9000002    1    1    2    0    0  0.48775217520E+00 -0.31686257810E+00  0.23513057584E+00  0.11284655358E+01  0.93800000000E+00 0. -1.
         22    1    1    2    0    0 -0.17704199548E+00  0.11454959879E+00  0.13571164258E+01  0.13734010601E+01  0.00000000000E+00 0.  1.
</event>
<event>
 5    1  0.3222854E+002  0.1599674E+01  0.7818608E-02  0.3353717E+00
         11   -1    0    0    0    0  0.00000000000E+00  0.00000000000E+00  0.39999999674E+01  0.40000000000E+01  0.51100000000E-03 0.  1.
    9000002   -1    0    0    0    0 -0.00000000000E+00 -0.00000000000E+00  0.00000000000E+00  0.93800000000E+00  0.93800000000E+00 0.  1.
         11    1    1    2    0    0  0.12164946111E+00 -0.38450361515E-01  0.14472759392E+01  0.14528884771E+01  0.51100000000E-03 0.  1.
    9000002    1    1    2    0    0 -0.32522369859E+00  0.10691980905E+00  0.78522031706E-01  0.10016047170E+01  0.93800000000E+00 0.  1.
         22    1    1    2    0    0  0.20357423749E+00 -0.68469447532E-01  0.24742019965E+01  0.24835068059E+01  0.00000000000E+00 0.  1.
</event>
<event>
 5    1  0.3222854E+002  0.1486399E+01  0.7818608E-02  0.3486711E+00
         11   -1    0    0    0    0  0.00000000000E+00  0.00000000000E+00  0.39999999674E+01  0.40000000000E+01  0.51100000000E-03 0. -1.
    9000002   -1    0    0    0    0 -0.00000000000E+00 -0.00000000000E+00  0.00000000000E+00  0.93800000000E+00  0.93800000000E+00 0.  1.
         11    1    1    2    0    0 -0.39808198832E-01 -0.34021595256E+00  0.31047287826E+01  0.31235672975E+01  0.51100000000E-03 0. -1.
    9000002    1    1    2    0    0  0.10420674459E+00  0.15805054946E-01  0.95197174011E-01  0.94869138676E+00  0.93800000000E+00 0.  1.
         22    1    1    2    0    0 -0.64398545755E-01  0.32441089761E+00  0.80007401074E+00  0.86574131578E+00  0.00000000000E+00 0.  1.
</event>
<event>
 5    1  0.3222854E+002  0.1581825E+01  0.7818608E-02  0.3373330E+00
         11   -1    0    0    0    0  0.00000000000E+00  0.00000000000E+00  0.39999999674E+01  0.40000000000E+01  0.51100000000E-03 0.  1.
    9000002   -1    0    0    0    0 -0.00000000000E+00 -0.00000000000E+00  0.00000000000E+00  0.93800000000E+00  0.93800000000E+00 0.  1.
         11    1    1    2    0    0 -0.71322223129E-01  0.29830946622E-01  0.48370779522E+00  0.48984715694E+00  0.51100000000E-03 0.  1.
    9000002    1    1    2    0    0 -0.23431081791E+00  0.29763001645E-01  0.50709337870E-01  0.96860870975E+00  0.93800000000E+00 0.  1.
         22    1    1    2    0    0  0.30563304104E+00 -0.59593948268E-01  0.34655828343E+01  0.34795441333E+01  0.00000000000E+00 0.  1.
</event>
<event>
 5    1  0.3222854E+002  0.1598546E+01  0.7818608E-02  0.3354943E+00
         11   -1    0    0    0    0  0.00000000000E+00  0.00000000000E+00  0.39999999674E+01  0.40000000000E+01  0.51100000000E-03 0. -1.
    9000002   -1    0    0    0    0 -0.00000000000E+00 -0.00000000000E+00  0.00000000000E+00  0.93800000000E+00  0.93800000000E+00 0. -1.
         11    1    1    2    0    0 -0.62513122176E-01  0.38077789421E-02  0.12625580824E+01  0.12641105815E+01  0.51100000000E-03 0. -1.
    9000002    1    1    2    0    0  0.25849056961E+00 -0.11181072369E+00  0.53705130262E-01  0.98084007541E+00  0.93800000000E+00 0. -1.
         22    1    1    2    0    0 -0.19597744744E+00  0.10800294475E+00  0.26837367547E+01  0.26930493431E+01  0.00000000000E+00 0. -1.
</event>
<event>
 5    1  0.3222854E+002  0.1583079E+01  0.7818608E-02  0.3371936E+00
         11   -1    0    0    0    0  0.00000000000E+00  0.00000000000E+00  0.39999999674E+01  0.40000000000E+01  0.51100000000E-03 0.  1.
    9000002   -1    0    0    0    0 -0.00000000000E+00 -0.00000000000E+00  0.00000000000E+00  0.93800000000E+00  0.93800000000E+00 0.  1.
         11    1    1    2    0    0  0.72330729954E-01 -0.13075464035E-02  0.72913151948E+00  0.73271172912E+00  0.51100000000E-03 0.  1.
    9000002    1    1    2    0    0 -0.94382130842E-01  0.57463348212E+00  0.25209971784E+00  0.11324795332E+01  0.93800000000E+00 0.  1.
         22    1    1    2    0    0  0.22051400887E-01 -0.57332593572E+00  0.30187687300E+01  0.30728087377E+01  0.00000000000E+00 0.  1.
</event>
<event>
 5    1  0.3222854E+002  0.1597376E+01  0.7818608E-02  0.3356216E+00
         11   -1    0    0    0    0  0.00000000000E+00  0.00000000000E+00  0.39999999674E+01  0.40000000000E+01  0.51100000000E-03 0.  1.
    9000002   -1    0    0    0    0 -0.00000000000E+00 -0.00000000000E+00  0.00000000000E+00  0.93800000000E+00  0.93800000000E+00 0. -1.
         11    1    1    2    0    0  0.50711055063E+00  0.35605823344E-01  0.19518213573E+01  0.20169372219E+01  0.51100000000E-03 0.  1.
    9000002    1    1    2    0    0 -0.94343181669E+00 -0.10471772975E+00  0.70950156925E+00  0.15113787985E+01  0.93800000000E+00 0. -1.
         22    1    1    2    0    0  0.43632126606E+00  0.69111906405E-01  0.13386770408E+01  0.14096839796E+01  0.00000000000E+00 0.  1.
</event>
<event>
 5    1  0.3222854E+002  0.1563923E+01  0.7818608E-02  0.3393476E+00
         11   -1    0    0    0    0  0.00000000000E+00  0.00000000000E+00  0.39999999674E+01  0.40000000000E+01  0.51100000000E-03 0.  1.
    9000002   -1    0    0    0    0 -0.00000000000E+00 -0.00000000000E+00  0.00000000000E+00  0.93800000000E+00  0.93800000000E+00 0.  1.
         11    1    1    2    0    0 -0.44594102512E-01  0.12146598838E+00  0.49922361526E+00  0.51571998164E+00  0.51100000000E-03 0.  1.
    9000002    1    1    2    0    0  0.12533512595E+00  0.21899801080E+00  0.70172038365E-01  0.97387737293E+00  0.93800000000E+00 0.  1.
         22    1    1    2    0    0 -0.80741023439E-01 -0.34046399917E+00  0.34306043137E+01  0.34484026454E+01  0.00000000000E+00 0.  1.
</event>
<event>
 5    1  0.3222854E+002  0.1598473E+01  0.7818608E-02  0.3355022E+00
         11   -1    0    0    0    0  0.00000000000E+00  0.00000000000E+00  0.39999999674E+01  0.40000000000E+01  0.51100000000E-03 0.  1.
    9000002   -1    0    0    0    0 -0.00000000000E+00 -0.00000000000E+00  0.00000000000E+00  0.93800000000E+00  0.93800000000E+00 0. -1.
         11    1    1    2    0    0 -0.14825348847E-01 -0.76077941482E-02  0.32364403460E+00  0.32407312717E+00  0.51100000000E-03 0.  1.
    9000002    1    1    2    0    0  0.20298873667E+00 -0.18573745100E+00  0.51321886056E-01  0.97886708184E+00  0.93800000000E+00 0. -1.
         22    1    1    2    0    0 -0.18816338782E+00  0.19334524514E+00  0.36250340467E+01  0.36350597910E+01  0.00000000000E+00 0.  1.
</event>
<event>
 5    1  0.3222854E+002  0.1599659E+01  0.7818608E-02  0.3353734E+00
         11   -1    0    0    0    0  0.00000000000E+00  0.00000000000E+00  0.39999999674E+01  0.40000000000E+01  0.51100000000E-03 0. -1.
    9000002   -1    0    0    0    0 -0.00000000000E+00 -0.00000000000E+00  0.00000000000E+00  0.93800000000E+00  0.93800000000E+00 0. -1.
         11    1    1    2    0    0  0.26414770088E+00  0.28931406960E+00  0.24093980584E+01  0.24410399226E+01  0.51100000000E-03 0. -1.
    9000002    1    1    2    0    0 -0.41667829164E+00 -0.45156808165E+00  0.26425171726E+00  0.11520449215E+01  0.93800000000E+00 0. -1.
         22    1    1    2    0    0  0.15253059076E+00  0.16225401205E+00  0.13263501917E+01  0.13449151559E+01  0.00000000000E+00 0. -1.
</event>
<event>
 5    1  0.3222854E+002  0.1599474E+01  0.7818608E-02  0.3353934E+00
         11   -1    0    0    0    0  0.00000000000E+00  0.00000000000E+00  0.39999999674E+01  0.40000000000E+01  0.51100000000E-03 0.  1.
    9000002   -1    0    0    0    0 -0.00000000000E+00 -0.00000000000E+00  0.00000000000E+00  0.93800000000E+00  0.93800000000E+00 0. -1.
         11    1    1    2    0    0 -0.23004601329E+00  0.65665859471E+00  0.23208490583E+01  0.24229036899E+01  0.51100000000E-03 0.  1.
    9000002    1    1    2    0    0  0.34047900446E+00 -0.92199545413E+00  0.77010417286E+00  0.15616997173E+01  0.93800000000E+00 0. -1.
         22    1    1    2    0    0 -0.11043299117E+00  0.26533685941E+00  0.90904673624E+00  0.95339659280E+00  0.00000000000E+00 0.  1.
</event>
<event>
 5    1  0.3222854E+002  0.1599615E+01  0.7818608E-02  0.3353781E+00
         11   -1    0    0    0    0  0.00000000000E+00  0.00000000000E+00  0.39999999674E+01  0.40000000000E+01  0.51100000000E-03 0. -1.
    9000002   -1    0    0    0    0 -0.00000000000E+00 -0.00000000000E+00  0.00000000000E+00  0.93800000000E+00  0.93800000000E+00 0. -1.
         11    1    1    2    0    0 -0.20761485584E-01 -0.33072617989E-01  0.69557842830E+00  0.69667384649E+00  0.51100000000E-03 0. -1.
    9000002    1    1    2    0    0  0.15267168716E+00  0.20984607547E+00  0.44816472845E-01  0.97426717880E+00  0.93800000000E+00 0. -1.
         22    1    1    2    0    0 -0.13191020157E+00 -0.17677345748E+00  0.32596050662E+01  0.32670589747E+01  0.00000000000E+00 0. -1.
</event>
<event>
 5    1  0.3222854E+002  0.1553104E+01  0.7818608E-02  0.3405890E+00
         11   -1    0    0    0    0  0.00000000000E+00  0.00000000000E+00  0.39999999674E+01  0.40000000000E+01  0.51100000000E-03 0. -1.
    9000002   -1    0    0    0    0 -0.00000000000E+00 -0.00000000000E+00  0.00000000000E+00  0.93800000000E+00  0.93800000000E+00 0.  1.
         11    1    1    2    0    0  0.31162382974E-01 -0.11273220646E+00  0.25370770365E+01  0.25397716028E+01  0.51100000000E-03 0. -1.
    9000002    1    1    2    0    0 -0.18771655772E-01 -0.21109452077E+00  0.65664380963E-01  0.96388229711E+00  0.93800000000E+00 0.  1.
         22    1    1    2    0    0 -0.12390727202E-01  0.32382672722E+00  0.13972585499E+01  0.14343461001E+01  0.00000000000E+00 0. -1.
</event>
<event>
 5    1  0.3222854E+002  0.1599677E+01  0.7818608E-02  0.3353714E+00
         11   -1    0    0    0    0  0.00000000000E+00  0.00000000000E+00  0.39999999674E+01  0.40000000000E+01  0.51100000000E-03 0.  1.
    9000002   -1    0    0    0    0 -0.00000000000E+00 -0.00000000000E+00  0.00000000000E+00  0.93800000000E+00  0.93800000000E+00 0. -1.
         11    1    1    2    0    0  0.57753876479E-01 -0.40633745839E+00  0.23904889630E+01  0.24254656014E+01  0.51100000000E-03 0.  1.
    9000002    1    1    2    0    0 -0.89854194475E-01  0.63120997623E+00  0.28600418478E+00  0.11696761108E+01  0.93800000000E+00 0. -1.
         22    1    1    2    0    0  0.32100317996E-01 -0.22487251784E+00  0.13235068196E+01  0.13428582879E+01  0.00000000000E+00 0.  1.
</event>
<event>
 5    1  0.3222854E+002  0.1472087E+01  0.7818608E-02  0.3505082E+00
         11   -1    0    0    0    0  0.00000000000E+00  0.00000000000E+00  0.39999999674E+01  0.40000000000E+01  0.51100000000E-03 0. -1.
    9000002   -1    0    0    0    0 -0.00000000000E+00 -0.00000000000E+00  0.00000000000E+00  0.93800000000E+00  0.93800000000E+00 0. -1.
         11    1    1    2    0    0 -0.28976146319E+00  0.36334660188E+00  0.18202860333E+01  0.18786761197E+01  0.51100000000E-03 0. -1.
    9000002    1    1    2    0    0  0.54700977181E-01 -0.54030597307E-01  0.10320761984E+00  0.94678789343E+00  0.93800000000E+00 0. -1.
         22    1    1    2    0    0  0.23506048600E+00 -0.30931600458E+00  0.20765063142E+01  0.21125359869E+01  0.00000000000E+00 0. -1.
</event>
<event>
 5    1  0.3222854E+002  0.1588135E+01  0.7818608E-02  0.3366343E+00
         11   -1    0    0    0    0  0.00000000000E+00  0.00000000000E+00  0.39999999674E+01  0.40000000000E+01  0.51100000000E-03 0. -1.
    9000002   -1    0    0    0    0 -0.00000000000E+00 -0.00000000000E+00  0.00000000000E+00  0.93800000000E+00  0.93800000000E+00 0.  1.
         11    1    1    2    0    0  0.34117096126E-01  0.11305701866E+00  0.19836482607E+01  0.19871604236E+01  0.51100000000E-03 0. -1.
    9000002    1    1    2    0    0 -0.22113460414E+00 -0.17821451484E-01  0.41399151763E-01  0.96476733312E+00  0.93800000000E+00 0.  1.
         22    1    1    2    0    0  0.18701750801E+00 -0.95235567178E-01  0.19749525549E+01  0.19860722433E+01  0.00000000000E+00 0.  1.
</event>
<event>
 5    1  0.3222854E+002  0.1507842E+01  0.7818608E-02  0.3459893E+00
         11   -1    0    0    0    0  0.00000000000E+00  0.00000000000E+00  0.39999999674E+01  0.40000000000E+01  0.51100000000E-03 0. -1.
    9000002   -1    0    0    0    0 -0.00000000000E+00 -0.00000000000E+00  0.00000000000E+00  0.93800000000E+00  0.93800000000E+00 0.  1.
         11    1    1    2    0    0 -0.59229521816E-01  0.16809528185E+00  0.22497108459E+00  0.28701290922E+00  0.51100000000E-03 0. -1.
    9000002    1    1    2    0    0  0.15411738783E+00  0.71959368370E-01  0.90671933387E-01  0.95759893454E+00  0.93800000000E+00 0.  1.
         22    1    1    2    0    0 -0.94887866017E-01 -0.24005465022E+00  0.36843569494E+01  0.36933881562E+01  0.00000000000E+00 0. -1.
</event>
<event>
 5    1  0.3222854E+002  0.1591843E+01  0.7818608E-02  0.3362264E+00
         11   -1    0    0    0    0  0.00000000000E+00  0.00000000000E+00  0.39999999674E+01  0.40000000000E+01  0.51100000000E-03 0. -1.
    9000002   -1    0    0    0    0 -0.00000000000E+00 -0.00000000000E+00  0.00000000000E+00  0.93800000000E+00  0.93800000000E+00 0. -1.
         11    1    1    2    0    0 -0.55941772919E-01  0.36973153751E-01  0.53209484642E+00  0.53630372249E+00  0.51100000000E-03 0. -1.
    9000002    1    1    2    0    0 -0.11235501174E+00 -0.16199171477E+00  0.31612623495E-01  0.95901424509E+00  0.93800000000E+00 0. -1.
         22    1    1    2    0    0  0.16829678466E+00  0.12501856102E+00  0.34362924974E+01  0.34426820324E+01  0.00000000000E+00 0. -1.
</event>
<event>
 5    1  0.3222854E+002  0.1599671E+01  0.7818608E-02  0.3353720E+00
         11   -1    0    0    0    0  0.00000000000E+00  0.00000000000E+00  0.39999999674E+01  0.40000000000E+01  0.51100000000E-03 0. -1.
    9000002   -1    0    0    0    0 -0.00000000000E+00 -0.00000000000E+00  0.00000000000E+00  0.93800000000E+00  0.93800000000E+00 0.  1.
         11    1    1    2    0    0 -0.12574913935E-01  0.12182326395E-01  0.23030085813E+00  0.23096597999E+00  0.51100000000E-03 0. -1.
    9000002    1    1    2    0    0  0.21077843807E+00 -0.18698816848E+00  0.52881186445E-01  0.98083257745E+00  0.93800000000E+00 0.  1.
         22    1    1    2    0    0 -0.19820352413E+00  0.17480584208E+00  0.37168179228E+01  0.37262014426E+01  0.00000000000E+00 0. -1.
</event>
<event>
 5    1  0.3222854E+002  0.1599656E+01  0.7818608E-02  0.3353737E+00
         11   -1    0    0    0    0  0.00000000000E+00  0.00000000000E+00  0.39999999674E+01  0.40000000000E+01  0.51100000000E-03 0. -1.
    9000002   -1    0    0    0    0 -0.00000000000E+00 -0.00000000000E+00  0.00000000000E+00  0.93800000000E+00  0.93800000000E+00 0. -1.
         11    1    1    2    0    0  0.10802133256E-01 -0.50219560747E-02  0.18136697746E+00  0.18175848744E+00  0.51100000000E-03 0. -1.
    9000002    1    1    2    0    0 -0.20994520864E+00  0.68340044774E-01  0.32330195651E-01  0.96417664040E+00  0.93800000000E+00 0. -1.
         22    1    1    2    0    0  0.19914307538E+00 -0.63318088699E-01  0.37863027943E+01  0.37920648722E+01  0.00000000000E+00 0. -1.
</event>
<event>
 5    1  0.3222854E+002  0.1544163E+01  0.7818608E-02  0.3416290E+00
         11   -1    0    0    0    0  0.00000000000E+00  0.00000000000E+00  0.39999999674E+01  0.40000000000E+01  0.51100000000E-03 0.  1.
    9000002   -1    0    0    0    0 -0.00000000000E+00 -0.00000000000E+00  0.00000000000E+00  0.93800000000E+00  0.93800000000E+00 0. -1.
         11    1    1    2    0    0  0.50317701639E-01 -0.12558251748E+00  0.23950796002E+00  0.27507665082E+00  0.51100000000E-03 0.  1.
    9000002    1    1    2    0    0  0.16121400164E+00 -0.32535770916E-02  0.59461140445E-01  0.95361426547E+00  0.93800000000E+00 0. -1.
         22    1    1    2    0    0 -0.21153170328E+00  0.12883609457E+00  0.37010308669E+01  0.37093090837E+01  0.00000000000E+00 0.  1.
</event>
<event>
 5    1  0.3222854E+002  0.1598817E+01  0.7818608E-02  0.3354648E+00
         11   -1    0    0    0    0  0.00000000000E+00  0.00000000000E+00  0.39999999674E+01  0.40000000000E+01  0.51100000000E-03 0.  1.
    9000002   -1    0    0    0    0 -0.00000000000E+00 -0.00000000000E+00  0.00000000000E+00  0.93800000000E+00  0.93800000000E+00 0.  1.
         11    1    1    2    0    0 -0.74793421706E-01 -0.36191359991E+00  0.16910517436E+01  0.17309626715E+01  0.51100000000E-03 0.  1.
    9000002    1    1    2    0    0  0.20400186962E+00  0.71027322456E+00  0.39560950337E+00  0.12579569530E+01  0.93800000000E+00 0.  1.
         22    1    1    2    0    0 -0.12920844791E+00 -0.34835962465E+00  0.19133387204E+01  0.19490803755E+01  0.00000000000E+00 0.  1.
</event>
<event>
 5    1  0.3222854E+002  0.1590739E+01  0.7818608E-02  0.3363477E+00
         11   -1    0    0    0    0  0.00000000000E+00  0.00000000000E+00  0.39999999674E+01  0.40000000000E+01  0.51100000000E-03 0. -1.
    9000002   -1    0    0    0    0 -0.00000000000E+00 -0.00000000000E+00  0.00000000000E+00  0.93800000000E+00  0.93800000000E+00 0. -1.
         11    1    1    2    0    0  0.28202909159E-01 -0.42380090467E-01  0.59397366184E+00  0.59615136352E+00  0.51100000000E-03 0. -1.
    9000002    1    1    2    0    0  0.12128435992E+00 -0.16199488934E+00  0.33848965892E-01  0.96017810464E+00  0.93800000000E+00 0. -1.
         22    1    1    2    0    0 -0.14948726908E+00  0.20437497981E+00  0.33721773396E+01  0.33816705318E+01  0.00000000000E+00 0. -1.
</event>
<event>
 5    1  0.3222854E+002  0.1599677E+01  0.7818608E-02  0.3353715E+00
         11   -1    0    0    0    0  0.00000000000E+00  0.00000000000E+00  0.39999999674E+01  0.40000000000E+01  0.51100000000E-03 0. -1.
    9000002   -1    0    0    0    0 -0.00000000000E+00 -0.00000000000E+00  0.00000000000E+00  0.93800000000E+00  0.93800000000E+00 0. -1.
         11    1    1    2    0    0  0.51828842329E-01 -0.18563517805E+00  0.13804284152E+01  0.13938183235E+01  0.51100000000E-03 0. -1.
    9000002    1    1    2    0    0 -0.14256226037E+00  0.50986660117E+00  0.19285915425E+00  0.10942242012E+01  0.93800000000E+00 0. -1.
         22    1    1    2    0    0  0.90733418037E-01 -0.32423142312E+00  0.24267123979E+01  0.24499574753E+01  0.00000000000E+00 0. -1.
</event>
<event>
 5    1  0.3222854E+002  0.1599672E+01  0.7818608E-02  0.3353719E+00
         11   -1    0    0    0    0  0.00000000000E+00  0.00000000000E+00  0.39999999674E+01  0.40000000000E+01  0.51100000000E-03 0.  1.
    9000002   -1    0    0    0    0 -0.00000000000E+00 -0.00000000000E+00  0.00000000000E+00  0.93800000000E+00  0.93800000000E+00 0. -1.
         11    1    1    2    0    0  0.12070291756E-01 -0.10929776038E-01  0.19303133631E+00  0.19371760339E+00  0.51100000000E-03 0.  1.
    9000002    1    1    2    0    0 -0.22723511043E+00  0.21447602062E+00  0.65214911279E-01  0.99082427478E+00  0.93800000000E+00 0. -1.
         22    1    1    2    0    0  0.21516481868E+00 -0.20354624458E+00  0.37417537198E+01  0.37534581218E+01  0.00000000000E+00 0.  1.
</event>
<event>
 5    1  0.3222854E+002  0.1598872E+01  0.7818608E-02  0.3354588E+00
         11   -1    0    0    0    0  0.00000000000E+00  0.00000000000E+00  0.39999999674E+01  0.40000000000E+01  0.51100000000E-03 0. -1.
    9000002   -1    0    0    0    0 -0.00000000000E+00 -0.00000000000E+00  0.00000000000E+00  0.93800000000E+00  0.93800000000E+00 0. -1.
         11    1    1    2    0    0  0.24374434497E-01 -0.36089844927E-01  0.94655878518E+00  0.94756022758E+00  0.51100000000E-03 0. -1.
    9000002    1    1    2    0    0 -0.20409074450E-01  0.24153042260E+00  0.39620154905E-01  0.96962221099E+00  0.93800000000E+00 0. -1.
         22    1    1    2    0    0 -0.39653600469E-02 -0.20544057768E+00  0.30138210273E+01  0.30208175614E+01  0.00000000000E+00 0. -1.
</event>
<event>
 5    1  0.3222854E+002  0.1598915E+01  0.7818608E-02  0.3354542E+00
         11   -1    0    0    0    0  0.00000000000E+00  0.00000000000E+00  0.39999999674E+01  0.40000000000E+01  0.51100000000E-03 0. -1.
    9000002   -1    0    0    0    0 -0.00000000000E+00 -0.00000000000E+00  0.00000000000E+00  0.93800000000E+00  0.93800000000E+00 0.  1.
         11    1    1    2    0    0  0.21217184079E+00  0.28003801161E+00  0.17826420110E+01  0.18169345003E+01  0.51100000000E-03 0. -1.
    9000002    1    1    2    0    0 -0.36879878798E+00 -0.56840415045E+00  0.32701000621E+00  0.12024455782E+01  0.93800000000E+00 0.  1.
         22    1    1    2    0    0  0.15662694719E+00  0.28836613884E+00  0.18903479502E+01  0.19186199216E+01  0.00000000000E+00 0. -1.
</event>
<event>
 5    1  0.3222854E+002  0.1599658E+01  0.7818608E-02  0.3353735E+00
         11   -1    0    0    0    0  0.00000000000E+00  0.00000000000E+00  0.39999999674E+01  0.40000000000E+01  0.51100000000E-03 0. -1.
    9000002   -1    0    0    0    0 -0.00000000000E+00 -0.00000000000E+00  0.00000000000E+00  0.93800000000E+00  0.93800000000E+00 0. -1.
         11    1    1    2    0    0 -0.14194656204E+00  0.31801755337E+00  0.22029789705E+01  0.22303364312E+01  0.51100000000E-03 0. -1.
    9000002    1    1    2    0    0  0.23629542069E+00 -0.54861843091E+00  0.24882958624E+00  0.11395516099E+01  0.93800000000E+00 0. -1.
         22    1    1    2    0    0 -0.94348858653E-01  0.23060087754E+00  0.15481914106E+01  0.15681119589E+01  0.00000000000E+00 0. -1.
</event>
<event>
 5    1  0.3222854E+002  0.1597414E+01  0.7818608E-02  0.3356175E+00
         11   -1    0    0    0    0  0.00000000000E+00  0.00000000000E+00  0.39999999674E+01  0.40000000000E+01  0.51100000000E-03 0. -1.
    9000002   -1    0    0    0    0 -0.00000000000E+00 -0.00000000000E+00  0.00000000000E+00  0.93800000000E+00  0.93800000000E+00 0. -1.
         11    1    1    2    0    0 -0.28200301706E-01  0.98128969825E-02  0.63884761407E+00  0.63954521739E+00  0.51100000000E-03 0. -1.
    9000002    1    1    2    0    0 -0.30835489409E-01 -0.22169551195E+00  0.34930393614E-01  0.96496832063E+00  0.93800000000E+00 0. -1.
         22    1    1    2    0    0  0.59035791115E-01  0.21188261497E+00  0.33262219597E+01  0.33334864620E+01  0.00000000000E+00 0. -1.
</event>
<event>
 5    1  0.3222854E+002  0.1599675E+01  0.7818608E-02  0.3353716E+00
         11   -1    0    0    0    0  0.00000000000E+00  0.00000000000E+00  0.39999999674E+01  0.40000000000E+01  0.51100000000E-03 0.  1.
    9000002   -1    0    0    0    0 -0.00000000000E+00 -0.00000000000E+00  0.00000000000E+00  0.93800000000E+00  0.93800000000E+00 0. -1.
         11    1    1    2    0    0 -0.80171449763E-01  0.95313156823E-01  0.13972893610E+01  0.14028292408E+01  0.51100000000E-03 0.  1.
    9000002    1    1    2    0    0  0.22650051449E+00 -0.26334391535E+00  0.80876647081E-01  0.10035125973E+01  0.93800000000E+00 0. -1.
         22    1    1    2    0    0 -0.14632906472E+00  0.16803075853E+00  0.25218339593E+01  0.25316581620E+01  0.00000000000E+00 0.  1.
</event>
<event>
 5    1  0.3222854E+002  0.1568008E+01  0.7818608E-02  0.3388836E+00
         11   -1    0    0    0    0  0.00000000000E+00  0.00000000000E+00  0.39999999674E+01  0.40000000000E+01  0.51100000000E-03 0.  1.
    9000002   -1    0    0    0    0 -0.00000000000E+00 -0.00000000000E+00  0.00000000000E+00  0.93800000000E+00  0.93800000000E+00 0. -1.
         11    1    1    2    0    0 -0.17541559752E-01  0.16442285708E+00  0.23220443211E+01  0.23279245419E+01  0.51100000000E-03 0.  1.
    9000002    1    1    2    0    0  0.17113996584E+00  0.50565571626E-01  0.45002635807E-01  0.95588440837E+00  0.93800000000E+00 0. -1.
         22    1    1    2    0    0 -0.15359840609E+00 -0.21498842870E+00  0.16329530104E+01  0.16541910497E+01  0.00000000000E+00 0.  1.
</event>
<event>
 5    1  0.3222854E+002  0.1593650E+01  0.7818608E-02  0.3360285E+00
         11   -1    0    0    0    0  0.00000000000E+00  0.00000000000E+00  0.39999999674E+01  0.40000000000E+01  0.51100000000E-03 0. -1.
    9000002   -1    0    0    0    0 -0.00000000000E+00 -0.00000000000E+00  0.00000000000E+00  0.93800000000E+00  0.93800000000E+00 0. -1.
         11    1    1    2    0    0 -0.26428355470E-01  0.39317374962E-01  0.21610162318E+01  0.21615355026E+01  0.51100000000E-03 0. -1.
    9000002    1    1    2    0    0  0.17695638604E+00 -0.18380744570E+00  0.47892507009E-01  0.97326072143E+00  0.93800000000E+00 0. -1.
         22    1    1    2    0    0 -0.15052803057E+00  0.14449007074E+00  0.17910912285E+01  0.18032037759E+01  0.00000000000E+00 0. -1.
</event>
<event>
 5    1  0.3222854E+002  0.1599537E+01  0.7818608E-02  0.3353866E+00
         11   -1    0    0    0    0  0.00000000000E+00  0.00000000000E+00  0.39999999674E+01  0.40000000000E+01  0.51100000000E-03 0.  1.
    9000002   -1    0    0    0    0 -0.00000000000E+00 -0.00000000000E+00  0.00000000000E+00  0.93800000000E+00  0.93800000000E+00 0.  1.
         11    1    1    2    0    0  0.42907057648E-01  0.34283725364E-01  0.67145870479E+00  0.67370130086E+00  0.51100000000E-03 0.  1.
    9000002    1    1    2    0    0 -0.24859651090E+00 -0.13859905443E+00  0.54076481901E-01  0.98172205283E+00  0.93800000000E+00 0.  1.
         22    1    1    2    0    0  0.20568945325E+00  0.10431532907E+00  0.32744647807E+01  0.32825766463E+01  0.00000000000E+00 0.  1.
</event>
<event>
 5    1  0.3222854E+002  0.1599650E+01  0.7818608E-02  0.3353743E+00
         11   -1    0    0    0    0  0.00000000000E+00  0.00000000000E+00  0.39999999674E+01  0.40000000000E+01  0.51100000000E-03 0. -1.
    9000002   -1    0    0    0    0 -0.00000000000E+00 -0.00000000000E+00  0.00000000000E+00  0.93800000000E+00  0.93800000000E+00 0.  1.
         11    1    1    2    0    0  0.13668540074E-01  0.48870177792E-01  0.38769351787E+00  0.39100082888E+00  0.51100000000E-03 0. -1.
    9000002    1    1    2    0    0 -0.15488954309E+00 -0.45264261164E+00  0.15615083891E+00  0.10644731978E+01  0.93800000000E+00 0.  1.
         22    1    1    2    0    0  0.14122100301E+00  0.40377243385E+00  0.34561556106E+01  0.34825259733E+01  0.00000000000E+00 0. -1.
</event>
<event>
 5    1  0.3222854E+002  0.1599676E+01  0.7818608E-02  0.3353715E+00
         11   -1    0    0    0    0  0.00000000000E+00  0.00000000000E+00  0.39999999674E+01  0.40000000000E+01  0.51100000000E-03 0. -1.
    9000002   -1    0    0    0    0 -0.00000000000E+00 -0.00000000000E+00  0.00000000000E+00  0.93800000000E+00  0.93800000000E+00 0.  1.
         11    1    1    2    0    0  0.14283088371E+00 -0.13116270726E+00  0.19010350166E+01  0.19108999745E+01  0.51100000000E-03 0. -1.
    9000002    1    1    2    0    0 -0.29110206251E+00  0.27062634117E+00  0.10652628290E+00  0.10242904257E+01  0.93800000000E+00 0.  1.
         22    1    1    2    0    0  0.14827117880E+00 -0.13946363390E+00  0.19924386679E+01  0.20028095998E+01  0.00000000000E+00 0. -1.
</event>
<event>
 5    1  0.3222854E+002  0.1599104E+01  0.7818608E-02  0.3354336E+00
         11   -1    0    0    0    0  0.00000000000E+00  0.00000000000E+00  0.39999999674E+01  0.40000000000E+01  0.51100000000E-03 0. -1.
    9000002   -1    0    0    0    0 -0.00000000000E+00 -0.00000000000E+00  0.00000000000E+00  0.93800000000E+00  0.93800000000E+00 0. -1.
         11    1    1    2    0    0 -0.16162489761E-01  0.20409970072E-01  0.32891389147E+00  0.32994302853E+00  0.51100000000E-03 0. -1.
    9000002    1    1    2    0    0  0.55060534653E-01 -0.37392586467E+00  0.96562421977E-01  0.10158841056E+01  0.93800000000E+00 0. -1.
         22    1    1    2    0    0 -0.38898044892E-01  0.35351589460E+00  0.35745236539E+01  0.35921728658E+01  0.00000000000E+00 0. -1.
</event>
<event>
 5    1  0.3222854E+002  0.1599663E+01  0.7818608E-02  0.3353730E+00
         11   -1    0    0    0    0  0.00000000000E+00  0.00000000000E+00  0.39999999674E+01  0.40000000000E+01  0.51100000000E-03 0. -1.
    9000002   -1    0    0    0    0 -0.00000000000E+00 -0.00000000000E+00  0.00000000000E+00  0.93800000000E+00  0.93800000000E+00 0. -1.
         11    1    1    2    0    0 -0.28830861699E+00 -0.98175454040E-01  0.18725107150E+01  0.18971180558E+01  0.51100000000E-03 0. -1.
    9000002    1    1    2    0    0  0.57488223458E+00  0.18733490174E+00  0.25533598061E+00  0.11448250574E+01  0.93800000000E+00 0. -1.
         22    1    1    2    0    0 -0.28657361759E+00 -0.89159447700E-01  0.18721532717E+01  0.18960568869E+01  0.00000000000E+00 0. -1.
</event>
<event>
 5    1  0.3222854E+002  0.1599674E+01  0.7818608E-02  0.3353718E+00
         11   -1    0    0    0    0  0.00000000000E+00  0.00000000000E+00  0.39999999674E+01  0.40000000000E+01  0.51100000000E-03 0.  1.
    9000002   -1    0    0    0    0 -0.00000000000E+00 -0.00000000000E+00  0.00000000000E+00  0.93800000000E+00  0.93800000000E+00 0. -1.
         11    1    1    2    0    0  0.59746093014E-02 -0.19543387641E-02  0.12709408945E+00  0.12725047776E+00  0.51100000000E-03 0.  1.
    9000002    1    1    2    0    0 -0.19605010971E+00  0.77904287059E-01  0.29485585178E-01  0.96188259325E+00  0.93800000000E+00 0. -1.
         22    1    1    2    0    0  0.19007550041E+00 -0.75949948295E-01  0.38434202927E+01  0.38488669290E+01  0.00000000000E+00 0.  1.
</event>
<event>
 5    1  0.3222854E+002  0.1599671E+01  0.7818608E-02  0.3353720E+00
         11   -1    0    0    0    0  0.00000000000E+00  0.00000000000E+00  0.39999999674E+01  0.40000000000E+01  0.51100000000E-03 0. -1.
    9000002   -1    0    0    0    0 -0.00000000000E+00 -0.00000000000E+00  0.00000000000E+00  0.93800000000E+00  0.93800000000E+00 0.  1.
         11    1    1    2    0    0 -0.14711161508E-01  0.35392837806E-01  0.60975788997E+00  0.61096155096E+00  0.51100000000E-03 0. -1.
    9000002    1    1    2    0    0  0.83923756386E-01 -0.22368439167E+00  0.37889172513E-01  0.96868854301E+00  0.93800000000E+00 0.  1.
         22    1    1    2    0    0 -0.69212594878E-01  0.18829155387E+00  0.33523529049E+01  0.33583499060E+01  0.00000000000E+00 0. -1.
</event>
<event>
 5    1  0.3222854E+002  0.1569956E+01  0.7818608E-02  0.3386632E+00
         11   -1    0    0    0    0  0.00000000000E+00  0.00000000000E+00  0.39999999674E+01  0.40000000000E+01  0.51100000000E-03 0. -1.
    9000002   -1    0    0    0    0 -0.00000000000E+00 -0.00000000000E+00  0.00000000000E+00  0.93800000000E+00  0.93800000000E+00 0. -1.
         11    1    1    2    0    0 -0.74125048865E-01 -0.40034213740E-01  0.29156986835E+01  0.29169155516E+01  0.51100000000E-03 0. -1.
    9000002    1    1    2    0    0 -0.84317097233E-01 -0.11336581910E+00  0.35390513583E-01  0.94924057555E+00  0.93800000000E+00 0. -1.
         22    1    1    2    0    0  0.15844214610E+00  0.15340003284E+00  0.10489107703E+01  0.10718438729E+01  0.00000000000E+00 0. -1.
</event>
<event>
 5    1  0.3222854E+002  0.1597881E+01  0.7818608E-02  0.3355666E+00
         11   -1    0    0    0    0  0.00000000000E+00  0.00000000000E+00  0.39999999674E+01  0.40000000000E+01  0.51100000000E-03 0. -1.
    9000002   -1    0    0    0    0 -0.00000000000E+00 -0.00000000000E+00  0.00000000000E+00  0.93800000000E+00  0.93800000000E+00 0.  1.
         11    1    1    2    0    0 -0.59415596792E-02 -0.54339126770E-02  0.53615825023E+00  0.53621894778E+00  0.51100000000E-03 0. -1.
    9000002    1    1    2    0    0 -0.16938881775E+00  0.18483312674E+00  0.43130784796E-01  0.97188482904E+00  0.93800000000E+00 0.  1.
         22    1    1    2    0    0  0.17533037743E+00 -0.17939921406E+00  0.34207109323E+01  0.34298962232E+01  0.00000000000E+00 0. -1.
</event>
