<event>
 5    1  0.3490044E+002  0.1599623E+01  0.7818608E-02  0.3353773E+00
         11   -1    0    0    0    0  0.00000000000E+00  0.00000000000E+00  0.39999999674E+01  0.40000000000E+01  0.51100000000E-03 0.  1.
    9000002   -1    0    0    0    0 -0.00000000000E+00 -0.00000000000E+00  0.00000000000E+00  0.93800000000E+00  0.93800000000E+00 0.  1.
         11    1    1    2    0    0 -0.10549840454E+00 -0.95536755255E-01  0.12874133024E+01  0.12952569079E+01  0.51100000000E-03 0.  1.
    9000002    1    1    2    0    0  0.31421637942E+00  0.31193236692E+00  0.13304870879E+00  0.10457436079E+01  0.93800000000E+00 0.  1.
         22    1    1    2    0    0 -0.20871797488E+00 -0.21639561167E+00  0.25795379561E+01  0.25969994842E+01  0.00000000000E+00 0.  1.
</event>
<event>
 5    1  0.3490044E+002  0.1599676E+01  0.7818608E-02  0.3353715E+00
         11   -1    0    0    0    0  0.00000000000E+00  0.00000000000E+00  0.39999999674E+01  0.40000000000E+01  0.51100000000E-03 0. -1.
    9000002   -1    0    0    0    0 -0.00000000000E+00 -0.00000000000E+00  0.00000000000E+00  0.93800000000E+00  0.93800000000E+00 0. -1.
         11    1    1    2    0    0  0.25866462529E+00 -0.22239262191E+00  0.22023950486E+01  0.22286565635E+01  0.51100000000E-03 0. -1.
    9000002    1    1    2    0    0 -0.44095610300E+00  0.37918114985E+00  0.23506856024E+00  0.11284156403E+01  0.93800000000E+00 0. -1.
         22    1    1    2    0    0  0.18229147771E+00 -0.15678852794E+00  0.15625363585E+01  0.15809277963E+01  0.00000000000E+00 0. -1.
</event>
<event>
 5    1  0.3490044E+002  0.1599579E+01  0.7818608E-02  0.3353820E+00
         11   -1    0    0    0    0  0.00000000000E+00  0.00000000000E+00  0.39999999674E+01  0.40000000000E+01  0.51100000000E-03 0.  1.
    9000002   -1    0    0    0    0 -0.00000000000E+00 -0.00000000000E+00  0.00000000000E+00  0.93800000000E+00  0.93800000000E+00 0.  1.
         11    1    1    2    0    0  0.36512495247E-01 -0.97507619396E-03  0.50356786525E+00  0.50489104677E+00  0.51100000000E-03 0.  1.
    9000002    1    1    2    0    0 -0.30211204359E+00  0.67372179491E-01  0.64051031961E-01  0.98982686979E+00  0.93800000000E+00 0.  1.
         22    1    1    2    0    0  0.26559954835E+00 -0.66397103297E-01  0.34323810702E+01  0.34432820834E+01  0.00000000000E+00 0.  1.
</event>
<event>
 5    1  0.3490044E+002  0.1599501E+01  0.7818608E-02  0.3353905E+00
         11   -1    0    0    0    0  0.00000000000E+00  0.00000000000E+00  0.39999999674E+01  0.40000000000E+01  0.51100000000E-03 0. -1.
    9000002   -1    0    0    0    0 -0.00000000000E+00 -0.00000000000E+00  0.00000000000E+00  0.93800000000E+00  0.93800000000E+00 0.  1.
         11    1    1    2    0    0  0.10576716529E-02 -0.14158257409E-01  0.15472408258E+00  0.15537495864E+00  0.51100000000E-03 0. -1.
    9000002    1    1    2    0    0 -0.86645886039E-01  0.21633828931E+00  0.36165505193E-01  0.96719269474E+00  0.93800000000E+00 0.  1.
         22    1    1    2    0    0  0.85588214386E-01 -0.20218003190E+00  0.38091103796E+01  0.38154323466E+01  0.00000000000E+00 0. -1.
</event>
<event>
 5    1  0.3490044E+002  0.1591269E+01  0.7818608E-02  0.3362895E+00
         11   -1    0    0    0    0  0.00000000000E+00  0.00000000000E+00  0.39999999674E+01  0.40000000000E+01  0.51100000000E-03 0.  1.
    9000002   -1    0    0    0    0 -0.00000000000E+00 -0.00000000000E+00  0.00000000000E+00  0.93800000000E+00  0.93800000000E+00 0.  1.
         11    1    1    2    0    0  0.28757097076E+00  0.91185229562E-01  0.15300155744E+01  0.15594741833E+01  0.51100000000E-03 0.  1.
    9000002    1    1    2    0    0 -0.53082934348E+00 -0.27382578519E-01  0.20231322481E+00  0.10969522498E+01  0.93800000000E+00 0.  1.
         22    1    1    2    0    0  0.24325837271E+00 -0.63802651043E-01  0.22676711681E+01  0.22815735668E+01  0.00000000000E+00 0.  1.
</event>
<event>
 5    1  0.3490044E+002  0.1599673E+01  0.7818608E-02  0.3353718E+00
         11   -1    0    0    0    0  0.00000000000E+00  0.00000000000E+00  0.39999999674E+01  0.40000000000E+01  0.51100000000E-03 0.  1.
    9000002   -1    0    0    0    0 -0.00000000000E+00 -0.00000000000E+00  0.00000000000E+00  0.93800000000E+00  0.93800000000E+00 0.  1.
         11    1    1    2    0    0 -0.68118622102E-01 -0.46096899262E-01  0.11503920413E+01  0.11533287392E+01  0.51100000000E-03 0.  1.
    9000002    1    1    2    0    0  0.24089371782E+00  0.15988347200E+00  0.55713419691E-01  0.98312791286E+00  0.93800000000E+00 0.  1.
         22    1    1    2    0    0 -0.17277509571E+00 -0.11378657274E+00  0.27938945063E+01  0.28015433479E+01  0.00000000000E+00 0.  1.
</event>
<event>
 5    1  0.3490044E+002  0.1599259E+01  0.7818608E-02  0.3354168E+00
         11   -1    0    0    0    0  0.00000000000E+00  0.00000000000E+00  0.39999999674E+01  0.40000000000E+01  0.51100000000E-03 0.  1.
    9000002   -1    0    0    0    0 -0.00000000000E+00 -0.00000000000E+00  0.00000000000E+00  0.93800000000E+00  0.93800000000E+00 0.  1.
         11    1    1    2    0    0 -0.76393730963E-01 -0.52061103210E-02  0.80751053470E+00  0.81113293022E+00  0.51100000000E-03 0.  1.
    9000002    1    1    2    0    0  0.27885880372E+00  0.26153537531E-02  0.52106623736E-01  0.97996335274E+00  0.93800000000E+00 0.  1.
         22    1    1    2    0    0 -0.20246507275E+00  0.25907565679E-02  0.31403828089E+01  0.31469037170E+01  0.00000000000E+00 0.  1.
</event>
<event>
 5    1  0.3490044E+002  0.1599661E+01  0.7818608E-02  0.3353731E+00
         11   -1    0    0    0    0  0.00000000000E+00  0.00000000000E+00  0.39999999674E+01  0.40000000000E+01  0.51100000000E-03 0. -1.
    9000002   -1    0    0    0    0 -0.00000000000E+00 -0.00000000000E+00  0.00000000000E+00  0.93800000000E+00  0.93800000000E+00 0.  1.
         11    1    1    2    0    0 -0.60096754713E-02  0.42262280053E-02  0.11086043738E+00  0.11110479242E+00  0.51100000000E-03 0. -1.
    9000002    1    1    2    0    0  0.18022783489E+00 -0.19214065774E+00  0.46162793357E-01  0.97538459508E+00  0.93800000000E+00 0.  1.
         22    1    1    2    0    0 -0.17421815942E+00  0.18791442973E+00  0.38429767366E+01  0.38515106125E+01  0.00000000000E+00 0. -1.
</event>
<event>
 5    1  0.3490044E+002  0.1540901E+01  0.7818608E-02  0.3420116E+00
         11   -1    0    0    0    0  0.00000000000E+00  0.00000000000E+00  0.39999999674E+01  0.40000000000E+01  0.51100000000E-03 0.  1.
    9000002   -1    0    0    0    0 -0.00000000000E+00 -0.00000000000E+00  0.00000000000E+00  0.93800000000E+00  0.93800000000E+00 0.  1.
         11    1    1    2    0    0 -0.29798798445E+00 -0.15888115796E+00  0.22995405587E+01  0.23242046174E+01  0.51100000000E-03 0.  1.
    9000002    1    1    2    0    0  0.10214456291E+00 -0.35369696907E-02  0.51107743973E-01  0.94493493077E+00  0.93800000000E+00 0.  1.
         22    1    1    2    0    0  0.19584342154E+00  0.16241812765E+00  0.16493516647E+01  0.16688604518E+01  0.00000000000E+00 0.  1.
</event>
<event>
 5    1  0.3490044E+002  0.1599677E+01  0.7818608E-02  0.3353714E+00
         11   -1    0    0    0    0  0.00000000000E+00  0.00000000000E+00  0.39999999674E+01  0.40000000000E+01  0.51100000000E-03 0.  1.
    9000002   -1    0    0    0    0 -0.00000000000E+00 -0.00000000000E+00  0.00000000000E+00  0.93800000000E+00  0.93800000000E+00 0. -1.
         11    1    1    2    0    0  0.13227422372E+00  0.10389955828E-01  0.12732272559E+01  0.12801219972E+01  0.51100000000E-03 0. -1.
    9000002    1    1    2    0    0 -0.40444491688E+00 -0.31661141823E-01  0.11109292447E+00  0.10279901539E+01  0.93800000000E+00 0. -1.
         22    1    1    2    0    0  0.27217069316E+00  0.21271185995E-01  0.26156797870E+01  0.26298878489E+01  0.00000000000E+00 0.  1.
</event>
<event>
 5    1  0.3490044E+002  0.1594418E+01  0.7818608E-02  0.3359444E+00
         11   -1    0    0    0    0  0.00000000000E+00  0.00000000000E+00  0.39999999674E+01  0.40000000000E+01  0.51100000000E-03 0. -1.
    9000002   -1    0    0    0    0 -0.00000000000E+00 -0.00000000000E+00  0.00000000000E+00  0.93800000000E+00  0.93800000000E+00 0. -1.
         11    1    1    2    0    0  0.56818704959E-01  0.52399114365E-01  0.35295878078E+00  0.36132283968E+00  0.51100000000E-03 0. -1.
    9000002    1    1    2    0    0 -0.14668084548E+00 -0.30149705601E+00  0.79465639837E-01  0.99928701239E+00  0.93800000000E+00 0. -1.
         22    1    1    2    0    0  0.89862140522E-01  0.24909794165E+00  0.35675755467E+01  0.35773901479E+01  0.00000000000E+00 0. -1.
</event>
<event>
 5    1  0.3490044E+002  0.1599607E+01  0.7818608E-02  0.3353790E+00
         11   -1    0    0    0    0  0.00000000000E+00  0.00000000000E+00  0.39999999674E+01  0.40000000000E+01  0.51100000000E-03 0.  1.
    9000002   -1    0    0    0    0 -0.00000000000E+00 -0.00000000000E+00  0.00000000000E+00  0.93800000000E+00  0.93800000000E+00 0. -1.
         11    1    1    2    0    0 -0.39503557662E-01  0.17065745700E+00  0.12053739345E+01  0.12180357473E+01  0.51100000000E-03 0.  1.
    9000002    1    1    2    0    0  0.11839018970E+00 -0.51034632983E+00  0.18873306045E+00  0.10908408598E+01  0.93800000000E+00 0. -1.
         22    1    1    2    0    0 -0.78886632039E-01  0.33968887283E+00  0.26058929724E+01  0.26291233928E+01  0.00000000000E+00 0.  1.
</event>
<event>
 5    1  0.3490044E+002  0.1599673E+01  0.7818608E-02  0.3353719E+00
         11   -1    0    0    0    0  0.00000000000E+00  0.00000000000E+00  0.39999999674E+01  0.40000000000E+01  0.51100000000E-03 0.  1.
    9000002   -1    0    0    0    0 -0.00000000000E+00 -0.00000000000E+00  0.00000000000E+00  0.93800000000E+00  0.93800000000E+00 0.  1.
         11    1    1    2    0    0  0.79538978727E-01  0.24516538947E-01  0.11152159231E+01  0.11183176320E+01  0.51100000000E-03 0.  1.
    9000002    1    1    2    0    0 -0.28350299162E+00 -0.78925126762E-01  0.57747072321E-01  0.98477502317E+00  0.93800000000E+00 0.  1.
         22    1    1    2    0    0  0.20396401290E+00  0.54408587815E-01  0.28270369719E+01  0.28349073448E+01  0.00000000000E+00 0.  1.
</event>
<event>
 5    1  0.3490044E+002  0.1599677E+01  0.7818608E-02  0.3353714E+00
         11   -1    0    0    0    0  0.00000000000E+00  0.00000000000E+00  0.39999999674E+01  0.40000000000E+01  0.51100000000E-03 0. -1.
    9000002   -1    0    0    0    0 -0.00000000000E+00 -0.00000000000E+00  0.00000000000E+00  0.93800000000E+00  0.93800000000E+00 0. -1.
         11    1    1    2    0    0 -0.18709612042E+00  0.74663751025E-01  0.18968559049E+01  0.19075225343E+01  0.51100000000E-03 0.  1.
    9000002    1    1    2    0    0  0.38340573524E+00 -0.15282213321E+00  0.11509909098E+00  0.10312353577E+01  0.93800000000E+00 0. -1.
         22    1    1    2    0    0 -0.19630961482E+00  0.78158382181E-01  0.19880449715E+01  0.19992421080E+01  0.00000000000E+00 0. -1.
</event>
<event>
 5    1  0.3490044E+002  0.1599445E+01  0.7818608E-02  0.3353966E+00
         11   -1    0    0    0    0  0.00000000000E+00  0.00000000000E+00  0.39999999674E+01  0.40000000000E+01  0.51100000000E-03 0.  1.
    9000002   -1    0    0    0    0 -0.00000000000E+00 -0.00000000000E+00  0.00000000000E+00  0.93800000000E+00  0.93800000000E+00 0.  1.
         11    1    1    2    0    0 -0.25983546119E+00 -0.27737510957E+00  0.17136749366E+01  0.17553157743E+01  0.51100000000E-03 0.  1.
    9000002    1    1    2    0    0  0.53215738321E+00  0.60751825684E+00  0.48203592585E+00  0.13283345011E+01  0.93800000000E+00 0.  1.
         22    1    1    2    0    0 -0.27232192202E+00 -0.33014314726E+00  0.18042891050E+01  0.18543497246E+01  0.00000000000E+00 0.  1.
</event>
<event>
 5    1  0.3490044E+002  0.1599675E+01  0.7818608E-02  0.3353716E+00
         11   -1    0    0    0    0  0.00000000000E+00  0.00000000000E+00  0.39999999674E+01  0.40000000000E+01  0.51100000000E-03 0.  1.
    9000002   -1    0    0    0    0 -0.00000000000E+00 -0.00000000000E+00  0.00000000000E+00  0.93800000000E+00  0.93800000000E+00 0.  1.
         11    1    1    2    0    0  0.17747755700E+00 -0.19626777405E+00  0.21500740939E+01  0.21662959615E+01  0.51100000000E-03 0.  1.
    9000002    1    1    2    0    0 -0.31799552571E+00  0.34837621429E+00  0.15160960828E+00  0.10608094147E+01  0.93800000000E+00 0.  1.
         22    1    1    2    0    0  0.14051796871E+00 -0.15210844024E+00  0.16983162652E+01  0.17108946238E+01  0.00000000000E+00 0.  1.
</event>
<event>
 5    1  0.3490044E+002  0.1599677E+01  0.7818608E-02  0.3353714E+00
         11   -1    0    0    0    0  0.00000000000E+00  0.00000000000E+00  0.39999999674E+01  0.40000000000E+01  0.51100000000E-03 0. -1.
    9000002   -1    0    0    0    0 -0.00000000000E+00 -0.00000000000E+00  0.00000000000E+00  0.93800000000E+00  0.93800000000E+00 0. -1.
         11    1    1    2    0    0  0.71859092268E-01 -0.57084603725E-03  0.92055229880E+00  0.92335304784E+00  0.51100000000E-03 0.  1.
    9000002    1    1    2    0    0 -0.30742032388E+00  0.27601949590E-02  0.63096295789E-01  0.98911072017E+00  0.93800000000E+00 0. -1.
         22    1    1    2    0    0  0.23556123161E+00 -0.21893489217E-02  0.30163513728E+01  0.30255362320E+01  0.00000000000E+00 0. -1.
</event>
<event>
 5    1  0.3490044E+002  0.1599674E+01  0.7818608E-02  0.3353717E+00
         11   -1    0    0    0    0  0.00000000000E+00  0.00000000000E+00  0.39999999674E+01  0.40000000000E+01  0.51100000000E-03 0. -1.
    9000002   -1    0    0    0    0 -0.00000000000E+00 -0.00000000000E+00  0.00000000000E+00  0.93800000000E+00  0.93800000000E+00 0.  1.
         11    1    1    2    0    0 -0.73287614031E-01  0.10408452757E+00  0.14164554446E+01  0.14221641786E+01  0.51100000000E-03 0. -1.
    9000002    1    1    2    0    0  0.20689154536E+00 -0.29095386658E+00  0.85531308308E-01  0.10072824176E+01  0.93800000000E+00 0.  1.
         22    1    1    2    0    0 -0.13360393133E+00  0.18686933900E+00  0.24980132144E+01  0.25085534038E+01  0.00000000000E+00 0. -1.
</event>
<event>
 5    1  0.3490044E+002  0.1599649E+01  0.7818608E-02  0.3353744E+00
         11   -1    0    0    0    0  0.00000000000E+00  0.00000000000E+00  0.39999999674E+01  0.40000000000E+01  0.51100000000E-03 0.  1.
    9000002   -1    0    0    0    0 -0.00000000000E+00 -0.00000000000E+00  0.00000000000E+00  0.93800000000E+00  0.93800000000E+00 0. -1.
         11    1    1    2    0    0  0.17714815008E-01 -0.24073074259E-01  0.36145140025E+00  0.36268540560E+00  0.51100000000E-03 0.  1.
    9000002    1    1    2    0    0 -0.15456974611E+00  0.27260545589E+00  0.65619682830E-01  0.99113847860E+00  0.93800000000E+00 0. -1.
         22    1    1    2    0    0  0.13685493111E+00 -0.24853238163E+00  0.35729288843E+01  0.35841761158E+01  0.00000000000E+00 0.  1.
</event>
<event>
 5    1  0.3490044E+002  0.1560748E+01  0.7818608E-02  0.3397100E+00
         11   -1    0    0    0    0  0.00000000000E+00  0.00000000000E+00  0.39999999674E+01  0.40000000000E+01  0.51100000000E-03 0. -1.
    9000002   -1    0    0    0    0 -0.00000000000E+00 -0.00000000000E+00  0.00000000000E+00  0.93800000000E+00  0.93800000000E+00 0. -1.
         11    1    1    2    0    0  0.29601463896E+00  0.11367921333E+00  0.83080774298E+00  0.88926340133E+00  0.51100000000E-03 0. -1.
    9000002    1    1    2    0    0 -0.58852503081E+00  0.15986048659E-01  0.28056619491E+00  0.11424441585E+01  0.93800000000E+00 0. -1.
         22    1    1    2    0    0  0.29251039185E+00 -0.12966526199E+00  0.28886260295E+01  0.29062924401E+01  0.00000000000E+00 0. -1.
</event>
<event>
 5    1  0.3490044E+002  0.1599671E+01  0.7818608E-02  0.3353721E+00
         11   -1    0    0    0    0  0.00000000000E+00  0.00000000000E+00  0.39999999674E+01  0.40000000000E+01  0.51100000000E-03 0.  1.
    9000002   -1    0    0    0    0 -0.00000000000E+00 -0.00000000000E+00  0.00000000000E+00  0.93800000000E+00  0.93800000000E+00 0.  1.
         11    1    1    2    0    0  0.10682650004E+00 -0.20239715238E+00  0.19151707816E+01  0.19287964880E+01  0.51100000000E-03 0.  1.
    9000002    1    1    2    0    0 -0.21872918853E+00  0.41185397113E+00  0.14806916564E+00  0.10579388589E+01  0.93800000000E+00 0.  1.
         22    1    1    2    0    0  0.11190268849E+00 -0.20945681875E+00  0.19367600202E+01  0.19512646531E+01  0.00000000000E+00 0.  1.
</event>
<event>
 5    1  0.3490044E+002  0.1590272E+01  0.7818608E-02  0.3363990E+00
         11   -1    0    0    0    0  0.00000000000E+00  0.00000000000E+00  0.39999999674E+01  0.40000000000E+01  0.51100000000E-03 0.  1.
    9000002   -1    0    0    0    0 -0.00000000000E+00 -0.00000000000E+00  0.00000000000E+00  0.93800000000E+00  0.93800000000E+00 0. -1.
         11    1    1    2    0    0 -0.90828086474E-02 -0.15636942270E-01  0.14721154357E-01  0.23323483511E-01  0.51100000000E-03 0.  1.
    9000002    1    1    2    0    0  0.56478117557E+00  0.76679551729E-01  0.23436537684E+00  0.11223317958E+01  0.93800000000E+00 0. -1.
         22    1    1    2    0    0 -0.55569836692E+00 -0.61042609460E-01  0.37509134362E+01  0.37923447207E+01  0.00000000000E+00 0.  1.
</event>
<event>
 5    1  0.3490044E+002  0.1599672E+01  0.7818608E-02  0.3353720E+00
         11   -1    0    0    0    0  0.00000000000E+00  0.00000000000E+00  0.39999999674E+01  0.40000000000E+01  0.51100000000E-03 0. -1.
    9000002   -1    0    0    0    0 -0.00000000000E+00 -0.00000000000E+00  0.00000000000E+00  0.93800000000E+00  0.93800000000E+00 0. -1.
         11    1    1    2    0    0 -0.31348276850E+00  0.17158088058E+00  0.21624436734E+01  0.21917742463E+01  0.51100000000E-03 0. -1.
    9000002    1    1    2    0    0  0.54340954665E+00 -0.29194526515E+00  0.26647596618E+00  0.11538541562E+01  0.93800000000E+00 0. -1.
         22    1    1    2    0    0 -0.22992677815E+00  0.12036438457E+00  0.15710803278E+01  0.15923715975E+01  0.00000000000E+00 0. -1.
</event>
<event>
 5    1  0.3490044E+002  0.1541199E+01  0.7818608E-02  0.3419765E+00
         11   -1    0    0    0    0  0.00000000000E+00  0.00000000000E+00  0.39999999674E+01  0.40000000000E+01  0.51100000000E-03 0. -1.
    9000002   -1    0    0    0    0 -0.00000000000E+00 -0.00000000000E+00  0.00000000000E+00  0.93800000000E+00  0.93800000000E+00 0. -1.
         11    1    1    2    0    0  0.25542852485E+00 -0.14939595762E+00  0.19035740846E+01  0.19264364615E+01  0.51100000000E-03 0. -1.
    9000002    1    1    2    0    0 -0.13645624193E+00 -0.14731131076E+00  0.71886837777E-01  0.96194212180E+00  0.93800000000E+00 0. -1.
         22    1    1    2    0    0 -0.11897228292E+00  0.29670726837E+00  0.20245390450E+01  0.20496214167E+01  0.00000000000E+00 0. -1.
</event>
<event>
 5    1  0.3490044E+002  0.1599675E+01  0.7818608E-02  0.3353716E+00
         11   -1    0    0    0    0  0.00000000000E+00  0.00000000000E+00  0.39999999674E+01  0.40000000000E+01  0.51100000000E-03 0.  1.
    9000002   -1    0    0    0    0 -0.00000000000E+00 -0.00000000000E+00  0.00000000000E+00  0.93800000000E+00  0.93800000000E+00 0. -1.
         11    1    1    2    0    0  0.14077965392E+00 -0.90323441663E-01  0.13117049878E+01  0.13223265373E+01  0.51100000000E-03 0.  1.
    9000002    1    1    2    0    0 -0.40778724814E+00  0.26451122789E+00  0.16136090633E+00  0.10687085531E+01  0.93800000000E+00 0. -1.
         22    1    1    2    0    0  0.26700759422E+00 -0.17418778622E+00  0.25269340732E+01  0.25469649096E+01  0.00000000000E+00 0.  1.
</event>
<event>
 5    1  0.3490044E+002  0.1599277E+01  0.7818608E-02  0.3354149E+00
         11   -1    0    0    0    0  0.00000000000E+00  0.00000000000E+00  0.39999999674E+01  0.40000000000E+01  0.51100000000E-03 0.  1.
    9000002   -1    0    0    0    0 -0.00000000000E+00 -0.00000000000E+00  0.00000000000E+00  0.93800000000E+00  0.93800000000E+00 0.  1.
         11    1    1    2    0    0 -0.12258177501E+00  0.20073931483E+00  0.18598783974E+01  0.18746921023E+01  0.51100000000E-03 0.  1.
    9000002    1    1    2    0    0  0.26221603412E+00 -0.36724313487E+00  0.13867024037E+00  0.10500943787E+01  0.93800000000E+00 0.  1.
         22    1    1    2    0    0 -0.13963425911E+00  0.16650382004E+00  0.20014513296E+01  0.20132135190E+01  0.00000000000E+00 0.  1.
</event>
<event>
 5    1  0.3490044E+002  0.1599677E+01  0.7818608E-02  0.3353714E+00
         11   -1    0    0    0    0  0.00000000000E+00  0.00000000000E+00  0.39999999674E+01  0.40000000000E+01  0.51100000000E-03 0. -1.
    9000002   -1    0    0    0    0 -0.00000000000E+00 -0.00000000000E+00  0.00000000000E+00  0.93800000000E+00  0.93800000000E+00 0.  1.
         11    1    1    2    0    0  0.12657334721E+00 -0.16766380941E+00  0.11521643593E+01  0.11711596548E+01  0.51100000000E-03 0. -1.
    9000002    1    1    2    0    0 -0.40531002011E+00  0.53492975071E+00  0.31949865768E+00  0.11968080226E+01  0.93800000000E+00 0.  1.
         22    1    1    2    0    0  0.27873667290E+00 -0.36726594130E+00  0.25283369504E+01  0.25700323226E+01  0.00000000000E+00 0. -1.
</event>
<event>
 5    1  0.3490044E+002  0.1519094E+01  0.7818608E-02  0.3446146E+00
         11   -1    0    0    0    0  0.00000000000E+00  0.00000000000E+00  0.39999999674E+01  0.40000000000E+01  0.51100000000E-03 0. -1.
    9000002   -1    0    0    0    0 -0.00000000000E+00 -0.00000000000E+00  0.00000000000E+00  0.93800000000E+00  0.93800000000E+00 0.  1.
         11    1    1    2    0    0 -0.43265454784E+00  0.14040863021E+00  0.10894360234E+01  0.11805827592E+01  0.51100000000E-03 0. -1.
    9000002    1    1    2    0    0  0.73106529523E+00  0.35034121970E+00  0.60148473610E+00  0.13779779838E+01  0.93800000000E+00 0.  1.
         22    1    1    2    0    0 -0.29841074740E+00 -0.49074984991E+00  0.23090792079E+01  0.23794392569E+01  0.00000000000E+00 0. -1.
</event>
<event>
 5    1  0.3490044E+002  0.1593464E+01  0.7818608E-02  0.3360488E+00
         11   -1    0    0    0    0  0.00000000000E+00  0.00000000000E+00  0.39999999674E+01  0.40000000000E+01  0.51100000000E-03 0.  1.
    9000002   -1    0    0    0    0 -0.00000000000E+00 -0.00000000000E+00  0.00000000000E+00  0.93800000000E+00  0.93800000000E+00 0. -1.
         11    1    1    2    0    0  0.16511857346E+00  0.46249789692E+00  0.13953550590E+01  0.14792513139E+01  0.51100000000E-03 0.  1.
    9000002    1    1    2    0    0 -0.28957684831E+00 -0.11170102000E+01  0.12250171309E+01  0.19266752474E+01  0.93800000000E+00 0. -1.
         22    1    1    2    0    0  0.12445827485E+00  0.65451230310E+00  0.13796277775E+01  0.15320734386E+01  0.00000000000E+00 0.  1.
</event>
<event>
 5    1  0.3490044E+002  0.1599676E+01  0.7818608E-02  0.3353715E+00
         11   -1    0    0    0    0  0.00000000000E+00  0.00000000000E+00  0.39999999674E+01  0.40000000000E+01  0.51100000000E-03 0.  1.
    9000002   -1    0    0    0    0 -0.00000000000E+00 -0.00000000000E+00  0.00000000000E+00  0.93800000000E+00  0.93800000000E+00 0.  1.
         11    1    1    2    0    0 -0.31767333760E-01 -0.47159734055E-01  0.76717387830E+00  0.76927837918E+00  0.51100000000E-03 0.  1.
    9000002    1    1    2    0    0  0.16362725723E+00  0.23840295598E+00  0.55722570077E-01  0.98313725061E+00  0.93800000000E+00 0.  1.
         22    1    1    2    0    0 -0.13185992347E+00 -0.19124322193E+00  0.31771035190E+01  0.31855843702E+01  0.00000000000E+00 0.  1.
</event>
<event>
 5    1  0.3490044E+002  0.1599676E+01  0.7818608E-02  0.3353716E+00
         11   -1    0    0    0    0  0.00000000000E+00  0.00000000000E+00  0.39999999674E+01  0.40000000000E+01  0.51100000000E-03 0.  1.
    9000002   -1    0    0    0    0 -0.00000000000E+00 -0.00000000000E+00  0.00000000000E+00  0.93800000000E+00  0.93800000000E+00 0.  1.
         11    1    1    2    0    0  0.17865395840E-01  0.12088904347E-01  0.31158358762E+00  0.31232980513E+00  0.51100000000E-03 0.  1.
    9000002    1    1    2    0    0 -0.22700801570E+00 -0.16151952728E+00  0.51684116729E-01  0.97986552384E+00  0.93800000000E+00 0.  1.
         22    1    1    2    0    0  0.20914261986E+00  0.14943062293E+00  0.36367322630E+01  0.36458046710E+01  0.00000000000E+00 0.  1.
</event>
<event>
 5    1  0.3490044E+002  0.1599653E+01  0.7818608E-02  0.3353740E+00
         11   -1    0    0    0    0  0.00000000000E+00  0.00000000000E+00  0.39999999674E+01  0.40000000000E+01  0.51100000000E-03 0.  1.
    9000002   -1    0    0    0    0 -0.00000000000E+00 -0.00000000000E+00  0.00000000000E+00  0.93800000000E+00  0.93800000000E+00 0.  1.
         11    1    1    2    0    0  0.99206532972E-01  0.11961718364E+00  0.70288092910E+00  0.71985558858E+00  0.51100000000E-03 0.  1.
    9000002    1    1    2    0    0 -0.51238250871E+00 -0.61862773799E+00  0.47585415859E+00  0.13234490144E+01  0.93800000000E+00 0.  1.
         22    1    1    2    0    0  0.41317597574E+00  0.49901055435E+00  0.28212648797E+01  0.28946953970E+01  0.00000000000E+00 0.  1.
</event>
<event>
 5    1  0.3490044E+002  0.1599376E+01  0.7818608E-02  0.3354041E+00
         11   -1    0    0    0    0  0.00000000000E+00  0.00000000000E+00  0.39999999674E+01  0.40000000000E+01  0.51100000000E-03 0. -1.
    9000002   -1    0    0    0    0 -0.00000000000E+00 -0.00000000000E+00  0.00000000000E+00  0.93800000000E+00  0.93800000000E+00 0.  1.
         11    1    1    2    0    0  0.41319354511E+00  0.22598740471E+00  0.23445578915E+01  0.23913910556E+01  0.51100000000E-03 0. -1.
    9000002    1    1    2    0    0 -0.61086293834E+00 -0.35005493007E+00  0.35498628427E+00  0.12253780011E+01  0.93800000000E+00 0.  1.
         22    1    1    2    0    0  0.19766939324E+00  0.12406752536E+00  0.13004557915E+01  0.13212309433E+01  0.00000000000E+00 0.  1.
</event>
<event>
 5    1  0.3490044E+002  0.1599673E+01  0.7818608E-02  0.3353718E+00
         11   -1    0    0    0    0  0.00000000000E+00  0.00000000000E+00  0.39999999674E+01  0.40000000000E+01  0.51100000000E-03 0. -1.
    9000002   -1    0    0    0    0 -0.00000000000E+00 -0.00000000000E+00  0.00000000000E+00  0.93800000000E+00  0.93800000000E+00 0.  1.
         11    1    1    2    0    0 -0.58774560234E-01 -0.33953359921E-01  0.68130395623E+00  0.68467701983E+00  0.51100000000E-03 0. -1.
    9000002    1    1    2    0    0  0.33150638184E+00  0.20285365527E+00  0.10174069090E+00  0.10204122965E+01  0.93800000000E+00 0.  1.
         22    1    1    2    0    0 -0.27273182161E+00 -0.16890029535E+00  0.32169553202E+01  0.32329106837E+01  0.00000000000E+00 0. -1.
</event>
<event>
 5    1  0.3490044E+002  0.1565909E+01  0.7818608E-02  0.3391217E+00
         11   -1    0    0    0    0  0.00000000000E+00  0.00000000000E+00  0.39999999674E+01  0.40000000000E+01  0.51100000000E-03 0. -1.
    9000002   -1    0    0    0    0 -0.00000000000E+00 -0.00000000000E+00  0.00000000000E+00  0.93800000000E+00  0.93800000000E+00 0.  1.
         11    1    1    2    0    0  0.13104358651E+00  0.23908313438E+00  0.30561981927E+01  0.30683351872E+01  0.51100000000E-03 0. -1.
    9000002    1    1    2    0    0  0.61769660740E-01 -0.34585271190E+00  0.11050419529E+00  0.10077126408E+01  0.93800000000E+00 0.  1.
         22    1    1    2    0    0 -0.19281324725E+00  0.10676957752E+00  0.83329757940E+00  0.86195217201E+00  0.00000000000E+00 0.  1.
</event>
<event>
 5    1  0.3490044E+002  0.1599530E+01  0.7818608E-02  0.3353874E+00
         11   -1    0    0    0    0  0.00000000000E+00  0.00000000000E+00  0.39999999674E+01  0.40000000000E+01  0.51100000000E-03 0. -1.
    9000002   -1    0    0    0    0 -0.00000000000E+00 -0.00000000000E+00  0.00000000000E+00  0.93800000000E+00  0.93800000000E+00 0.  1.
         11    1    1    2    0    0  0.16203285253E+00 -0.22671232196E+00  0.22128302240E+01  0.22303073742E+01  0.51100000000E-03 0. -1.
    9000002    1    1    2    0    0 -0.30310209064E+00  0.40221122791E+00  0.17387351849E+00  0.10787588932E+01  0.93800000000E+00 0.  1.
         22    1    1    2    0    0  0.14106923811E+00 -0.17549890595E+00  0.16132962249E+01  0.16289337326E+01  0.00000000000E+00 0. -1.
</event>
<event>
 5    1  0.3490044E+002  0.1599673E+01  0.7818608E-02  0.3353719E+00
         11   -1    0    0    0    0  0.00000000000E+00  0.00000000000E+00  0.39999999674E+01  0.40000000000E+01  0.51100000000E-03 0. -1.
    9000002   -1    0    0    0    0 -0.00000000000E+00 -0.00000000000E+00  0.00000000000E+00  0.93800000000E+00  0.93800000000E+00 0. -1.
         11    1    1    2    0    0  0.75544081655E-01  0.36013510528E-01  0.89775740341E+00  0.90164987534E+00  0.51100000000E-03 0. -1.
    9000002    1    1    2    0    0 -0.33531973105E+00 -0.15031032109E+00  0.90723725695E-01  0.10114876712E+01  0.93800000000E+00 0. -1.
         22    1    1    2    0    0  0.25977564940E+00  0.11429681057E+00  0.30115188383E+01  0.30248624534E+01  0.00000000000E+00 0. -1.
</event>
<event>
 5    1  0.3490044E+002  0.1599673E+01  0.7818608E-02  0.3353718E+00
         11   -1    0    0    0    0  0.00000000000E+00  0.00000000000E+00  0.39999999674E+01  0.40000000000E+01  0.51100000000E-03 0.  1.
    9000002   -1    0    0    0    0 -0.00000000000E+00 -0.00000000000E+00  0.00000000000E+00  0.93800000000E+00  0.93800000000E+00 0.  1.
         11    1    1    2    0    0  0.85570544390E-02  0.53730780229E-02  0.19557944147E+00  0.19584093595E+00  0.51100000000E-03 0.  1.
    9000002    1    1    2    0    0 -0.19257051653E+00 -0.10599378866E+00  0.32030902808E-01  0.96394401591E+00  0.93800000000E+00 0.  1.
         22    1    1    2    0    0  0.18401346209E+00  0.10062071064E+00  0.37723896231E+01  0.37782150481E+01  0.00000000000E+00 0.  1.
</event>
<event>
 5    1  0.3490044E+002  0.1599674E+01  0.7818608E-02  0.3353717E+00
         11   -1    0    0    0    0  0.00000000000E+00  0.00000000000E+00  0.39999999674E+01  0.40000000000E+01  0.51100000000E-03 0.  1.
    9000002   -1    0    0    0    0 -0.00000000000E+00 -0.00000000000E+00  0.00000000000E+00  0.93800000000E+00  0.93800000000E+00 0. -1.
         11    1    1    2    0    0 -0.11880761969E-01 -0.39502265113E-02  0.16344359438E+00  0.16392323343E+00  0.51100000000E-03 0.  1.
    9000002    1    1    2    0    0  0.29689668942E+00  0.81627337836E-01  0.63299119835E-01  0.98927319030E+00  0.93800000000E+00 0. -1.
         22    1    1    2    0    0 -0.28501592745E+00 -0.77677111325E-01  0.37732572531E+01  0.37848035763E+01  0.00000000000E+00 0.  1.
</event>
<event>
 5    1  0.3490044E+002  0.1599671E+01  0.7818608E-02  0.3353720E+00
         11   -1    0    0    0    0  0.00000000000E+00  0.00000000000E+00  0.39999999674E+01  0.40000000000E+01  0.51100000000E-03 0. -1.
    9000002   -1    0    0    0    0 -0.00000000000E+00 -0.00000000000E+00  0.00000000000E+00  0.93800000000E+00  0.93800000000E+00 0. -1.
         11    1    1    2    0    0  0.19446963387E+00 -0.48578201114E-01  0.19245198796E+01  0.19349303109E+01  0.51100000000E-03 0. -1.
    9000002    1    1    2    0    0 -0.39403733649E+00  0.10388615424E+00  0.11212319914E+00  0.10288213486E+01  0.93800000000E+00 0. -1.
         22    1    1    2    0    0  0.19956770262E+00 -0.55307953125E-01  0.19633568886E+01  0.19742483404E+01  0.00000000000E+00 0. -1.
</event>
<event>
 5    1  0.3490044E+002  0.1599676E+01  0.7818608E-02  0.3353715E+00
         11   -1    0    0    0    0  0.00000000000E+00  0.00000000000E+00  0.39999999674E+01  0.40000000000E+01  0.51100000000E-03 0.  1.
    9000002   -1    0    0    0    0 -0.00000000000E+00 -0.00000000000E+00  0.00000000000E+00  0.93800000000E+00  0.93800000000E+00 0.  1.
         11    1    1    2    0    0  0.20880688136E-01 -0.14958683755E-01  0.39254185537E+00  0.39338166543E+00  0.51100000000E-03 0.  1.
    9000002    1    1    2    0    0 -0.21508100492E+00  0.15261628074E+00  0.46253068416E-01  0.97546651104E+00  0.93800000000E+00 0.  1.
         22    1    1    2    0    0  0.19420031678E+00 -0.13765759699E+00  0.35612050436E+01  0.35691518235E+01  0.00000000000E+00 0.  1.
</event>
<event>
 5    1  0.3490044E+002  0.1599533E+01  0.7818608E-02  0.3353870E+00
         11   -1    0    0    0    0  0.00000000000E+00  0.00000000000E+00  0.39999999674E+01  0.40000000000E+01  0.51100000000E-03 0. -1.
    9000002   -1    0    0    0    0 -0.00000000000E+00 -0.00000000000E+00  0.00000000000E+00  0.93800000000E+00  0.93800000000E+00 0.  1.
         11    1    1    2    0    0 -0.32501246129E+00 -0.67600829311E-01  0.13651285396E+01  0.14049125107E+01  0.51100000000E-03 0. -1.
    9000002    1    1    2    0    0  0.82126403335E+00  0.13726635375E+00  0.51682099090E+00  0.13565635263E+01  0.93800000000E+00 0.  1.
         22    1    1    2    0    0 -0.49625157206E+00 -0.69665524439E-01  0.21180504369E+01  0.21765239629E+01  0.00000000000E+00 0. -1.
</event>
<event>
 5    1  0.3490044E+002  0.1452823E+01  0.7818608E-02  0.3530429E+00
         11   -1    0    0    0    0  0.00000000000E+00  0.00000000000E+00  0.39999999674E+01  0.40000000000E+01  0.51100000000E-03 0.  1.
    9000002   -1    0    0    0    0 -0.00000000000E+00 -0.00000000000E+00  0.00000000000E+00  0.93800000000E+00  0.93800000000E+00 0. -1.
         11    1    1    2    0    0 -0.17028845762E+00 -0.35937794140E+00  0.68115711003E+00  0.78874960109E+00  0.51100000000E-03 0.  1.
    9000002    1    1    2    0    0  0.20368003505E+00  0.12557087777E+00  0.15949783868E+00  0.98108978313E+00  0.93800000000E+00 0. -1.
         22    1    1    2    0    0 -0.33391577431E-01  0.23380706363E+00  0.31593450187E+01  0.31681606158E+01  0.00000000000E+00 0.  1.
</event>
<event>
 5    1  0.3490044E+002  0.1591406E+01  0.7818608E-02  0.3362744E+00
         11   -1    0    0    0    0  0.00000000000E+00  0.00000000000E+00  0.39999999674E+01  0.40000000000E+01  0.51100000000E-03 0.  1.
    9000002   -1    0    0    0    0 -0.00000000000E+00 -0.00000000000E+00  0.00000000000E+00  0.93800000000E+00  0.93800000000E+00 0.  1.
         11    1    1    2    0    0  0.34695318486E+00 -0.31581637265E+00  0.21953002496E+01  0.22448741481E+01  0.51100000000E-03 0.  1.
    9000002    1    1    2    0    0 -0.48726824956E+00  0.65910415743E+00  0.50943348382E+00  0.13458139217E+01  0.93800000000E+00 0.  1.
         22    1    1    2    0    0  0.14031506469E+00 -0.34328778478E+00  0.12952662339E+01  0.13473119302E+01  0.00000000000E+00 0. -1.
</event>
<event>
 5    1  0.3490044E+002  0.1555020E+01  0.7818608E-02  0.3403678E+00
         11   -1    0    0    0    0  0.00000000000E+00  0.00000000000E+00  0.39999999674E+01  0.40000000000E+01  0.51100000000E-03 0. -1.
    9000002   -1    0    0    0    0 -0.00000000000E+00 -0.00000000000E+00  0.00000000000E+00  0.93800000000E+00  0.93800000000E+00 0. -1.
         11    1    1    2    0    0 -0.17739773066E+00  0.71309626597E-01  0.41892845266E+00  0.46049574076E+00  0.51100000000E-03 0. -1.
    9000002    1    1    2    0    0  0.16868173838E+00 -0.36144547950E+00  0.14541148270E+00  0.10296042263E+01  0.93800000000E+00 0. -1.
         22    1    1    2    0    0  0.87159922854E-02  0.29013585290E+00  0.34356600320E+01  0.34479000329E+01  0.00000000000E+00 0. -1.
</event>
<event>
 5    1  0.3490044E+002  0.1599676E+01  0.7818608E-02  0.3353715E+00
         11   -1    0    0    0    0  0.00000000000E+00  0.00000000000E+00  0.39999999674E+01  0.40000000000E+01  0.51100000000E-03 0.  1.
    9000002   -1    0    0    0    0 -0.00000000000E+00 -0.00000000000E+00  0.00000000000E+00  0.93800000000E+00  0.93800000000E+00 0. -1.
         11    1    1    2    0    0  0.66908288382E-02 -0.17779985279E-01  0.22831094917E+00  0.22910051440E+00  0.51100000000E-03 0. -1.
    9000002    1    1    2    0    0 -0.11112577172E+00  0.29915453967E+00  0.68066635130E-01  0.99313616517E+00  0.93800000000E+00 0. -1.
         22    1    1    2    0    0  0.10443494288E+00 -0.28137455440E+00  0.37036223831E+01  0.37157633204E+01  0.00000000000E+00 0.  1.
</event>
<event>
 5    1  0.3490044E+002  0.1594569E+01  0.7818608E-02  0.3359279E+00
         11   -1    0    0    0    0  0.00000000000E+00  0.00000000000E+00  0.39999999674E+01  0.40000000000E+01  0.51100000000E-03 0.  1.
    9000002   -1    0    0    0    0 -0.00000000000E+00 -0.00000000000E+00  0.00000000000E+00  0.93800000000E+00  0.93800000000E+00 0.  1.
         11    1    1    2    0    0  0.17060834844E-01  0.21516081100E+00  0.68022438037E+00  0.71364607156E+00  0.51100000000E-03 0.  1.
    9000002    1    1    2    0    0  0.23734368766E+00 -0.92915017546E+00  0.73265851562E+00  0.15284909470E+01  0.93800000000E+00 0.  1.
         22    1    1    2    0    0 -0.25440452250E+00  0.71398936446E+00  0.25871170714E+01  0.26958629814E+01  0.00000000000E+00 0.  1.
</event>
<event>
 5    1  0.3490044E+002  0.1599620E+01  0.7818608E-02  0.3353775E+00
         11   -1    0    0    0    0  0.00000000000E+00  0.00000000000E+00  0.39999999674E+01  0.40000000000E+01  0.51100000000E-03 0.  1.
    9000002   -1    0    0    0    0 -0.00000000000E+00 -0.00000000000E+00  0.00000000000E+00  0.93800000000E+00  0.93800000000E+00 0. -1.
         11    1    1    2    0    0  0.55197114132E-01 -0.17327828974E+00  0.18937015584E+01  0.19024137144E+01  0.51100000000E-03 0.  1.
    9000002    1    1    2    0    0 -0.10853508324E+00  0.37462418744E+00  0.10252753030E+00  0.10210186289E+01  0.93800000000E+00 0. -1.
         22    1    1    2    0    0  0.53337969113E-01 -0.20134589770E+00  0.20037708786E+01  0.20145676567E+01  0.00000000000E+00 0.  1.
</event>
<event>
 5    1  0.3490044E+002  0.1595140E+01  0.7818608E-02  0.3358656E+00
         11   -1    0    0    0    0  0.00000000000E+00  0.00000000000E+00  0.39999999674E+01  0.40000000000E+01  0.51100000000E-03 0.  1.
    9000002   -1    0    0    0    0 -0.00000000000E+00 -0.00000000000E+00  0.00000000000E+00  0.93800000000E+00  0.93800000000E+00 0.  1.
         11    1    1    2    0    0  0.17834351685E+00 -0.15321586178E-01  0.11921643598E+01  0.12055278027E+01  0.51100000000E-03 0.  1.
    9000002    1    1    2    0    0 -0.35390217449E+00  0.13677601043E+00  0.10058334632E+00  0.10168163235E+01  0.93800000000E+00 0.  1.
         22    1    1    2    0    0  0.17555865764E+00 -0.12145442425E+00  0.27072522612E+01  0.27156558739E+01  0.00000000000E+00 0.  1.
</event>
<event>
 5    1  0.3490044E+002  0.1599588E+01  0.7818608E-02  0.3353811E+00
         11   -1    0    0    0    0  0.00000000000E+00  0.00000000000E+00  0.39999999674E+01  0.40000000000E+01  0.51100000000E-03 0.  1.
    9000002   -1    0    0    0    0 -0.00000000000E+00 -0.00000000000E+00  0.00000000000E+00  0.93800000000E+00  0.93800000000E+00 0.  1.
         11    1    1    2    0    0  0.42431789845E-01  0.10888689137E+00  0.10107380043E+01  0.10174715653E+01  0.51100000000E-03 0.  1.
    9000002    1    1    2    0    0 -0.16322033442E+00 -0.37990158669E+00  0.11559884398E+00  0.10315877015E+01  0.93800000000E+00 0.  1.
         22    1    1    2    0    0  0.12078854457E+00  0.27101469533E+00  0.28736631191E+01  0.28889407332E+01  0.00000000000E+00 0.  1.
</event>
<event>
 5    1  0.3490044E+002  0.1545349E+01  0.7818608E-02  0.3414903E+00
         11   -1    0    0    0    0  0.00000000000E+00  0.00000000000E+00  0.39999999674E+01  0.40000000000E+01  0.51100000000E-03 0.  1.
    9000002   -1    0    0    0    0 -0.00000000000E+00 -0.00000000000E+00  0.00000000000E+00  0.93800000000E+00  0.93800000000E+00 0.  1.
         11    1    1    2    0    0  0.12082187109E+00 -0.53236451082E+00  0.19342153687E+01  0.20097759205E+01  0.51100000000E-03 0.  1.
    9000002    1    1    2    0    0  0.20216011223E+00  0.68897892140E+00  0.43566289073E+00  0.12590499670E+01  0.93800000000E+00 0.  1.
         22    1    1    2    0    0 -0.32298198332E+00 -0.15661441059E+00  0.16301217079E+01  0.16691741125E+01  0.00000000000E+00 0.  1.
</event>
<event>
 5    1  0.3490044E+002  0.1596490E+01  0.7818608E-02  0.3357182E+00
         11   -1    0    0    0    0  0.00000000000E+00  0.00000000000E+00  0.39999999674E+01  0.40000000000E+01  0.51100000000E-03 0. -1.
    9000002   -1    0    0    0    0 -0.00000000000E+00 -0.00000000000E+00  0.00000000000E+00  0.93800000000E+00  0.93800000000E+00 0.  1.
         11    1    1    2    0    0  0.40292484274E+00 -0.36947258342E+00  0.18165898747E+01  0.18970654846E+01  0.51100000000E-03 0. -1.
    9000002    1    1    2    0    0 -0.70692557295E+00  0.56309366424E+00  0.63121714754E+00  0.14474451035E+01  0.93800000000E+00 0.  1.
         22    1    1    2    0    0  0.30400073022E+00 -0.19362108083E+00  0.15521929451E+01  0.15934894119E+01  0.00000000000E+00 0.  1.
</event>
<event>
 5    1  0.3490044E+002  0.1599670E+01  0.7818608E-02  0.3353722E+00
         11   -1    0    0    0    0  0.00000000000E+00  0.00000000000E+00  0.39999999674E+01  0.40000000000E+01  0.51100000000E-03 0. -1.
    9000002   -1    0    0    0    0 -0.00000000000E+00 -0.00000000000E+00  0.00000000000E+00  0.93800000000E+00  0.93800000000E+00 0.  1.
         11    1    1    2    0    0 -0.12618387727E+00 -0.16236711850E+00  0.17731058943E+01  0.17849902592E+01  0.51100000000E-03 0. -1.
    9000002    1    1    2    0    0  0.27222032998E+00  0.34793116976E+00  0.13239648180E+00  0.10452429552E+01  0.93800000000E+00 0.  1.
         22    1    1    2    0    0 -0.14603645271E+00 -0.18556405126E+00  0.20944975913E+01  0.21077667856E+01  0.00000000000E+00 0. -1.
</event>
<event>
 5    1  0.3490044E+002  0.1479146E+01  0.7818608E-02  0.3495973E+00
         11   -1    0    0    0    0  0.00000000000E+00  0.00000000000E+00  0.39999999674E+01  0.40000000000E+01  0.51100000000E-03 0.  1.
    9000002   -1    0    0    0    0 -0.00000000000E+00 -0.00000000000E+00  0.00000000000E+00  0.93800000000E+00  0.93800000000E+00 0.  1.
         11    1    1    2    0    0 -0.87869297526E-01 -0.46000713542E+00  0.13451443568E+01  0.14243388571E+01  0.51100000000E-03 0.  1.
    9000002    1    1    2    0    0  0.13308575362E+00  0.17743419221E+00  0.12994614863E+00  0.97258660896E+00  0.93800000000E+00 0.  1.
         22    1    1    2    0    0 -0.45216456093E-01  0.28257294321E+00  0.25249094619E+01  0.25410745339E+01  0.00000000000E+00 0.  1.
</event>
<event>
 5    1  0.3490044E+002  0.1599673E+01  0.7818608E-02  0.3353719E+00
         11   -1    0    0    0    0  0.00000000000E+00  0.00000000000E+00  0.39999999674E+01  0.40000000000E+01  0.51100000000E-03 0. -1.
    9000002   -1    0    0    0    0 -0.00000000000E+00 -0.00000000000E+00  0.00000000000E+00  0.93800000000E+00  0.93800000000E+00 0.  1.
         11    1    1    2    0    0 -0.61943479504E-01  0.22098886574E-01  0.85070183361E+00  0.85324042700E+00  0.51100000000E-03 0. -1.
    9000002    1    1    2    0    0  0.28953489657E+00 -0.11126515606E+00  0.64248508195E-01  0.99004154564E+00  0.93800000000E+00 0.  1.
         22    1    1    2    0    0 -0.22759141706E+00  0.89166269491E-01  0.30850496256E+01  0.30947180274E+01  0.00000000000E+00 0. -1.
</event>
<event>
 5    1  0.3490044E+002  0.1599584E+01  0.7818608E-02  0.3353815E+00
         11   -1    0    0    0    0  0.00000000000E+00  0.00000000000E+00  0.39999999674E+01  0.40000000000E+01  0.51100000000E-03 0. -1.
    9000002   -1    0    0    0    0 -0.00000000000E+00 -0.00000000000E+00  0.00000000000E+00  0.93800000000E+00  0.93800000000E+00 0. -1.
         11    1    1    2    0    0 -0.13854622086E+00 -0.20986769383E+00  0.19724901650E+01  0.19884559880E+01  0.51100000000E-03 0. -1.
    9000002    1    1    2    0    0  0.28871922121E+00  0.39650388250E+00  0.16450950994E+00  0.10712056275E+01  0.93800000000E+00 0. -1.
         22    1    1    2    0    0 -0.15017300035E+00 -0.18663618867E+00  0.18630002925E+01  0.18783383845E+01  0.00000000000E+00 0. -1.
</event>
<event>
 5    1  0.3490044E+002  0.1597669E+01  0.7818608E-02  0.3355897E+00
         11   -1    0    0    0    0  0.00000000000E+00  0.00000000000E+00  0.39999999674E+01  0.40000000000E+01  0.51100000000E-03 0. -1.
    9000002   -1    0    0    0    0 -0.00000000000E+00 -0.00000000000E+00  0.00000000000E+00  0.93800000000E+00  0.93800000000E+00 0. -1.
         11    1    1    2    0    0 -0.20241939101E+00  0.36960044727E+00  0.15284020021E+01  0.15854308694E+01  0.51100000000E-03 0. -1.
    9000002    1    1    2    0    0  0.36094046870E+00 -0.76172101503E+00  0.53424135426E+00  0.13695819622E+01  0.93800000000E+00 0. -1.
         22    1    1    2    0    0 -0.15852107769E+00  0.39212056776E+00  0.19373566110E+01  0.19829871684E+01  0.00000000000E+00 0. -1.
</event>
<event>
 5    1  0.3490044E+002  0.1598985E+01  0.7818608E-02  0.3354465E+00
         11   -1    0    0    0    0  0.00000000000E+00  0.00000000000E+00  0.39999999674E+01  0.40000000000E+01  0.51100000000E-03 0. -1.
    9000002   -1    0    0    0    0 -0.00000000000E+00 -0.00000000000E+00  0.00000000000E+00  0.93800000000E+00  0.93800000000E+00 0. -1.
         11    1    1    2    0    0 -0.11345887445E+00  0.54951860248E-01  0.16746417672E+01  0.16793802228E+01  0.51100000000E-03 0. -1.
    9000002    1    1    2    0    0  0.31446354144E+00 -0.73500346381E-01  0.70276023785E-01  0.99452116083E+00  0.93800000000E+00 0. -1.
         22    1    1    2    0    0 -0.20100466699E+00  0.18548486133E-01  0.22550821763E+01  0.22640986163E+01  0.00000000000E+00 0. -1.
</event>
<event>
 5    1  0.3490044E+002  0.1599676E+01  0.7818608E-02  0.3353716E+00
         11   -1    0    0    0    0  0.00000000000E+00  0.00000000000E+00  0.39999999674E+01  0.40000000000E+01  0.51100000000E-03 0. -1.
    9000002   -1    0    0    0    0 -0.00000000000E+00 -0.00000000000E+00  0.00000000000E+00  0.93800000000E+00  0.93800000000E+00 0.  1.
         11    1    1    2    0    0 -0.30429028179E-01 -0.31386037174E-01  0.61737948035E+00  0.61892543409E+00  0.51100000000E-03 0. -1.
    9000002    1    1    2    0    0  0.19903668864E+00  0.20473454685E+00  0.54320671128E-01  0.98200131029E+00  0.93800000000E+00 0.  1.
         22    1    1    2    0    0 -0.16860766046E+00 -0.17334850968E+00  0.33282998159E+01  0.33370732556E+01  0.00000000000E+00 0. -1.
</event>
<event>
 5    1  0.3490044E+002  0.1599313E+01  0.7818608E-02  0.3354109E+00
         11   -1    0    0    0    0  0.00000000000E+00  0.00000000000E+00  0.39999999674E+01  0.40000000000E+01  0.51100000000E-03 0.  1.
    9000002   -1    0    0    0    0 -0.00000000000E+00 -0.00000000000E+00  0.00000000000E+00  0.93800000000E+00  0.93800000000E+00 0. -1.
         11    1    1    2    0    0  0.17839648317E+00 -0.64427199647E-02  0.13084688184E+01  0.13205899150E+01  0.51100000000E-03 0.  1.
    9000002    1    1    2    0    0 -0.46738783971E+00  0.47875671408E-01  0.15069552137E+00  0.10598568832E+01  0.93800000000E+00 0. -1.
         22    1    1    2    0    0  0.28899135654E+00 -0.41432951443E-01  0.25408356276E+01  0.25575532018E+01  0.00000000000E+00 0.  1.
</event>
<event>
 5    1  0.3490044E+002  0.1544658E+01  0.7818608E-02  0.3415710E+00
         11   -1    0    0    0    0  0.00000000000E+00  0.00000000000E+00  0.39999999674E+01  0.40000000000E+01  0.51100000000E-03 0.  1.
    9000002   -1    0    0    0    0 -0.00000000000E+00 -0.00000000000E+00  0.00000000000E+00  0.93800000000E+00  0.93800000000E+00 0. -1.
         11    1    1    2    0    0 -0.20001494145E+00 -0.79437307672E-01  0.15745615296E+01  0.15892012253E+01  0.51100000000E-03 0.  1.
    9000002    1    1    2    0    0 -0.17208874903E+00  0.36619240015E-01  0.62548199160E-01  0.95640565844E+00  0.93800000000E+00 0. -1.
         22    1    1    2    0    0  0.37210369048E+00  0.42818067657E-01  0.23628902386E+01  0.23923931163E+01  0.00000000000E+00 0.  1.
</event>
<event>
 5    1  0.3490044E+002  0.1599395E+01  0.7818608E-02  0.3354020E+00
         11   -1    0    0    0    0  0.00000000000E+00  0.00000000000E+00  0.39999999674E+01  0.40000000000E+01  0.51100000000E-03 0.  1.
    9000002   -1    0    0    0    0 -0.00000000000E+00 -0.00000000000E+00  0.00000000000E+00  0.93800000000E+00  0.93800000000E+00 0. -1.
         11    1    1    2    0    0 -0.10792991037E+00 -0.53227609448E-01  0.11685462831E+01  0.11747266580E+01  0.51100000000E-03 0.  1.
    9000002    1    1    2    0    0  0.29977253734E+00  0.17750409425E+00  0.81592759280E-01  0.10039286110E+01  0.93800000000E+00 0.  1.
         22    1    1    2    0    0 -0.19184262698E+00 -0.12427648480E+00  0.27498609249E+01  0.27593447310E+01  0.00000000000E+00 0.  1.
</event>
<event>
 5    1  0.3490044E+002  0.1599592E+01  0.7818608E-02  0.3353807E+00
         11   -1    0    0    0    0  0.00000000000E+00  0.00000000000E+00  0.39999999674E+01  0.40000000000E+01  0.51100000000E-03 0. -1.
    9000002   -1    0    0    0    0 -0.00000000000E+00 -0.00000000000E+00  0.00000000000E+00  0.93800000000E+00  0.93800000000E+00 0. -1.
         11    1    1    2    0    0 -0.52971294811E-01 -0.18107125169E+00  0.19939918464E+01  0.20028970270E+01  0.51100000000E-03 0. -1.
    9000002    1    1    2    0    0  0.11559842667E+00  0.37212125745E+00  0.10235390309E+00  0.10208611796E+01  0.93800000000E+00 0. -1.
         22    1    1    2    0    0 -0.62627131861E-01 -0.19105000576E+00  0.19036542179E+01  0.19142417934E+01  0.00000000000E+00 0. -1.
</event>
<event>
 5    1  0.3490044E+002  0.1599582E+01  0.7818608E-02  0.3353817E+00
         11   -1    0    0    0    0  0.00000000000E+00  0.00000000000E+00  0.39999999674E+01  0.40000000000E+01  0.51100000000E-03 0. -1.
    9000002   -1    0    0    0    0 -0.00000000000E+00 -0.00000000000E+00  0.00000000000E+00  0.93800000000E+00  0.93800000000E+00 0.  1.
         11    1    1    2    0    0 -0.20011186093E-01  0.11751002240E-02  0.35553483031E+00  0.35609985273E+00  0.51100000000E-03 0. -1.
    9000002    1    1    2    0    0  0.22547244931E+00 -0.87665687830E-01  0.38925140095E-01  0.96947525226E+00  0.93800000000E+00 0.  1.
         22    1    1    2    0    0 -0.20546126321E+00  0.86490587606E-01  0.36055399970E+01  0.36124248950E+01  0.00000000000E+00 0. -1.
</event>
<event>
 5    1  0.3490044E+002  0.1599676E+01  0.7818608E-02  0.3353715E+00
         11   -1    0    0    0    0  0.00000000000E+00  0.00000000000E+00  0.39999999674E+01  0.40000000000E+01  0.51100000000E-03 0. -1.
    9000002   -1    0    0    0    0 -0.00000000000E+00 -0.00000000000E+00  0.00000000000E+00  0.93800000000E+00  0.93800000000E+00 0. -1.
         11    1    1    2    0    0  0.13979653809E+00  0.53383808285E-01  0.12500223511E+01  0.12589475932E+01  0.51100000000E-03 0. -1.
    9000002    1    1    2    0    0 -0.43132525816E+00 -0.16734642195E+00  0.14565355614E+00  0.10559854458E+01  0.93800000000E+00 0. -1.
         22    1    1    2    0    0  0.29152872007E+00  0.11396261367E+00  0.26043240601E+01  0.26230669611E+01  0.00000000000E+00 0. -1.
</event>
<event>
 5    1  0.3490044E+002  0.1599663E+01  0.7818608E-02  0.3353730E+00
         11   -1    0    0    0    0  0.00000000000E+00  0.00000000000E+00  0.39999999674E+01  0.40000000000E+01  0.51100000000E-03 0.  1.
    9000002   -1    0    0    0    0 -0.00000000000E+00 -0.00000000000E+00  0.00000000000E+00  0.93800000000E+00  0.93800000000E+00 0. -1.
         11    1    1    2    0    0  0.43182008332E-01  0.45704251095E-01  0.10033251148E+01  0.10052935449E+01  0.51100000000E-03 0.  1.
    9000002    1    1    2    0    0 -0.18373840599E+00 -0.18801368299E+00  0.45966066675E-01  0.97522603847E+00  0.93800000000E+00 0. -1.
         22    1    1    2    0    0  0.14055639766E+00  0.14230943190E+00  0.29507087859E+01  0.29574804166E+01  0.00000000000E+00 0.  1.
</event>
<event>
 5    1  0.3490044E+002  0.1598985E+01  0.7818608E-02  0.3354465E+00
         11   -1    0    0    0    0  0.00000000000E+00  0.00000000000E+00  0.39999999674E+01  0.40000000000E+01  0.51100000000E-03 0. -1.
    9000002   -1    0    0    0    0 -0.00000000000E+00 -0.00000000000E+00  0.00000000000E+00  0.93800000000E+00  0.93800000000E+00 0. -1.
         11    1    1    2    0    0  0.37202730019E-01  0.12396120562E+00  0.10312879911E+01  0.10393775086E+01  0.51100000000E-03 0. -1.
    9000002    1    1    2    0    0 -0.12157120906E+00 -0.36438773053E+00  0.99902302676E-01  0.10185197333E+01  0.93800000000E+00 0. -1.
         22    1    1    2    0    0  0.84368479045E-01  0.24042652492E+00  0.28688096736E+01  0.28801027581E+01  0.00000000000E+00 0. -1.
</event>
<event>
 5    1  0.3490044E+002  0.1599618E+01  0.7818608E-02  0.3353778E+00
         11   -1    0    0    0    0  0.00000000000E+00  0.00000000000E+00  0.39999999674E+01  0.40000000000E+01  0.51100000000E-03 0.  1.
    9000002   -1    0    0    0    0 -0.00000000000E+00 -0.00000000000E+00  0.00000000000E+00  0.93800000000E+00  0.93800000000E+00 0.  1.
         11    1    1    2    0    0  0.22187534828E-01  0.79062249421E-01  0.68204969635E+00  0.68697538194E+00  0.51100000000E-03 0.  1.
    9000002    1    1    2    0    0 -0.14223661116E+00 -0.41210444589E+00  0.12887508746E+00  0.10423598784E+01  0.93800000000E+00 0.  1.
         22    1    1    2    0    0  0.12004907633E+00  0.33304219647E+00  0.31890751836E+01  0.32086647397E+01  0.00000000000E+00 0.  1.
</event>
<event>
 5    1  0.3490044E+002  0.1599664E+01  0.7818608E-02  0.3353728E+00
         11   -1    0    0    0    0  0.00000000000E+00  0.00000000000E+00  0.39999999674E+01  0.40000000000E+01  0.51100000000E-03 0.  1.
    9000002   -1    0    0    0    0 -0.00000000000E+00 -0.00000000000E+00  0.00000000000E+00  0.93800000000E+00  0.93800000000E+00 0.  1.
         11    1    1    2    0    0 -0.19589477572E+00  0.18040613884E+00  0.19625772845E+01  0.19805633029E+01  0.51100000000E-03 0.  1.
    9000002    1    1    2    0    0  0.38484845160E+00 -0.35728095998E+00  0.18960697351E+00  0.10915827131E+01  0.93800000000E+00 0.  1.
         22    1    1    2    0    0 -0.18895367588E+00  0.17687482114E+00  0.18478157094E+01  0.18658539840E+01  0.00000000000E+00 0.  1.
</event>
<event>
 5    1  0.3490044E+002  0.1543475E+01  0.7818608E-02  0.3417095E+00
         11   -1    0    0    0    0  0.00000000000E+00  0.00000000000E+00  0.39999999674E+01  0.40000000000E+01  0.51100000000E-03 0. -1.
    9000002   -1    0    0    0    0 -0.00000000000E+00 -0.00000000000E+00  0.00000000000E+00  0.93800000000E+00  0.93800000000E+00 0.  1.
         11    1    1    2    0    0 -0.68015262166E-01 -0.29207470212E+00  0.16598295306E+01  0.16867033051E+01  0.51100000000E-03 0. -1.
    9000002    1    1    2    0    0 -0.78631531570E-01  0.69233517316E-01  0.49483650013E-01  0.94512900140E+00  0.93800000000E+00 0.  1.
         22    1    1    2    0    0  0.14664679374E+00  0.22284118481E+00  0.22906867867E+01  0.23061676935E+01  0.00000000000E+00 0. -1.
</event>
<event>
 5    1  0.3490044E+002  0.1597864E+01  0.7818608E-02  0.3355685E+00
         11   -1    0    0    0    0  0.00000000000E+00  0.00000000000E+00  0.39999999674E+01  0.40000000000E+01  0.51100000000E-03 0. -1.
    9000002   -1    0    0    0    0 -0.00000000000E+00 -0.00000000000E+00  0.00000000000E+00  0.93800000000E+00  0.93800000000E+00 0.  1.
         11    1    1    2    0    0 -0.12499513784E+00 -0.28718549105E+00  0.16824645469E+01  0.17113697740E+01  0.51100000000E-03 0. -1.
    9000002    1    1    2    0    0  0.24024627681E+00  0.53338651432E+00  0.23979060024E+00  0.11311776957E+01  0.93800000000E+00 0.  1.
         22    1    1    2    0    0 -0.11525113897E+00 -0.24620102327E+00  0.20777448202E+01  0.20954525303E+01  0.00000000000E+00 0. -1.
</event>
<event>
 5    1  0.3490044E+002  0.1599612E+01  0.7818608E-02  0.3353785E+00
         11   -1    0    0    0    0  0.00000000000E+00  0.00000000000E+00  0.39999999674E+01  0.40000000000E+01  0.51100000000E-03 0. -1.
    9000002   -1    0    0    0    0 -0.00000000000E+00 -0.00000000000E+00  0.00000000000E+00  0.93800000000E+00  0.93800000000E+00 0.  1.
         11    1    1    2    0    0  0.51285062399E-01  0.11394113598E+00  0.15569022422E+01  0.15619083178E+01  0.51100000000E-03 0. -1.
    9000002    1    1    2    0    0 -0.12536945315E+00 -0.31088696334E+00  0.75275986826E-01  0.99893877588E+00  0.93800000000E+00 0.  1.
         22    1    1    2    0    0  0.74084390746E-01  0.19694582736E+00  0.23678217383E+01  0.23771529064E+01  0.00000000000E+00 0. -1.
</event>
<event>
 5    1  0.3490044E+002  0.1599668E+01  0.7818608E-02  0.3353724E+00
         11   -1    0    0    0    0  0.00000000000E+00  0.00000000000E+00  0.39999999674E+01  0.40000000000E+01  0.51100000000E-03 0. -1.
    9000002   -1    0    0    0    0 -0.00000000000E+00 -0.00000000000E+00  0.00000000000E+00  0.93800000000E+00  0.93800000000E+00 0. -1.
         11    1    1    2    0    0  0.10667597962E-01 -0.10500783074E-01  0.24316116441E+00  0.24362199632E+00  0.51100000000E-03 0. -1.
    9000002    1    1    2    0    0 -0.15186593645E+00  0.18775012184E+00  0.38719180344E-01  0.96935883234E+00  0.93800000000E+00 0. -1.
         22    1    1    2    0    0  0.14119833848E+00 -0.17724933877E+00  0.37181196226E+01  0.37250191713E+01  0.00000000000E+00 0. -1.
</event>
<event>
 5    1  0.3490044E+002  0.1599666E+01  0.7818608E-02  0.3353726E+00
         11   -1    0    0    0    0  0.00000000000E+00  0.00000000000E+00  0.39999999674E+01  0.40000000000E+01  0.51100000000E-03 0.  1.
    9000002   -1    0    0    0    0 -0.00000000000E+00 -0.00000000000E+00  0.00000000000E+00  0.93800000000E+00  0.93800000000E+00 0.  1.
         11    1    1    2    0    0 -0.57472033032E-02  0.58518128236E-02  0.13535483380E+00  0.13560407889E+00  0.51100000000E-03 0.  1.
    9000002    1    1    2    0    0  0.20702674594E+00 -0.17239458945E+00  0.48297005465E-01  0.97711645608E+00  0.93800000000E+00 0.  1.
         22    1    1    2    0    0 -0.20127954264E+00  0.16654277662E+00  0.38163481281E+01  0.38252794650E+01  0.00000000000E+00 0.  1.
</event>
<event>
 5    1  0.3490044E+002  0.1449649E+01  0.7818608E-02  0.3534676E+00
         11   -1    0    0    0    0  0.00000000000E+00  0.00000000000E+00  0.39999999674E+01  0.40000000000E+01  0.51100000000E-03 0.  1.
    9000002   -1    0    0    0    0 -0.00000000000E+00 -0.00000000000E+00  0.00000000000E+00  0.93800000000E+00  0.93800000000E+00 0.  1.
         11    1    1    2    0    0 -0.10455426336E+00 -0.90478438786E-01  0.35785064887E-01  0.14282427617E+00  0.51100000000E-03 0.  1.
    9000002    1    1    2    0    0 -0.20861586240E-01 -0.14634732504E+00  0.13795870193E+00  0.95954642867E+00  0.93800000000E+00 0.  1.
         22    1    1    2    0    0  0.12541584960E+00  0.23682576383E+00  0.38262562005E+01  0.38356292952E+01  0.00000000000E+00 0.  1.
</event>
<event>
 5    1  0.3490044E+002  0.1599001E+01  0.7818608E-02  0.3354449E+00
         11   -1    0    0    0    0  0.00000000000E+00  0.00000000000E+00  0.39999999674E+01  0.40000000000E+01  0.51100000000E-03 0.  1.
    9000002   -1    0    0    0    0 -0.00000000000E+00 -0.00000000000E+00  0.00000000000E+00  0.93800000000E+00  0.93800000000E+00 0. -1.
         11    1    1    2    0    0 -0.66573769985E-02 -0.25625055862E-01  0.16510455150E+00  0.16721464710E+00  0.51100000000E-03 0.  1.
    9000002    1    1    2    0    0  0.63909329854E-01  0.32397322449E+00  0.73498548888E-01  0.99714045616E+00  0.93800000000E+00 0. -1.
         22    1    1    2    0    0 -0.57251952856E-01 -0.29834816863E+00  0.37613968670E+01  0.37736448967E+01  0.00000000000E+00 0.  1.
</event>
<event>
 5    1  0.3490044E+002  0.1599674E+01  0.7818608E-02  0.3353717E+00
         11   -1    0    0    0    0  0.00000000000E+00  0.00000000000E+00  0.39999999674E+01  0.40000000000E+01  0.51100000000E-03 0. -1.
    9000002   -1    0    0    0    0 -0.00000000000E+00 -0.00000000000E+00  0.00000000000E+00  0.93800000000E+00  0.93800000000E+00 0. -1.
         11    1    1    2    0    0 -0.76775460466E-02 -0.18521830567E-02  0.13914645692E+00  0.13937134889E+00  0.51100000000E-03 0.  1.
    9000002    1    1    2    0    0  0.20316623796E+00  0.46720542416E-01  0.28788157095E-01  0.96131789088E+00  0.93800000000E+00 0. -1.
         22    1    1    2    0    0 -0.19548869192E+00 -0.44868359359E-01  0.38320653533E+01  0.38373107602E+01  0.00000000000E+00 0. -1.
</event>
<event>
 5    1  0.3490044E+002  0.1598004E+01  0.7818608E-02  0.3355533E+00
         11   -1    0    0    0    0  0.00000000000E+00  0.00000000000E+00  0.39999999674E+01  0.40000000000E+01  0.51100000000E-03 0.  1.
    9000002   -1    0    0    0    0 -0.00000000000E+00 -0.00000000000E+00  0.00000000000E+00  0.93800000000E+00  0.93800000000E+00 0. -1.
         11    1    1    2    0    0  0.17101537196E+00 -0.13944393198E+00  0.15743783057E+01  0.15897667056E+01  0.51100000000E-03 0.  1.
    9000002    1    1    2    0    0 -0.36869232581E+00  0.44290480984E+00  0.23218860204E+00  0.11251018837E+01  0.93800000000E+00 0. -1.
         22    1    1    2    0    0  0.19767695385E+00 -0.30346087786E+00  0.21934330596E+01  0.22231314108E+01  0.00000000000E+00 0.  1.
</event>
<event>
 5    1  0.3490044E+002  0.1582343E+01  0.7818608E-02  0.3372753E+00
         11   -1    0    0    0    0  0.00000000000E+00  0.00000000000E+00  0.39999999674E+01  0.40000000000E+01  0.51100000000E-03 0. -1.
    9000002   -1    0    0    0    0 -0.00000000000E+00 -0.00000000000E+00  0.00000000000E+00  0.93800000000E+00  0.93800000000E+00 0. -1.
         11    1    1    2    0    0  0.94356465271E-01  0.35144788989E-01  0.70458913850E+00  0.71174743691E+00  0.51100000000E-03 0. -1.
    9000002    1    1    2    0    0  0.12774802470E+00 -0.22687235051E-01  0.23946471451E-01  0.94723371031E+00  0.93800000000E+00 0. -1.
         22    1    1    2    0    0 -0.22210448997E+00 -0.12457553938E-01  0.32714643574E+01  0.32790188528E+01  0.00000000000E+00 0. -1.
</event>
<event>
 5    1  0.3490044E+002  0.1598941E+01  0.7818608E-02  0.3354513E+00
         11   -1    0    0    0    0  0.00000000000E+00  0.00000000000E+00  0.39999999674E+01  0.40000000000E+01  0.51100000000E-03 0.  1.
    9000002   -1    0    0    0    0 -0.00000000000E+00 -0.00000000000E+00  0.00000000000E+00  0.93800000000E+00  0.93800000000E+00 0. -1.
         11    1    1    2    0    0  0.10856713565E+00  0.47286134678E-01  0.11101461746E+01  0.11164441730E+01  0.51100000000E-03 0.  1.
    9000002    1    1    2    0    0 -0.30769805368E+00 -0.23885839331E+00  0.10281840365E+00  0.10208560371E+01  0.93800000000E+00 0. -1.
         22    1    1    2    0    0  0.19913091803E+00  0.19157225863E+00  0.27870353892E+01  0.28006997899E+01  0.00000000000E+00 0.  1.
</event>
<event>
 5    1  0.3490044E+002  0.1598946E+01  0.7818608E-02  0.3354508E+00
         11   -1    0    0    0    0  0.00000000000E+00  0.00000000000E+00  0.39999999674E+01  0.40000000000E+01  0.51100000000E-03 0. -1.
    9000002   -1    0    0    0    0 -0.00000000000E+00 -0.00000000000E+00  0.00000000000E+00  0.93800000000E+00  0.93800000000E+00 0. -1.
         11    1    1    2    0    0  0.70757002544E+00  0.15549851533E+00  0.26667106276E+01  0.27633640661E+01  0.51100000000E-03 0. -1.
    9000002    1    1    2    0    0 -0.90232558665E+00 -0.22143278603E+00  0.67063964774E+00  0.14808191923E+01  0.93800000000E+00 0. -1.
         22    1    1    2    0    0  0.19475556122E+00  0.65934270707E-01  0.66264969199E+00  0.69381674164E+00  0.00000000000E+00 0. -1.
</event>
<event>
 5    1  0.3490044E+002  0.1591964E+01  0.7818608E-02  0.3362132E+00
         11   -1    0    0    0    0  0.00000000000E+00  0.00000000000E+00  0.39999999674E+01  0.40000000000E+01  0.51100000000E-03 0. -1.
    9000002   -1    0    0    0    0 -0.00000000000E+00 -0.00000000000E+00  0.00000000000E+00  0.93800000000E+00  0.93800000000E+00 0. -1.
         11    1    1    2    0    0 -0.16733822833E-01  0.26874948747E-02  0.18882452534E-01  0.25378171526E-01  0.51100000000E-03 0. -1.
    9000002    1    1    2    0    0  0.23317807106E+00  0.80289398024E-01  0.46299706607E-01  0.97098200966E+00  0.93800000000E+00 0. -1.
         22    1    1    2    0    0 -0.21644424823E+00 -0.82976892898E-01  0.39348178082E+01  0.39416398188E+01  0.00000000000E+00 0. -1.
</event>
<event>
 5    1  0.3490044E+002  0.1599571E+01  0.7818608E-02  0.3353829E+00
         11   -1    0    0    0    0  0.00000000000E+00  0.00000000000E+00  0.39999999674E+01  0.40000000000E+01  0.51100000000E-03 0.  1.
    9000002   -1    0    0    0    0 -0.00000000000E+00 -0.00000000000E+00  0.00000000000E+00  0.93800000000E+00  0.93800000000E+00 0.  1.
         11    1    1    2    0    0 -0.15744852080E-01  0.25727614507E-01  0.45724762447E+00  0.45824170666E+00  0.51100000000E-03 0.  1.
    9000002    1    1    2    0    0  0.69905406031E-01 -0.23920830919E+00  0.41335681059E-01  0.97142164867E+00  0.93800000000E+00 0.  1.
         22    1    1    2    0    0 -0.54160553950E-01  0.21348069468E+00  0.35014166618E+01  0.35083366447E+01  0.00000000000E+00 0.  1.
</event>
<event>
 5    1  0.3490044E+002  0.1599667E+01  0.7818608E-02  0.3353724E+00
         11   -1    0    0    0    0  0.00000000000E+00  0.00000000000E+00  0.39999999674E+01  0.40000000000E+01  0.51100000000E-03 0. -1.
    9000002   -1    0    0    0    0 -0.00000000000E+00 -0.00000000000E+00  0.00000000000E+00  0.93800000000E+00  0.93800000000E+00 0. -1.
         11    1    1    2    0    0  0.23029642866E+00 -0.23112868095E+00  0.22976122855E+01  0.23206635663E+01  0.51100000000E-03 0. -1.
    9000002    1    1    2    0    0 -0.38468742695E+00  0.38604667633E+00  0.20496468181E+00  0.11040248972E+01  0.93800000000E+00 0. -1.
         22    1    1    2    0    0  0.15439099829E+00 -0.15491799538E+00  0.14974230000E+01  0.15133115365E+01  0.00000000000E+00 0. -1.
</event>
<event>
 5    1  0.3490044E+002  0.1583076E+01  0.7818608E-02  0.3371939E+00
         11   -1    0    0    0    0  0.00000000000E+00  0.00000000000E+00  0.39999999674E+01  0.40000000000E+01  0.51100000000E-03 0. -1.
    9000002   -1    0    0    0    0 -0.00000000000E+00 -0.00000000000E+00  0.00000000000E+00  0.93800000000E+00  0.93800000000E+00 0. -1.
         11    1    1    2    0    0 -0.12667465374E+00  0.15392726041E+00  0.10207835768E+01  0.10400670368E+01  0.51100000000E-03 0. -1.
    9000002    1    1    2    0    0  0.35044071579E+00 -0.82730806170E-01  0.10060688794E+00  0.10097617677E+01  0.93800000000E+00 0. -1.
         22    1    1    2    0    0 -0.22376606206E+00 -0.71196454242E-01  0.28786095026E+01  0.28881711955E+01  0.00000000000E+00 0. -1.
</event>
<event>
 5    1  0.3490044E+002  0.1585760E+01  0.7818608E-02  0.3368965E+00
         11   -1    0    0    0    0  0.00000000000E+00  0.00000000000E+00  0.39999999674E+01  0.40000000000E+01  0.51100000000E-03 0. -1.
    9000002   -1    0    0    0    0 -0.00000000000E+00 -0.00000000000E+00  0.00000000000E+00  0.93800000000E+00  0.93800000000E+00 0.  1.
         11    1    1    2    0    0  0.45933871162E-01  0.18030933327E+00  0.26566538926E+01  0.26631619445E+01  0.51100000000E-03 0. -1.
    9000002    1    1    2    0    0 -0.26174047794E+00 -0.24676720798E+00  0.98220358605E-01  0.10094024824E+01  0.93800000000E+00 0.  1.
         22    1    1    2    0    0  0.21580660678E+00  0.66457874717E-01  0.12451257162E+01  0.12654355731E+01  0.00000000000E+00 0. -1.
</event>
<event>
 5    1  0.3490044E+002  0.1523529E+01  0.7818608E-02  0.3440788E+00
         11   -1    0    0    0    0  0.00000000000E+00  0.00000000000E+00  0.39999999674E+01  0.40000000000E+01  0.51100000000E-03 0.  1.
    9000002   -1    0    0    0    0 -0.00000000000E+00 -0.00000000000E+00  0.00000000000E+00  0.93800000000E+00  0.93800000000E+00 0.  1.
         11    1    1    2    0    0 -0.66503477490E-01  0.16887404565E+00  0.36558483261E+00  0.40815889892E+00  0.51100000000E-03 0.  1.
    9000002    1    1    2    0    0 -0.17286863553E+00  0.10334676015E+00  0.86295590174E-01  0.96325232773E+00  0.93800000000E+00 0.  1.
         22    1    1    2    0    0  0.23937211302E+00 -0.27222080581E+00  0.35481195446E+01  0.35665887734E+01  0.00000000000E+00 0.  1.
</event>
<event>
 5    1  0.3490044E+002  0.1598846E+01  0.7818608E-02  0.3354616E+00
         11   -1    0    0    0    0  0.00000000000E+00  0.00000000000E+00  0.39999999674E+01  0.40000000000E+01  0.51100000000E-03 0.  1.
    9000002   -1    0    0    0    0 -0.00000000000E+00 -0.00000000000E+00  0.00000000000E+00  0.93800000000E+00  0.93800000000E+00 0.  1.
         11    1    1    2    0    0 -0.70428136030E-01  0.14435215188E-02  0.46240549243E+00  0.46774064036E+00  0.51100000000E-03 0.  1.
    9000002    1    1    2    0    0  0.46122536574E+00 -0.15362459776E+00  0.16215051896E+00  0.10688620799E+01  0.93800000000E+00 0.  1.
         22    1    1    2    0    0 -0.39079722971E+00  0.15218107624E+00  0.33754439560E+01  0.34013972797E+01  0.00000000000E+00 0.  1.
</event>
<event>
 5    1  0.3490044E+002  0.1574260E+01  0.7818608E-02  0.3381783E+00
         11   -1    0    0    0    0  0.00000000000E+00  0.00000000000E+00  0.39999999674E+01  0.40000000000E+01  0.51100000000E-03 0. -1.
    9000002   -1    0    0    0    0 -0.00000000000E+00 -0.00000000000E+00  0.00000000000E+00  0.93800000000E+00  0.93800000000E+00 0.  1.
         11    1    1    2    0    0 -0.82169763911E-01 -0.51902302293E-01  0.37150928771E+00  0.38401188921E+00  0.51100000000E-03 0. -1.
    9000002    1    1    2    0    0 -0.77309852973E-01 -0.17195628776E+00  0.42735372694E-01  0.95771399193E+00  0.93800000000E+00 0.  1.
         22    1    1    2    0    0  0.15947961688E+00  0.22385859005E+00  0.35857553070E+01  0.35962741189E+01  0.00000000000E+00 0. -1.
</event>
<event>
 5    1  0.3490044E+002  0.1559907E+01  0.7818608E-02  0.3398063E+00
         11   -1    0    0    0    0  0.00000000000E+00  0.00000000000E+00  0.39999999674E+01  0.40000000000E+01  0.51100000000E-03 0. -1.
    9000002   -1    0    0    0    0 -0.00000000000E+00 -0.00000000000E+00  0.00000000000E+00  0.93800000000E+00  0.93800000000E+00 0. -1.
         11    1    1    2    0    0 -0.13266223778E+00  0.15946244547E+00  0.10858561452E+01  0.11054914608E+01  0.51100000000E-03 0. -1.
    9000002    1    1    2    0    0  0.74351834458E-01  0.84394232636E-01  0.38027982382E-01  0.94548437810E+00  0.93800000000E+00 0. -1.
         22    1    1    2    0    0  0.58310403324E-01 -0.24385667810E+00  0.28761158398E+01  0.28870241611E+01  0.00000000000E+00 0. -1.
</event>
<event>
 5    1  0.3490044E+002  0.1599677E+01  0.7818608E-02  0.3353714E+00
         11   -1    0    0    0    0  0.00000000000E+00  0.00000000000E+00  0.39999999674E+01  0.40000000000E+01  0.51100000000E-03 0. -1.
    9000002   -1    0    0    0    0 -0.00000000000E+00 -0.00000000000E+00  0.00000000000E+00  0.93800000000E+00  0.93800000000E+00 0. -1.
         11    1    1    2    0    0 -0.11383020084E+00 -0.56411713992E-01  0.14854288827E+01  0.14908517106E+01  0.51100000000E-03 0. -1.
    9000002    1    1    2    0    0  0.30172157392E+00  0.14751562647E+00  0.75516403254E-01  0.99917140440E+00  0.93800000000E+00 0. -1.
         22    1    1    2    0    0 -0.18789137308E+00 -0.91103912476E-01  0.24390546814E+01  0.24479768850E+01  0.00000000000E+00 0. -1.
</event>
<event>
 5    1  0.3490044E+002  0.1599629E+01  0.7818608E-02  0.3353766E+00
         11   -1    0    0    0    0  0.00000000000E+00  0.00000000000E+00  0.39999999674E+01  0.40000000000E+01  0.51100000000E-03 0. -1.
    9000002   -1    0    0    0    0 -0.00000000000E+00 -0.00000000000E+00  0.00000000000E+00  0.93800000000E+00  0.93800000000E+00 0.  1.
         11    1    1    2    0    0 -0.18108368025E+00  0.21740873070E+00  0.22434565117E+01  0.22612287006E+01  0.51100000000E-03 0. -1.
    9000002    1    1    2    0    0  0.30267647458E+00 -0.38400293195E+00  0.16340136940E+00  0.10703342037E+01  0.93800000000E+00 0.  1.
         22    1    1    2    0    0 -0.12159279434E+00  0.16659420126E+00  0.15931420863E+01  0.16064370957E+01  0.00000000000E+00 0. -1.
</event>
<event>
 5    1  0.3490044E+002  0.1585477E+01  0.7818608E-02  0.3369279E+00
         11   -1    0    0    0    0  0.00000000000E+00  0.00000000000E+00  0.39999999674E+01  0.40000000000E+01  0.51100000000E-03 0. -1.
    9000002   -1    0    0    0    0 -0.00000000000E+00 -0.00000000000E+00  0.00000000000E+00  0.93800000000E+00  0.93800000000E+00 0. -1.
         11    1    1    2    0    0  0.32999751881E+00 -0.12278429413E+00  0.18409236635E+01  0.18742930778E+01  0.51100000000E-03 0. -1.
    9000002    1    1    2    0    0 -0.44240392626E+00  0.43147891694E+00  0.28204127352E+00  0.11581392704E+01  0.93800000000E+00 0. -1.
         22    1    1    2    0    0  0.11240640745E+00 -0.30869462281E+00  0.18770350303E+01  0.19055676518E+01  0.00000000000E+00 0.  1.
</event>
<event>
 5    1  0.3490044E+002  0.1599463E+01  0.7818608E-02  0.3353946E+00
         11   -1    0    0    0    0  0.00000000000E+00  0.00000000000E+00  0.39999999674E+01  0.40000000000E+01  0.51100000000E-03 0. -1.
    9000002   -1    0    0    0    0 -0.00000000000E+00 -0.00000000000E+00  0.00000000000E+00  0.93800000000E+00  0.93800000000E+00 0.  1.
         11    1    1    2    0    0  0.29614913018E+00 -0.62439776990E-01  0.11848484592E+01  0.12228937670E+01  0.51100000000E-03 0. -1.
    9000002    1    1    2    0    0 -0.82055797428E+00  0.20276593955E+00  0.53515329146E+00  0.13713724734E+01  0.93800000000E+00 0.  1.
         22    1    1    2    0    0  0.52440884410E+00 -0.14032616256E+00  0.22799982167E+01  0.23437337596E+01  0.00000000000E+00 0. -1.
</event>
<event>
 5    1  0.3490044E+002  0.1599659E+01  0.7818608E-02  0.3353733E+00
         11   -1    0    0    0    0  0.00000000000E+00  0.00000000000E+00  0.39999999674E+01  0.40000000000E+01  0.51100000000E-03 0. -1.
    9000002   -1    0    0    0    0 -0.00000000000E+00 -0.00000000000E+00  0.00000000000E+00  0.93800000000E+00  0.93800000000E+00 0. -1.
         11    1    1    2    0    0 -0.56094554231E-01 -0.82528309961E-01  0.93638685263E+00  0.94168897194E+00  0.51100000000E-03 0. -1.
    9000002    1    1    2    0    0  0.22026289635E+00  0.33060548245E+00  0.10642729993E+00  0.10242004192E+01  0.93800000000E+00 0. -1.
         22    1    1    2    0    0 -0.16416834212E+00 -0.24807717248E+00  0.29571858148E+01  0.29721106089E+01  0.00000000000E+00 0. -1.
</event>
<event>
 5    1  0.3490044E+002  0.1598665E+01  0.7818608E-02  0.3354814E+00
         11   -1    0    0    0    0  0.00000000000E+00  0.00000000000E+00  0.39999999674E+01  0.40000000000E+01  0.51100000000E-03 0.  1.
    9000002   -1    0    0    0    0 -0.00000000000E+00 -0.00000000000E+00  0.00000000000E+00  0.93800000000E+00  0.93800000000E+00 0. -1.
         11    1    1    2    0    0 -0.60450354743E-02  0.80834287895E-02  0.30140629626E+00  0.30157569666E+00  0.51100000000E-03 0.  1.
    9000002    1    1    2    0    0  0.17413918061E+00  0.14322456294E+00  0.34476891072E-01  0.96533433880E+00  0.93800000000E+00 0. -1.
         22    1    1    2    0    0 -0.16809414514E+00 -0.15130799173E+00  0.36641167800E+01  0.36710899645E+01  0.00000000000E+00 0.  1.
</event>
<event>
 5    1  0.3490044E+002  0.1598355E+01  0.7818608E-02  0.3355151E+00
         11   -1    0    0    0    0  0.00000000000E+00  0.00000000000E+00  0.39999999674E+01  0.40000000000E+01  0.51100000000E-03 0. -1.
    9000002   -1    0    0    0    0 -0.00000000000E+00 -0.00000000000E+00  0.00000000000E+00  0.93800000000E+00  0.93800000000E+00 0. -1.
         11    1    1    2    0    0  0.18715483015E+00 -0.20789562536E-01  0.21275079108E+01  0.21358252054E+01  0.51100000000E-03 0. -1.
    9000002    1    1    2    0    0 -0.38015286116E+00  0.10855990030E+00  0.10646319015E+00  0.10234646358E+01  0.93800000000E+00 0. -1.
         22    1    1    2    0    0  0.19299803101E+00 -0.87770337767E-01  0.17660288664E+01  0.17787101588E+01  0.00000000000E+00 0. -1.
</event>
<event>
 5    1  0.3490044E+002  0.1597710E+01  0.7818608E-02  0.3355853E+00
         11   -1    0    0    0    0  0.00000000000E+00  0.00000000000E+00  0.39999999674E+01  0.40000000000E+01  0.51100000000E-03 0.  1.
    9000002   -1    0    0    0    0 -0.00000000000E+00 -0.00000000000E+00  0.00000000000E+00  0.93800000000E+00  0.93800000000E+00 0.  1.
         11    1    1    2    0    0  0.89732270040E-01 -0.85425771177E-01  0.76937651958E+00  0.77928809350E+00  0.51100000000E-03 0.  1.
    9000002    1    1    2    0    0 -0.43899949969E+00  0.21231363868E+00  0.16420830396E+00  0.10698626122E+01  0.93800000000E+00 0.  1.
         22    1    1    2    0    0  0.34926722965E+00 -0.12688786750E+00  0.30664151438E+01  0.30888492943E+01  0.00000000000E+00 0.  1.
</event>
<event>
 5    1  0.3490044E+002  0.1599425E+01  0.7818608E-02  0.3353988E+00
         11   -1    0    0    0    0  0.00000000000E+00  0.00000000000E+00  0.39999999674E+01  0.40000000000E+01  0.51100000000E-03 0. -1.
    9000002   -1    0    0    0    0 -0.00000000000E+00 -0.00000000000E+00  0.00000000000E+00  0.93800000000E+00  0.93800000000E+00 0.  1.
         11    1    1    2    0    0 -0.75536247977E-01 -0.16392651534E-01  0.78164430445E+00  0.78545688843E+00  0.51100000000E-03 0. -1.
    9000002    1    1    2    0    0  0.30862215932E+00  0.11199242365E+00  0.72308252823E-01  0.99642482085E+00  0.93800000000E+00 0.  1.
         22    1    1    2    0    0 -0.23308591134E+00 -0.95599772120E-01  0.31460474101E+01  0.31561182907E+01  0.00000000000E+00 0. -1.
</event>
<event>
 5    1  0.3490044E+002  0.1599640E+01  0.7818608E-02  0.3353754E+00
         11   -1    0    0    0    0  0.00000000000E+00  0.00000000000E+00  0.39999999674E+01  0.40000000000E+01  0.51100000000E-03 0.  1.
    9000002   -1    0    0    0    0 -0.00000000000E+00 -0.00000000000E+00  0.00000000000E+00  0.93800000000E+00  0.93800000000E+00 0. -1.
         11    1    1    2    0    0 -0.69028105864E-02  0.91807843343E-02  0.26641501989E+00  0.26666300745E+00  0.51100000000E-03 0.  1.
    9000002    1    1    2    0    0  0.10767576538E+00 -0.19074723938E+00  0.31829064047E-01  0.96376120958E+00  0.93800000000E+00 0. -1.
         22    1    1    2    0    0 -0.10077295480E+00  0.18156645505E+00  0.37017558834E+01  0.37075757830E+01  0.00000000000E+00 0.  1.
</event>
<event>
 5    1  0.3490044E+002  0.1599677E+01  0.7818608E-02  0.3353714E+00
         11   -1    0    0    0    0  0.00000000000E+00  0.00000000000E+00  0.39999999674E+01  0.40000000000E+01  0.51100000000E-03 0.  1.
    9000002   -1    0    0    0    0 -0.00000000000E+00 -0.00000000000E+00  0.00000000000E+00  0.93800000000E+00  0.93800000000E+00 0.  1.
         11    1    1    2    0    0  0.51616367451E-01  0.17345227957E-01  0.72237302909E+00  0.72442263948E+00  0.51100000000E-03 0. -1.
    9000002    1    1    2    0    0 -0.28185659580E+00 -0.94696636400E-01  0.58965331957E-01  0.98576442617E+00  0.93800000000E+00 0.  1.
         22    1    1    2    0    0  0.23024022835E+00  0.77351408443E-01  0.32186616063E+01  0.32278129343E+01  0.00000000000E+00 0.  1.
</event>
<event>
 5    1  0.3490044E+002  0.1547114E+01  0.7818608E-02  0.3412843E+00
         11   -1    0    0    0    0  0.00000000000E+00  0.00000000000E+00  0.39999999674E+01  0.40000000000E+01  0.51100000000E-03 0. -1.
    9000002   -1    0    0    0    0 -0.00000000000E+00 -0.00000000000E+00  0.00000000000E+00  0.93800000000E+00  0.93800000000E+00 0.  1.
         11    1    1    2    0    0 -0.10967344184E-01 -0.27580524220E+00  0.20405477813E+01  0.20591319344E+01  0.51100000000E-03 0. -1.
    9000002    1    1    2    0    0 -0.14321952329E+00  0.26171606757E-01  0.53794744502E-01  0.95075478405E+00  0.93800000000E+00 0.  1.
         22    1    1    2    0    0  0.15418686747E+00  0.24963363544E+00  0.19056574415E+01  0.19281132816E+01  0.00000000000E+00 0. -1.
</event>
<event>
 5    1  0.3490044E+002  0.1599652E+01  0.7818608E-02  0.3353741E+00
         11   -1    0    0    0    0  0.00000000000E+00  0.00000000000E+00  0.39999999674E+01  0.40000000000E+01  0.51100000000E-03 0.  1.
    9000002   -1    0    0    0    0 -0.00000000000E+00 -0.00000000000E+00  0.00000000000E+00  0.93800000000E+00  0.93800000000E+00 0.  1.
         11    1    1    2    0    0  0.16609968390E-01 -0.51264857320E-01  0.75581363286E+00  0.75773246293E+00  0.51100000000E-03 0.  1.
    9000002    1    1    2    0    0 -0.63090115935E-01  0.26201414002E+00  0.48342642138E-01  0.97714522122E+00  0.93800000000E+00 0.  1.
         22    1    1    2    0    0  0.46480147544E-01 -0.21074928270E+00  0.31958436924E+01  0.32031223159E+01  0.00000000000E+00 0.  1.
</event>
<event>
 5    1  0.3490044E+002  0.1598398E+01  0.7818608E-02  0.3355104E+00
         11   -1    0    0    0    0  0.00000000000E+00  0.00000000000E+00  0.39999999674E+01  0.40000000000E+01  0.51100000000E-03 0.  1.
    9000002   -1    0    0    0    0 -0.00000000000E+00 -0.00000000000E+00  0.00000000000E+00  0.93800000000E+00  0.93800000000E+00 0.  1.
         11    1    1    2    0    0 -0.18629374009E-01  0.67449540541E-01  0.80726934540E+00  0.81029658227E+00  0.51100000000E-03 0.  1.
    9000002    1    1    2    0    0 -0.76401669542E-01 -0.30164581817E+00  0.65670855217E-01  0.99044640236E+00  0.93800000000E+00 0.  1.
         22    1    1    2    0    0  0.95031043551E-01  0.23419627763E+00  0.31270597667E+01  0.31372570154E+01  0.00000000000E+00 0.  1.
</event>
<event>
 5    1  0.3490044E+002  0.1599674E+01  0.7818608E-02  0.3353717E+00
         11   -1    0    0    0    0  0.00000000000E+00  0.00000000000E+00  0.39999999674E+01  0.40000000000E+01  0.51100000000E-03 0. -1.
    9000002   -1    0    0    0    0 -0.00000000000E+00 -0.00000000000E+00  0.00000000000E+00  0.93800000000E+00  0.93800000000E+00 0.  1.
         11    1    1    2    0    0 -0.22383892788E+00  0.15781717919E-01  0.17689164310E+01  0.17830924062E+01  0.51100000000E-03 0. -1.
    9000002    1    1    2    0    0  0.48888550548E+00 -0.31789769591E-01  0.16403487047E+00  0.10708739728E+01  0.93800000000E+00 0.  1.
         22    1    1    2    0    0 -0.26504657760E+00  0.16008051672E-01  0.20670486659E+01  0.20840336210E+01  0.00000000000E+00 0. -1.
</event>
<event>
 5    1  0.3490044E+002  0.1594795E+01  0.7818608E-02  0.3359032E+00
         11   -1    0    0    0    0  0.00000000000E+00  0.00000000000E+00  0.39999999674E+01  0.40000000000E+01  0.51100000000E-03 0. -1.
    9000002   -1    0    0    0    0 -0.00000000000E+00 -0.00000000000E+00  0.00000000000E+00  0.93800000000E+00  0.93800000000E+00 0.  1.
         11    1    1    2    0    0  0.75205114573E-01 -0.96425483310E-01  0.58190136900E+00  0.59461176195E+00  0.51100000000E-03 0. -1.
    9000002    1    1    2    0    0 -0.34318484502E+00  0.26896644628E+00  0.13304708577E+00  0.10429114603E+01  0.93800000000E+00 0.  1.
         22    1    1    2    0    0  0.26797973044E+00 -0.17254096297E+00  0.32850515126E+01  0.33004767777E+01  0.00000000000E+00 0. -1.
</event>
<event>
 5    1  0.3490044E+002  0.1599321E+01  0.7818608E-02  0.3354101E+00
         11   -1    0    0    0    0  0.00000000000E+00  0.00000000000E+00  0.39999999674E+01  0.40000000000E+01  0.51100000000E-03 0.  1.
    9000002   -1    0    0    0    0 -0.00000000000E+00 -0.00000000000E+00  0.00000000000E+00  0.93800000000E+00  0.93800000000E+00 0. -1.
         11    1    1    2    0    0  0.38186809472E-01  0.29474881169E-01  0.65001156441E+00  0.65179927587E+00  0.51100000000E-03 0.  1.
    9000002    1    1    2    0    0 -0.23206266514E+00 -0.27926122661E+00  0.88819861270E-01  0.10097390163E+01  0.93800000000E+00 0. -1.
         22    1    1    2    0    0  0.19387585566E+00  0.24978634544E+00  0.32611685417E+01  0.32764617079E+01  0.00000000000E+00 0.  1.
</event>
<event>
 5    1  0.3490044E+002  0.1522124E+01  0.7818608E-02  0.3442481E+00
         11   -1    0    0    0    0  0.00000000000E+00  0.00000000000E+00  0.39999999674E+01  0.40000000000E+01  0.51100000000E-03 0.  1.
    9000002   -1    0    0    0    0 -0.00000000000E+00 -0.00000000000E+00  0.00000000000E+00  0.93800000000E+00  0.93800000000E+00 0.  1.
         11    1    1    2    0    0  0.36522057745E+00  0.29531485955E-01  0.18242097083E+01  0.18606449150E+01  0.51100000000E-03 0.  1.
    9000002    1    1    2    0    0 -0.74964351587E-01 -0.17530398407E+00  0.84401752850E-01  0.96089478962E+00  0.93800000000E+00 0.  1.
         22    1    1    2    0    0 -0.29025622587E+00  0.14577249812E+00  0.20913885062E+01  0.21164602954E+01  0.00000000000E+00 0. -1.
</event>
<event>
 5    1  0.3490044E+002  0.1597413E+01  0.7818608E-02  0.3356175E+00
         11   -1    0    0    0    0  0.00000000000E+00  0.00000000000E+00  0.39999999674E+01  0.40000000000E+01  0.51100000000E-03 0.  1.
    9000002   -1    0    0    0    0 -0.00000000000E+00 -0.00000000000E+00  0.00000000000E+00  0.93800000000E+00  0.93800000000E+00 0. -1.
         11    1    1    2    0    0 -0.21894197208E+00 -0.17767952491E-01  0.14891673874E+01  0.15052810555E+01  0.51100000000E-03 0.  1.
    9000002    1    1    2    0    0  0.43315973053E+00 -0.61423377538E-02  0.12908282166E+00  0.10412355427E+01  0.93800000000E+00 0. -1.
         22    1    1    2    0    0 -0.21421775845E+00  0.23910290244E-01  0.23817497583E+01  0.23914834018E+01  0.00000000000E+00 0.  1.
</event>
<event>
 5    1  0.3490044E+002  0.1590330E+01  0.7818608E-02  0.3363926E+00
         11   -1    0    0    0    0  0.00000000000E+00  0.00000000000E+00  0.39999999674E+01  0.40000000000E+01  0.51100000000E-03 0. -1.
    9000002   -1    0    0    0    0 -0.00000000000E+00 -0.00000000000E+00  0.00000000000E+00  0.93800000000E+00  0.93800000000E+00 0.  1.
         11    1    1    2    0    0 -0.62103311304E-01  0.63846616699E-01  0.15903896863E+01  0.15928819250E+01  0.51100000000E-03 0. -1.
    9000002    1    1    2    0    0 -0.12931505279E+00 -0.16895749022E+00  0.37063020959E-01  0.96254178294E+00  0.93800000000E+00 0.  1.
         22    1    1    2    0    0  0.19141836410E+00  0.10511087352E+00  0.23725472601E+01  0.23825762920E+01  0.00000000000E+00 0. -1.
</event>
<event>
 5    1  0.3490044E+002  0.1599199E+01  0.7818608E-02  0.3354233E+00
         11   -1    0    0    0    0  0.00000000000E+00  0.00000000000E+00  0.39999999674E+01  0.40000000000E+01  0.51100000000E-03 0.  1.
    9000002   -1    0    0    0    0 -0.00000000000E+00 -0.00000000000E+00  0.00000000000E+00  0.93800000000E+00  0.93800000000E+00 0. -1.
         11    1    1    2    0    0 -0.12331531915E-01 -0.47620812627E-01  0.54116165227E+00  0.54339304696E+00  0.51100000000E-03 0.  1.
    9000002    1    1    2    0    0 -0.23587025899E-01  0.27980140961E+00  0.52878463154E-01  0.98055357247E+00  0.93800000000E+00 0. -1.
         22    1    1    2    0    0  0.35918557814E-01 -0.23218059699E+00  0.34059598519E+01  0.34140533806E+01  0.00000000000E+00 0.  1.
</event>
<event>
 5    1  0.3490044E+002  0.1569879E+01  0.7818608E-02  0.3386719E+00
         11   -1    0    0    0    0  0.00000000000E+00  0.00000000000E+00  0.39999999674E+01  0.40000000000E+01  0.51100000000E-03 0.  1.
    9000002   -1    0    0    0    0 -0.00000000000E+00 -0.00000000000E+00  0.00000000000E+00  0.93800000000E+00  0.93800000000E+00 0.  1.
         11    1    1    2    0    0  0.13453773689E+00 -0.12992155810E+00  0.13975108229E+01  0.14099704873E+01  0.51100000000E-03 0.  1.
    9000002    1    1    2    0    0 -0.29661507823E+00 -0.18765932746E+00  0.10702371235E+00  0.10072212283E+01  0.93800000000E+00 0.  1.
         22    1    1    2    0    0  0.16207734135E+00  0.31758088556E+00  0.24954654321E+01  0.25208082843E+01  0.00000000000E+00 0.  1.
</event>
<event>
 5    1  0.3490044E+002  0.1556878E+01  0.7818608E-02  0.3401539E+00
         11   -1    0    0    0    0  0.00000000000E+00  0.00000000000E+00  0.39999999674E+01  0.40000000000E+01  0.51100000000E-03 0.  1.
    9000002   -1    0    0    0    0 -0.00000000000E+00 -0.00000000000E+00  0.00000000000E+00  0.93800000000E+00  0.93800000000E+00 0. -1.
         11    1    1    2    0    0  0.26561856284E+00 -0.61643263902E-01  0.16164223853E+01  0.16392604130E+01  0.51100000000E-03 0.  1.
    9000002    1    1    2    0    0 -0.20401127084E+00 -0.25063806869E+00  0.10456450801E+00  0.99760602266E+00  0.93800000000E+00 0. -1.
         22    1    1    2    0    0 -0.61607291996E-01  0.31228133259E+00  0.22790130741E+01  0.23011335643E+01  0.00000000000E+00 0.  1.
</event>
<event>
 5    1  0.3490044E+002  0.1599675E+01  0.7818608E-02  0.3353716E+00
         11   -1    0    0    0    0  0.00000000000E+00  0.00000000000E+00  0.39999999674E+01  0.40000000000E+01  0.51100000000E-03 0.  1.
    9000002   -1    0    0    0    0 -0.00000000000E+00 -0.00000000000E+00  0.00000000000E+00  0.93800000000E+00  0.93800000000E+00 0. -1.
         11    1    1    2    0    0 -0.21994083778E+00 -0.24833021227E+00  0.20806169715E+01  0.21068956096E+01  0.51100000000E-03 0.  1.
    9000002    1    1    2    0    0  0.39819500628E+00  0.44512288414E+00  0.24872031841E+00  0.11394733177E+01  0.93800000000E+00 0. -1.
         22    1    1    2    0    0 -0.17825416850E+00 -0.19679267187E+00  0.16706626775E+01  0.16916310727E+01  0.00000000000E+00 0.  1.
</event>
<event>
 5    1  0.3490044E+002  0.1599582E+01  0.7818608E-02  0.3353817E+00
         11   -1    0    0    0    0  0.00000000000E+00  0.00000000000E+00  0.39999999674E+01  0.40000000000E+01  0.51100000000E-03 0.  1.
    9000002   -1    0    0    0    0 -0.00000000000E+00 -0.00000000000E+00  0.00000000000E+00  0.93800000000E+00  0.93800000000E+00 0.  1.
         11    1    1    2    0    0 -0.10622279145E-01 -0.16306758190E-01  0.35211037028E+00  0.35264814923E+00  0.51100000000E-03 0.  1.
    9000002    1    1    2    0    0  0.19257216936E+00  0.19691235582E+00  0.50568736424E-01  0.97890740798E+00  0.93800000000E+00 0.  1.
         22    1    1    2    0    0 -0.18194989022E+00 -0.18060559763E+00  0.35973208607E+01  0.36064444428E+01  0.00000000000E+00 0.  1.
</event>
<event>
 5    1  0.3490044E+002  0.1599670E+01  0.7818608E-02  0.3353721E+00
         11   -1    0    0    0    0  0.00000000000E+00  0.00000000000E+00  0.39999999674E+01  0.40000000000E+01  0.51100000000E-03 0. -1.
    9000002   -1    0    0    0    0 -0.00000000000E+00 -0.00000000000E+00  0.00000000000E+00  0.93800000000E+00  0.93800000000E+00 0. -1.
         11    1    1    2    0    0 -0.25638792899E-01  0.11927344178E+00  0.14522004432E+01  0.14573159884E+01  0.51100000000E-03 0. -1.
    9000002    1    1    2    0    0  0.77246104397E-01 -0.32410344201E+00  0.74304407552E-01  0.99818592795E+00  0.93800000000E+00 0. -1.
         22    1    1    2    0    0 -0.51607311498E-01  0.20483000023E+00  0.24734951166E+01  0.24824980837E+01  0.00000000000E+00 0.  1.
</event>
<event>
 5    1  0.3490044E+002  0.1599228E+01  0.7818608E-02  0.3354202E+00
         11   -1    0    0    0    0  0.00000000000E+00  0.00000000000E+00  0.39999999674E+01  0.40000000000E+01  0.51100000000E-03 0.  1.
    9000002   -1    0    0    0    0 -0.00000000000E+00 -0.00000000000E+00  0.00000000000E+00  0.93800000000E+00  0.93800000000E+00 0.  1.
         11    1    1    2    0    0 -0.28091246323E-03 -0.83846410834E-02  0.20715528124E+00  0.20732571665E+00  0.51100000000E-03 0.  1.
    9000002    1    1    2    0    0  0.21959144612E+00  0.12624010704E+00  0.42973547706E-01  0.97254701359E+00  0.93800000000E+00 0.  1.
         22    1    1    2    0    0 -0.21931053366E+00 -0.11785546595E+00  0.37498711384E+01  0.37581272698E+01  0.00000000000E+00 0.  1.
</event>
<event>
 5    1  0.3490044E+002  0.1599593E+01  0.7818608E-02  0.3353805E+00
         11   -1    0    0    0    0  0.00000000000E+00  0.00000000000E+00  0.39999999674E+01  0.40000000000E+01  0.51100000000E-03 0. -1.
    9000002   -1    0    0    0    0 -0.00000000000E+00 -0.00000000000E+00  0.00000000000E+00  0.93800000000E+00  0.93800000000E+00 0. -1.
         11    1    1    2    0    0  0.57452397829E+00 -0.86717989947E+00  0.14593074165E+01  0.17921096999E+01  0.51100000000E-03 0. -1.
    9000002    1    1    2    0    0 -0.72074416674E+00  0.10764540207E+01  0.21669926601E+01  0.26933114565E+01  0.93800000000E+00 0. -1.
         22    1    1    2    0    0  0.14622018846E+00 -0.20927412121E+00  0.37369989075E+00  0.45257884359E+00  0.00000000000E+00 0. -1.
</event>
<event>
 5    1  0.3490044E+002  0.1599677E+01  0.7818608E-02  0.3353714E+00
         11   -1    0    0    0    0  0.00000000000E+00  0.00000000000E+00  0.39999999674E+01  0.40000000000E+01  0.51100000000E-03 0. -1.
    9000002   -1    0    0    0    0 -0.00000000000E+00 -0.00000000000E+00  0.00000000000E+00  0.93800000000E+00  0.93800000000E+00 0.  1.
         11    1    1    2    0    0 -0.71081774571E-01 -0.58113859505E-01  0.10964037978E+01  0.11002415137E+01  0.51100000000E-03 0. -1.
    9000002    1    1    2    0    0  0.25392715071E+00  0.20691129433E+00  0.71768508842E-01  0.99613553317E+00  0.93800000000E+00 0.  1.
         22    1    1    2    0    0 -0.18284537614E+00 -0.14879743483E+00  0.28318276607E+01  0.28416229532E+01  0.00000000000E+00 0. -1.
</event>
<event>
 5    1  0.3490044E+002  0.1566028E+01  0.7818608E-02  0.3391081E+00
         11   -1    0    0    0    0  0.00000000000E+00  0.00000000000E+00  0.39999999674E+01  0.40000000000E+01  0.51100000000E-03 0.  1.
    9000002   -1    0    0    0    0 -0.00000000000E+00 -0.00000000000E+00  0.00000000000E+00  0.93800000000E+00  0.93800000000E+00 0.  1.
         11    1    1    2    0    0  0.56738642624E-02  0.31693527247E-01  0.10585564808E-01  0.33896721203E-01  0.51100000000E-03 0.  1.
    9000002    1    1    2    0    0  0.18616672589E+00  0.10765773931E+00  0.56442788034E-01  0.96399067785E+00  0.93800000000E+00 0.  1.
         22    1    1    2    0    0 -0.19184059015E+00 -0.13935126656E+00  0.39329716145E+01  0.39401126009E+01  0.00000000000E+00 0.  1.
</event>
<event>
 5    1  0.3490044E+002  0.1599658E+01  0.7818608E-02  0.3353734E+00
         11   -1    0    0    0    0  0.00000000000E+00  0.00000000000E+00  0.39999999674E+01  0.40000000000E+01  0.51100000000E-03 0. -1.
    9000002   -1    0    0    0    0 -0.00000000000E+00 -0.00000000000E+00  0.00000000000E+00  0.93800000000E+00  0.93800000000E+00 0.  1.
         11    1    1    2    0    0  0.20474151476E+00  0.10759077019E+00  0.20613844861E+01  0.20743194360E+01  0.51100000000E-03 0. -1.
    9000002    1    1    2    0    0 -0.38027147311E+00 -0.21085342537E+00  0.12814487181E+00  0.10417920466E+01  0.93800000000E+00 0.  1.
         22    1    1    2    0    0  0.17552995836E+00  0.10326265517E+00  0.18104706094E+01  0.18218885174E+01  0.00000000000E+00 0. -1.
</event>
<event>
 5    1  0.3490044E+002  0.1550201E+01  0.7818608E-02  0.3409253E+00
         11   -1    0    0    0    0  0.00000000000E+00  0.00000000000E+00  0.39999999674E+01  0.40000000000E+01  0.51100000000E-03 0.  1.
    9000002   -1    0    0    0    0 -0.00000000000E+00 -0.00000000000E+00  0.00000000000E+00  0.93800000000E+00  0.93800000000E+00 0.  1.
         11    1    1    2    0    0  0.62841728047E-01  0.41443439169E-01  0.32406150811E+01  0.32414893192E+01  0.51100000000E-03 0.  1.
    9000002    1    1    2    0    0 -0.26079672172E+00  0.11354291152E+00  0.93360722066E-01  0.98461522802E+00  0.93800000000E+00 0.  1.
         22    1    1    2    0    0  0.19795499367E+00 -0.15498635069E+00  0.66602416415E+00  0.71189545276E+00  0.00000000000E+00 0.  1.
</event>
<event>
 5    1  0.3490044E+002  0.1599657E+01  0.7818608E-02  0.3353736E+00
         11   -1    0    0    0    0  0.00000000000E+00  0.00000000000E+00  0.39999999674E+01  0.40000000000E+01  0.51100000000E-03 0.  1.
    9000002   -1    0    0    0    0 -0.00000000000E+00 -0.00000000000E+00  0.00000000000E+00  0.93800000000E+00  0.93800000000E+00 0. -1.
         11    1    1    2    0    0 -0.18550076361E-02 -0.59954985210E-02  0.80436423211E-01  0.80682503406E-01  0.51100000000E-03 0. -1.
    9000002    1    1    2    0    0  0.11028021560E+00  0.22654674344E+00  0.42194312476E-01  0.97216743050E+00  0.93800000000E+00 0. -1.
         22    1    1    2    0    0 -0.10842520797E+00 -0.22055124492E+00  0.38773692317E+01  0.38851500661E+01  0.00000000000E+00 0.  1.
</event>
<event>
 5    1  0.3490044E+002  0.1597348E+01  0.7818608E-02  0.3356247E+00
         11   -1    0    0    0    0  0.00000000000E+00  0.00000000000E+00  0.39999999674E+01  0.40000000000E+01  0.51100000000E-03 0. -1.
    9000002   -1    0    0    0    0 -0.00000000000E+00 -0.00000000000E+00  0.00000000000E+00  0.93800000000E+00  0.93800000000E+00 0. -1.
         11    1    1    2    0    0 -0.15893431486E+00 -0.13805788568E-01  0.10833898732E+01  0.10950728719E+01  0.51100000000E-03 0. -1.
    9000002    1    1    2    0    0  0.42982617338E+00 -0.76977391779E-01  0.13124754842E+00  0.10429506111E+01  0.93800000000E+00 0. -1.
         22    1    1    2    0    0 -0.27089185852E+00  0.90783180347E-01  0.27853625457E+01  0.27999765170E+01  0.00000000000E+00 0. -1.
</event>
<event>
 5    1  0.3490044E+002  0.1599131E+01  0.7818608E-02  0.3354307E+00
         11   -1    0    0    0    0  0.00000000000E+00  0.00000000000E+00  0.39999999674E+01  0.40000000000E+01  0.51100000000E-03 0.  1.
    9000002   -1    0    0    0    0 -0.00000000000E+00 -0.00000000000E+00  0.00000000000E+00  0.93800000000E+00  0.93800000000E+00 0.  1.
         11    1    1    2    0    0  0.15449157971E+00  0.13304246013E+00  0.17410794953E+01  0.17529763303E+01  0.51100000000E-03 0.  1.
    9000002    1    1    2    0    0 -0.40178204540E+00 -0.28817708637E+00  0.16769109584E+00  0.10735171860E+01  0.93800000000E+00 0.  1.
         22    1    1    2    0    0  0.24729046569E+00  0.15513462624E+00  0.20912293762E+01  0.21115064836E+01  0.00000000000E+00 0.  1.
</event>
<event>
 5    1  0.3490044E+002  0.1599663E+01  0.7818608E-02  0.3353729E+00
         11   -1    0    0    0    0  0.00000000000E+00  0.00000000000E+00  0.39999999674E+01  0.40000000000E+01  0.51100000000E-03 0.  1.
    9000002   -1    0    0    0    0 -0.00000000000E+00 -0.00000000000E+00  0.00000000000E+00  0.93800000000E+00  0.93800000000E+00 0. -1.
         11    1    1    2    0    0  0.58580146426E-01 -0.94839944690E-01  0.92936103930E+00  0.93602267663E+00  0.51100000000E-03 0.  1.
    9000002    1    1    2    0    0 -0.23339388384E+00  0.40555842999E+00  0.14912254204E+00  0.10587879286E+01  0.93800000000E+00 0. -1.
         22    1    1    2    0    0  0.17481373741E+00 -0.31071848530E+00  0.29215163860E+01  0.29431893948E+01  0.00000000000E+00 0.  1.
</event>
<event>
 5    1  0.3490044E+002  0.1581057E+01  0.7818608E-02  0.3374183E+00
         11   -1    0    0    0    0  0.00000000000E+00  0.00000000000E+00  0.39999999674E+01  0.40000000000E+01  0.51100000000E-03 0.  1.
    9000002   -1    0    0    0    0 -0.00000000000E+00 -0.00000000000E+00  0.00000000000E+00  0.93800000000E+00  0.93800000000E+00 0.  1.
         11    1    1    2    0    0  0.45290860792E-02 -0.87420520073E-01  0.55986324272E+00  0.56666566123E+00  0.51100000000E-03 0.  1.
    9000002    1    1    2    0    0 -0.67447849441E-01 -0.19068161950E+00  0.41182858418E-01  0.96044194007E+00  0.93800000000E+00 0.  1.
         22    1    1    2    0    0  0.62918763361E-01  0.27810213957E+00  0.33989538662E+01  0.34108923987E+01  0.00000000000E+00 0.  1.
</event>
<event>
 5    1  0.3490044E+002  0.1597165E+01  0.7818608E-02  0.3356447E+00
         11   -1    0    0    0    0  0.00000000000E+00  0.00000000000E+00  0.39999999674E+01  0.40000000000E+01  0.51100000000E-03 0. -1.
    9000002   -1    0    0    0    0 -0.00000000000E+00 -0.00000000000E+00  0.00000000000E+00  0.93800000000E+00  0.93800000000E+00 0. -1.
         11    1    1    2    0    0 -0.14288424136E+00 -0.30896659931E-01  0.20322148510E+01  0.20374660664E+01  0.51100000000E-03 0. -1.
    9000002    1    1    2    0    0  0.36294678327E+00  0.13382454265E+00  0.10284182926E+00  0.10198332303E+01  0.93800000000E+00 0. -1.
         22    1    1    2    0    0 -0.22006254191E+00 -0.10292788272E+00  0.18649432871E+01  0.18807007033E+01  0.00000000000E+00 0.  1.
</event>
<event>
 5    1  0.3490044E+002  0.1599540E+01  0.7818608E-02  0.3353862E+00
         11   -1    0    0    0    0  0.00000000000E+00  0.00000000000E+00  0.39999999674E+01  0.40000000000E+01  0.51100000000E-03 0.  1.
    9000002   -1    0    0    0    0 -0.00000000000E+00 -0.00000000000E+00  0.00000000000E+00  0.93800000000E+00  0.93800000000E+00 0.  1.
         11    1    1    2    0    0  0.11165018725E-01 -0.13866984252E-01  0.33164650383E+00  0.33212439766E+00  0.51100000000E-03 0.  1.
    9000002    1    1    2    0    0 -0.11213983084E+00  0.25552490184E+00  0.51955217334E-01  0.98000594984E+00  0.93800000000E+00 0.  1.
         22    1    1    2    0    0  0.10097481211E+00 -0.24165791759E+00  0.36163982462E+01  0.36258696525E+01  0.00000000000E+00 0.  1.
</event>
<event>
 5    1  0.3490044E+002  0.1599664E+01  0.7818608E-02  0.3353728E+00
         11   -1    0    0    0    0  0.00000000000E+00  0.00000000000E+00  0.39999999674E+01  0.40000000000E+01  0.51100000000E-03 0. -1.
    9000002   -1    0    0    0    0 -0.00000000000E+00 -0.00000000000E+00  0.00000000000E+00  0.93800000000E+00  0.93800000000E+00 0. -1.
         11    1    1    2    0    0 -0.26919199417E-01  0.37641579220E-01  0.58782449941E+00  0.58964348127E+00  0.51100000000E-03 0. -1.
    9000002    1    1    2    0    0  0.19282925305E+00 -0.26723699896E+00  0.72667936462E-01  0.99685674168E+00  0.93800000000E+00 0. -1.
         22    1    1    2    0    0 -0.16591005363E+00  0.22959541974E+00  0.33395075315E+01  0.33514997770E+01  0.00000000000E+00 0. -1.
</event>
<event>
 5    1  0.3490044E+002  0.1598595E+01  0.7818608E-02  0.3354889E+00
         11   -1    0    0    0    0  0.00000000000E+00  0.00000000000E+00  0.39999999674E+01  0.40000000000E+01  0.51100000000E-03 0. -1.
    9000002   -1    0    0    0    0 -0.00000000000E+00 -0.00000000000E+00  0.00000000000E+00  0.93800000000E+00  0.93800000000E+00 0.  1.
         11    1    1    2    0    0 -0.13716822607E-01 -0.34008693906E-01  0.21229017512E+00  0.21543472807E+00  0.51100000000E-03 0. -1.
    9000002    1    1    2    0    0  0.21488005326E+00  0.29583324651E+00  0.90679559267E-01  0.10108202261E+01  0.93800000000E+00 0.  1.
         22    1    1    2    0    0 -0.20116323066E+00 -0.26182455261E+00  0.36970302330E+01  0.37117450458E+01  0.00000000000E+00 0. -1.
</event>
<event>
 5    1  0.3490044E+002  0.1597426E+01  0.7818608E-02  0.3356162E+00
         11   -1    0    0    0    0  0.00000000000E+00  0.00000000000E+00  0.39999999674E+01  0.40000000000E+01  0.51100000000E-03 0. -1.
    9000002   -1    0    0    0    0 -0.00000000000E+00 -0.00000000000E+00  0.00000000000E+00  0.93800000000E+00  0.93800000000E+00 0.  1.
         11    1    1    2    0    0  0.11562894256E+00  0.10193320916E+00  0.13976045621E+01  0.14060793736E+01  0.51100000000E-03 0. -1.
    9000002    1    1    2    0    0 -0.17887971948E+00 -0.33614463873E+00  0.99415617926E-01  0.10172112058E+01  0.93800000000E+00 0.  1.
         22    1    1    2    0    0  0.63250776926E-01  0.23421142958E+00  0.25029797873E+01  0.25147094206E+01  0.00000000000E+00 0.  1.
</event>
<event>
 5    1  0.3490044E+002  0.1571511E+01  0.7818608E-02  0.3384877E+00
         11   -1    0    0    0    0  0.00000000000E+00  0.00000000000E+00  0.39999999674E+01  0.40000000000E+01  0.51100000000E-03 0. -1.
    9000002   -1    0    0    0    0 -0.00000000000E+00 -0.00000000000E+00  0.00000000000E+00  0.93800000000E+00  0.93800000000E+00 0.  1.
         11    1    1    2    0    0 -0.83959477997E-02 -0.80958151064E-01  0.17383880525E+00  0.19195026828E+00  0.51100000000E-03 0. -1.
    9000002    1    1    2    0    0 -0.20645720429E+00 -0.40414879836E-01  0.50811572812E-01  0.96264414798E+00  0.93800000000E+00 0.  1.
         22    1    1    2    0    0  0.21485315209E+00  0.12137303090E+00  0.37753495893E+01  0.37834055837E+01  0.00000000000E+00 0. -1.
</event>
<event>
 5    1  0.3490044E+002  0.1589142E+01  0.7818608E-02  0.3365234E+00
         11   -1    0    0    0    0  0.00000000000E+00  0.00000000000E+00  0.39999999674E+01  0.40000000000E+01  0.51100000000E-03 0.  1.
    9000002   -1    0    0    0    0 -0.00000000000E+00 -0.00000000000E+00  0.00000000000E+00  0.93800000000E+00  0.93800000000E+00 0.  1.
         11    1    1    2    0    0 -0.19424118727E-01 -0.46771427193E-01  0.10775492032E+00  0.11906404480E+00  0.51100000000E-03 0.  1.
    9000002    1    1    2    0    0  0.19008236312E+00  0.27155914692E+00  0.81964621870E-01  0.99821734822E+00  0.93800000000E+00 0.  1.
         22    1    1    2    0    0 -0.17065824439E+00 -0.22478771973E+00  0.38102804252E+01  0.38207186070E+01  0.00000000000E+00 0.  1.
</event>
<event>
 5    1  0.3490044E+002  0.1398388E+01  0.7818608E-02  0.3609460E+00
         11   -1    0    0    0    0  0.00000000000E+00  0.00000000000E+00  0.39999999674E+01  0.40000000000E+01  0.51100000000E-03 0.  1.
    9000002   -1    0    0    0    0 -0.00000000000E+00 -0.00000000000E+00  0.00000000000E+00  0.93800000000E+00  0.93800000000E+00 0. -1.
         11    1    1    2    0    0 -0.95430943107E-01  0.60858552699E+00  0.16782735302E+01  0.17877599704E+01  0.51100000000E-03 0.  1.
    9000002    1    1    2    0    0 -0.13150714602E+00 -0.21034755419E+00  0.21441917685E+00  0.99365980416E+00  0.93800000000E+00 0. -1.
         22    1    1    2    0    0  0.22693808913E+00 -0.39823797281E+00  0.21073072604E+01  0.21565802255E+01  0.00000000000E+00 0. -1.
</event>
<event>
 5    1  0.3490044E+002  0.1599345E+01  0.7818608E-02  0.3354075E+00
         11   -1    0    0    0    0  0.00000000000E+00  0.00000000000E+00  0.39999999674E+01  0.40000000000E+01  0.51100000000E-03 0.  1.
    9000002   -1    0    0    0    0 -0.00000000000E+00 -0.00000000000E+00  0.00000000000E+00  0.93800000000E+00  0.93800000000E+00 0. -1.
         11    1    1    2    0    0 -0.57159004949E-01  0.95419976223E-01  0.13098888276E+01  0.13146030297E+01  0.51100000000E-03 0.  1.
    9000002    1    1    2    0    0  0.10975373213E+00 -0.29110859725E+00  0.64899651316E-01  0.99037672723E+00  0.93800000000E+00 0. -1.
         22    1    1    2    0    0 -0.52594727180E-01  0.19568862102E+00  0.26252114884E+01  0.26330202431E+01  0.00000000000E+00 0. -1.
</event>
<event>
 5    1  0.3490044E+002  0.1598081E+01  0.7818608E-02  0.3355448E+00
         11   -1    0    0    0    0  0.00000000000E+00  0.00000000000E+00  0.39999999674E+01  0.40000000000E+01  0.51100000000E-03 0.  1.
    9000002   -1    0    0    0    0 -0.00000000000E+00 -0.00000000000E+00  0.00000000000E+00  0.93800000000E+00  0.93800000000E+00 0.  1.
         11    1    1    2    0    0 -0.11149833338E+00 -0.15336193043E+00  0.13686491877E+01  0.13817208908E+01  0.51100000000E-03 0.  1.
    9000002    1    1    2    0    0  0.33959242523E+00  0.30479112718E+00  0.14293921513E+00  0.10528514927E+01  0.93800000000E+00 0.  1.
         22    1    1    2    0    0 -0.22809409185E+00 -0.15142919675E+00  0.24884115645E+01  0.25034276164E+01  0.00000000000E+00 0.  1.
</event>
<event>
 5    1  0.3490044E+002  0.1599638E+01  0.7818608E-02  0.3353756E+00
         11   -1    0    0    0    0  0.00000000000E+00  0.00000000000E+00  0.39999999674E+01  0.40000000000E+01  0.51100000000E-03 0.  1.
    9000002   -1    0    0    0    0 -0.00000000000E+00 -0.00000000000E+00  0.00000000000E+00  0.93800000000E+00  0.93800000000E+00 0.  1.
         11    1    1    2    0    0  0.14750251638E+00  0.64889774496E-01  0.15859867155E+01  0.15941523760E+01  0.51100000000E-03 0.  1.
    9000002    1    1    2    0    0 -0.34920413811E+00 -0.17174541486E+00  0.10204143027E+00  0.10206353272E+01  0.93800000000E+00 0.  1.
         22    1    1    2    0    0  0.20170162173E+00  0.10685564037E+00  0.23119718216E+01  0.23232122968E+01  0.00000000000E+00 0. -1.
</event>
<event>
 5    1  0.4608058E+002  0.1587701E+01  0.7818608E-02  0.3366822E+00
         11   -1    0    0    0    0  0.00000000000E+00  0.00000000000E+00  0.39999999674E+01  0.40000000000E+01  0.51100000000E-03 0.  1.
    9000002   -1    0    0    0    0 -0.00000000000E+00 -0.00000000000E+00  0.00000000000E+00  0.93800000000E+00  0.93800000000E+00 0.  1.
         11    1    1    2    0    0 -0.61031311881E-01 -0.57925299705E-01  0.11572629717E+01  0.11603180634E+01  0.51100000000E-03 0.  1.
    9000002    1    1    2    0    0 -0.10171338919E+00 -0.69240214612E-01  0.18820819573E-01  0.94622304142E+00  0.93800000000E+00 0.  1.
         22    1    1    2    0    0  0.16274470107E+00  0.12716551432E+00  0.28239161761E+01  0.28314588952E+01  0.00000000000E+00 0.  1.
</event>
<event>
 5    1  0.3490044E+002  0.1599593E+01  0.7818608E-02  0.3353805E+00
         11   -1    0    0    0    0  0.00000000000E+00  0.00000000000E+00  0.39999999674E+01  0.40000000000E+01  0.51100000000E-03 0.  1.
    9000002   -1    0    0    0    0 -0.00000000000E+00 -0.00000000000E+00  0.00000000000E+00  0.93800000000E+00  0.93800000000E+00 0.  1.
         11    1    1    2    0    0  0.49691321611E-02  0.10618687515E-01  0.13050449494E+00  0.13103103877E+00  0.51100000000E-03 0.  1.
    9000002    1    1    2    0    0 -0.13883170025E+00 -0.20392654889E+00  0.40482818235E-01  0.97074359998E+00  0.93800000000E+00 0.  1.
         22    1    1    2    0    0  0.13386256809E+00  0.19330786138E+00  0.38290126542E+01  0.38362253612E+01  0.00000000000E+00 0.  1.
</event>
<event>
 5    1  0.3490044E+002  0.1594650E+01  0.7818608E-02  0.3359190E+00
         11   -1    0    0    0    0  0.00000000000E+00  0.00000000000E+00  0.39999999674E+01  0.40000000000E+01  0.51100000000E-03 0. -1.
    9000002   -1    0    0    0    0 -0.00000000000E+00 -0.00000000000E+00  0.00000000000E+00  0.93800000000E+00  0.93800000000E+00 0. -1.
         11    1    1    2    0    0  0.11687116863E+00 -0.10831084533E-01  0.60560195164E+00  0.61687127295E+00  0.51100000000E-03 0. -1.
    9000002    1    1    2    0    0 -0.35305042213E+00  0.97242460287E-01  0.94180776806E-01  0.10113430256E+01  0.93800000000E+00 0. -1.
         22    1    1    2    0    0  0.23617925351E+00 -0.86411375753E-01  0.33002172389E+01  0.33097857015E+01  0.00000000000E+00 0. -1.
</event>
<event>
 5    1  0.3490044E+002  0.1599642E+01  0.7818608E-02  0.3353752E+00
         11   -1    0    0    0    0  0.00000000000E+00  0.00000000000E+00  0.39999999674E+01  0.40000000000E+01  0.51100000000E-03 0.  1.
    9000002   -1    0    0    0    0 -0.00000000000E+00 -0.00000000000E+00  0.00000000000E+00  0.93800000000E+00  0.93800000000E+00 0. -1.
         11    1    1    2    0    0  0.10002668026E+00  0.16557932608E-01  0.11603183363E+01  0.11647396296E+01  0.51100000000E-03 0.  1.
    9000002    1    1    2    0    0 -0.33651419497E+00 -0.77793616830E-01  0.79975238193E-01  0.10027630273E+01  0.93800000000E+00 0. -1.
         22    1    1    2    0    0  0.23648751471E+00  0.61235684222E-01  0.27597063928E+01  0.27704973431E+01  0.00000000000E+00 0.  1.
</event>
<event>
 5    1  0.3490044E+002  0.1592970E+01  0.7818608E-02  0.3361029E+00
         11   -1    0    0    0    0  0.00000000000E+00  0.00000000000E+00  0.39999999674E+01  0.40000000000E+01  0.51100000000E-03 0. -1.
    9000002   -1    0    0    0    0 -0.00000000000E+00 -0.00000000000E+00  0.00000000000E+00  0.93800000000E+00  0.93800000000E+00 0. -1.
         11    1    1    2    0    0 -0.20128918331E-01 -0.45997166884E-02  0.84411376613E+00  0.84436641456E+00  0.51100000000E-03 0. -1.
    9000002    1    1    2    0    0  0.14131810413E+00  0.39237788450E+00  0.12325383424E+00  0.10339084672E+01  0.93800000000E+00 0. -1.
         22    1    1    2    0    0 -0.12118918580E+00 -0.38777816781E+00  0.30326323670E+01  0.30597251183E+01  0.00000000000E+00 0. -1.
</event>
<event>
 5    1  0.4023225E+002  0.1599217E+01  0.7818608E-02  0.3354214E+00
         11   -1    0    0    0    0  0.00000000000E+00  0.00000000000E+00  0.39999999674E+01  0.40000000000E+01  0.51100000000E-03 0.  1.
    9000002   -1    0    0    0    0 -0.00000000000E+00 -0.00000000000E+00  0.00000000000E+00  0.93800000000E+00  0.93800000000E+00 0. -1.
         11    1    1    2    0    0  0.44579569050E-02 -0.15370397766E-02  0.23873893504E+00  0.23878604670E+00  0.51100000000E-03 0.  1.
    9000002    1    1    2    0    0  0.34133017408E-01  0.19853389529E+00  0.27212641555E-01  0.95977356617E+00  0.93800000000E+00 0. -1.
         22    1    1    2    0    0 -0.38590974313E-01 -0.19699685551E+00  0.37340483908E+01  0.37394403871E+01  0.00000000000E+00 0.  1.
</event>
<event>
 5    1  0.3490044E+002  0.1599675E+01  0.7818608E-02  0.3353716E+00
         11   -1    0    0    0    0  0.00000000000E+00  0.00000000000E+00  0.39999999674E+01  0.40000000000E+01  0.51100000000E-03 0. -1.
    9000002   -1    0    0    0    0 -0.00000000000E+00 -0.00000000000E+00  0.00000000000E+00  0.93800000000E+00  0.93800000000E+00 0.  1.
         11    1    1    2    0    0  0.47854147612E+00  0.22608826270E+00  0.16877590812E+01  0.17687986952E+01  0.51100000000E-03 0. -1.
    9000002    1    1    2    0    0 -0.90346705316E+00 -0.43006191118E+00  0.80573039751E+00  0.15906764087E+01  0.93800000000E+00 0.  1.
         22    1    1    2    0    0  0.42492557704E+00  0.20397364847E+00  0.15065104887E+01  0.15785248962E+01  0.00000000000E+00 0. -1.
</event>
<event>
 5    1  0.3490044E+002  0.1599654E+01  0.7818608E-02  0.3353739E+00
         11   -1    0    0    0    0  0.00000000000E+00  0.00000000000E+00  0.39999999674E+01  0.40000000000E+01  0.51100000000E-03 0.  1.
    9000002   -1    0    0    0    0 -0.00000000000E+00 -0.00000000000E+00  0.00000000000E+00  0.93800000000E+00  0.93800000000E+00 0.  1.
         11    1    1    2    0    0 -0.79776992158E-01  0.27820161478E-01  0.10246058354E+01  0.10280835126E+01  0.51100000000E-03 0.  1.
    9000002    1    1    2    0    0  0.29446914800E+00 -0.91551850382E-01  0.63506547975E-01  0.98942958419E+00  0.93800000000E+00 0.  1.
         22    1    1    2    0    0 -0.21469215584E+00  0.63731688904E-01  0.29118875840E+01  0.29204869032E+01  0.00000000000E+00 0.  1.
</event>
<event>
 5    1  0.3490044E+002  0.1599619E+01  0.7818608E-02  0.3353777E+00
         11   -1    0    0    0    0  0.00000000000E+00  0.00000000000E+00  0.39999999674E+01  0.40000000000E+01  0.51100000000E-03 0.  1.
    9000002   -1    0    0    0    0 -0.00000000000E+00 -0.00000000000E+00  0.00000000000E+00  0.93800000000E+00  0.93800000000E+00 0. -1.
         11    1    1    2    0    0  0.40534482069E+00  0.23031190750E+00  0.22451978528E+01  0.22930899803E+01  0.51100000000E-03 0.  1.
    9000002    1    1    2    0    0 -0.66151558263E+00 -0.36602792347E+00  0.41518666123E+00  0.12742853960E+01  0.93800000000E+00 0. -1.
         22    1    1    2    0    0  0.25617076194E+00  0.13571601598E+00  0.13396154534E+01  0.13706246237E+01  0.00000000000E+00 0.  1.
</event>
<event>
 5    1  0.3490044E+002  0.1599671E+01  0.7818608E-02  0.3353721E+00
         11   -1    0    0    0    0  0.00000000000E+00  0.00000000000E+00  0.39999999674E+01  0.40000000000E+01  0.51100000000E-03 0.  1.
    9000002   -1    0    0    0    0 -0.00000000000E+00 -0.00000000000E+00  0.00000000000E+00  0.93800000000E+00  0.93800000000E+00 0. -1.
         11    1    1    2    0    0  0.24432828158E+00  0.29363950173E+00  0.20442871390E+01  0.20796707995E+01  0.51100000000E-03 0.  1.
    9000002    1    1    2    0    0 -0.44166551220E+00 -0.52253377787E+00  0.33315835704E+00  0.12078693905E+01  0.93800000000E+00 0. -1.
         22    1    1    2    0    0  0.19733723063E+00  0.22889427614E+00  0.16225544713E+01  0.16504598100E+01  0.00000000000E+00 0.  1.
</event>
<event>
 5    1  0.3490044E+002  0.1599473E+01  0.7818608E-02  0.3353936E+00
         11   -1    0    0    0    0  0.00000000000E+00  0.00000000000E+00  0.39999999674E+01  0.40000000000E+01  0.51100000000E-03 0.  1.
    9000002   -1    0    0    0    0 -0.00000000000E+00 -0.00000000000E+00  0.00000000000E+00  0.93800000000E+00  0.93800000000E+00 0.  1.
         11    1    1    2    0    0  0.33251290051E+00 -0.19373679123E+00  0.18956101838E+01  0.19342794533E+01  0.51100000000E-03 0.  1.
    9000002    1    1    2    0    0 -0.65072841585E+00  0.34128745391E+00  0.38988854502E+00  0.12537071727E+01  0.93800000000E+00 0.  1.
         22    1    1    2    0    0  0.31821551534E+00 -0.14755066268E+00  0.17145012385E+01  0.17500133740E+01  0.00000000000E+00 0. -1.
</event>
<event>
 5    1  0.3490044E+002  0.1599104E+01  0.7818608E-02  0.3354336E+00
         11   -1    0    0    0    0  0.00000000000E+00  0.00000000000E+00  0.39999999674E+01  0.40000000000E+01  0.51100000000E-03 0.  1.
    9000002   -1    0    0    0    0 -0.00000000000E+00 -0.00000000000E+00  0.00000000000E+00  0.93800000000E+00  0.93800000000E+00 0.  1.
         11    1    1    2    0    0 -0.66868779540E-02  0.10584696203E-01  0.11958484378E+00  0.12023953639E+00  0.51100000000E-03 0.  1.
    9000002    1    1    2    0    0  0.26478470510E+00 -0.26913999438E-01  0.47556384239E-01  0.97618692529E+00  0.93800000000E+00 0.  1.
         22    1    1    2    0    0 -0.25809782715E+00  0.16329303236E-01  0.38328587393E+01  0.38415735383E+01  0.00000000000E+00 0.  1.
</event>
<event>
 5    1  0.3490044E+002  0.1599631E+01  0.7818608E-02  0.3353764E+00
         11   -1    0    0    0    0  0.00000000000E+00  0.00000000000E+00  0.39999999674E+01  0.40000000000E+01  0.51100000000E-03 0.  1.
    9000002   -1    0    0    0    0 -0.00000000000E+00 -0.00000000000E+00  0.00000000000E+00  0.93800000000E+00  0.93800000000E+00 0. -1.
         11    1    1    2    0    0  0.47660876212E-01  0.86318543340E-01  0.12586480873E+01  0.12625045421E+01  0.51100000000E-03 0.  1.
    9000002    1    1    2    0    0 -0.12647760036E+00 -0.27754338783E+00  0.62124741335E-01  0.98829671608E+00  0.93800000000E+00 0. -1.
         22    1    1    2    0    0  0.78816724151E-01  0.19122484449E+00  0.26792271387E+01  0.26871987418E+01  0.00000000000E+00 0.  1.
</event>
<event>
 5    1  0.3490044E+002  0.1599200E+01  0.7818608E-02  0.3354232E+00
         11   -1    0    0    0    0  0.00000000000E+00  0.00000000000E+00  0.39999999674E+01  0.40000000000E+01  0.51100000000E-03 0. -1.
    9000002   -1    0    0    0    0 -0.00000000000E+00 -0.00000000000E+00  0.00000000000E+00  0.93800000000E+00  0.93800000000E+00 0. -1.
         11    1    1    2    0    0 -0.36971458217E-01 -0.31375283361E-01  0.46105231254E+00  0.46359550596E+00  0.51100000000E-03 0. -1.
    9000002    1    1    2    0    0  0.17105381261E+00  0.26375093897E+00  0.66393277017E-01  0.99150190713E+00  0.93800000000E+00 0. -1.
         22    1    1    2    0    0 -0.13408235439E+00 -0.23237565560E+00  0.34725543778E+01  0.34829025869E+01  0.00000000000E+00 0. -1.
</event>
<event>
 5    1  0.3490044E+002  0.1592221E+01  0.7818608E-02  0.3361850E+00
         11   -1    0    0    0    0  0.00000000000E+00  0.00000000000E+00  0.39999999674E+01  0.40000000000E+01  0.51100000000E-03 0.  1.
    9000002   -1    0    0    0    0 -0.00000000000E+00 -0.00000000000E+00  0.00000000000E+00  0.93800000000E+00  0.93800000000E+00 0.  1.
         11    1    1    2    0    0 -0.66105225854E-01  0.21670297983E+00  0.25455411277E+01  0.25556036423E+01  0.51100000000E-03 0.  1.
    9000002    1    1    2    0    0 -0.32351471485E-01 -0.40191329232E+00  0.11595313704E+00  0.10275553719E+01  0.93800000000E+00 0.  1.
         22    1    1    2    0    0  0.98456697339E-01  0.18521031249E+00  0.13385057026E+01  0.13548409859E+01  0.00000000000E+00 0.  1.
</event>
<event>
 5    1  0.3490044E+002  0.1480255E+01  0.7818608E-02  0.3494550E+00
         11   -1    0    0    0    0  0.00000000000E+00  0.00000000000E+00  0.39999999674E+01  0.40000000000E+01  0.51100000000E-03 0.  1.
    9000002   -1    0    0    0    0 -0.00000000000E+00 -0.00000000000E+00  0.00000000000E+00  0.93800000000E+00  0.93800000000E+00 0.  1.
         11    1    1    2    0    0 -0.56948693651E-01 -0.30976393690E+00  0.53917269057E+00  0.62442317517E+00  0.51100000000E-03 0.  1.
    9000002    1    1    2    0    0  0.15871653189E+00  0.10945077423E+00  0.11988023058E+00  0.96508324986E+00  0.93800000000E+00 0.  1.
         22    1    1    2    0    0 -0.10176783824E+00  0.20031316267E+00  0.33409470462E+01  0.33484935750E+01  0.00000000000E+00 0.  1.
</event>
<event>
 5    1  0.3490044E+002  0.1599538E+01  0.7818608E-02  0.3353865E+00
         11   -1    0    0    0    0  0.00000000000E+00  0.00000000000E+00  0.39999999674E+01  0.40000000000E+01  0.51100000000E-03 0.  1.
    9000002   -1    0    0    0    0 -0.00000000000E+00 -0.00000000000E+00  0.00000000000E+00  0.93800000000E+00  0.93800000000E+00 0. -1.
         11    1    1    2    0    0 -0.83462390388E-02 -0.38383459855E-01  0.43467181250E+00  0.43644334730E+00  0.51100000000E-03 0.  1.
    9000002    1    1    2    0    0  0.13201474527E+00  0.28983082743E+00  0.67895597016E-01  0.99291672037E+00  0.93800000000E+00 0. -1.
         22    1    1    2    0    0 -0.12366850623E+00 -0.25144736757E+00  0.34974325578E+01  0.35086399323E+01  0.00000000000E+00 0.  1.
</event>
<event>
 5    1  0.3490044E+002  0.1599620E+01  0.7818608E-02  0.3353776E+00
         11   -1    0    0    0    0  0.00000000000E+00  0.00000000000E+00  0.39999999674E+01  0.40000000000E+01  0.51100000000E-03 0.  1.
    9000002   -1    0    0    0    0 -0.00000000000E+00 -0.00000000000E+00  0.00000000000E+00  0.93800000000E+00  0.93800000000E+00 0.  1.
         11    1    1    2    0    0 -0.31249860841E-01 -0.24543461682E-01  0.36523492330E+00  0.36739045392E+00  0.51100000000E-03 0.  1.
    9000002    1    1    2    0    0  0.30074472611E+00  0.21673210557E+00  0.92406089619E-01  0.10128193725E+01  0.93800000000E+00 0.  1.
         22    1    1    2    0    0 -0.26949486527E+00 -0.19218864389E+00  0.35423589544E+01  0.35577901736E+01  0.00000000000E+00 0.  1.
</event>
<event>
 5    1  0.3490044E+002  0.1599676E+01  0.7818608E-02  0.3353715E+00
         11   -1    0    0    0    0  0.00000000000E+00  0.00000000000E+00  0.39999999674E+01  0.40000000000E+01  0.51100000000E-03 0.  1.
    9000002   -1    0    0    0    0 -0.00000000000E+00 -0.00000000000E+00  0.00000000000E+00  0.93800000000E+00  0.93800000000E+00 0. -1.
         11    1    1    2    0    0  0.31130289945E-01  0.17128235742E-01  0.57723486858E+00  0.57832761134E+00  0.51100000000E-03 0.  1.
    9000002    1    1    2    0    0 -0.20950886637E+00 -0.12110903032E+00  0.38879104718E-01  0.96949313927E+00  0.93800000000E+00 0. -1.
         22    1    1    2    0    0  0.17837857643E+00  0.10398079458E+00  0.33838859941E+01  0.33901792494E+01  0.00000000000E+00 0.  1.
</event>
<event>
 5    1  0.3490044E+002  0.1594476E+01  0.7818608E-02  0.3359381E+00
         11   -1    0    0    0    0  0.00000000000E+00  0.00000000000E+00  0.39999999674E+01  0.40000000000E+01  0.51100000000E-03 0. -1.
    9000002   -1    0    0    0    0 -0.00000000000E+00 -0.00000000000E+00  0.00000000000E+00  0.93800000000E+00  0.93800000000E+00 0.  1.
         11    1    1    2    0    0  0.93568660232E-02 -0.88778351333E-01  0.21821874812E+01  0.21840127313E+01  0.51100000000E-03 0. -1.
    9000002    1    1    2    0    0  0.80929210506E-01  0.28190863796E+00  0.61418728571E-01  0.98470212627E+00  0.93800000000E+00 0.  1.
         22    1    1    2    0    0 -0.90286076530E-01 -0.19313028663E+00  0.17563937576E+01  0.17692851424E+01  0.00000000000E+00 0. -1.
</event>
<event>
 5    1  0.3490044E+002  0.1478268E+01  0.7818608E-02  0.3497101E+00
         11   -1    0    0    0    0  0.00000000000E+00  0.00000000000E+00  0.39999999674E+01  0.40000000000E+01  0.51100000000E-03 0. -1.
    9000002   -1    0    0    0    0 -0.00000000000E+00 -0.00000000000E+00  0.00000000000E+00  0.93800000000E+00  0.93800000000E+00 0.  1.
         11    1    1    2    0    0  0.86005790701E-01  0.30291203578E+00  0.58882674197E+00  0.66773489547E+00  0.51100000000E-03 0. -1.
    9000002    1    1    2    0    0 -0.69502949416E-01 -0.34188776184E-01  0.98123006986E-01  0.94629364200E+00  0.93800000000E+00 0.  1.
         22    1    1    2    0    0 -0.16502841285E-01 -0.26872325959E+00  0.33130502184E+01  0.33239714625E+01  0.00000000000E+00 0. -1.
</event>
<event>
 5    1  0.3490044E+002  0.1599677E+01  0.7818608E-02  0.3353715E+00
         11   -1    0    0    0    0  0.00000000000E+00  0.00000000000E+00  0.39999999674E+01  0.40000000000E+01  0.51100000000E-03 0. -1.
    9000002   -1    0    0    0    0 -0.00000000000E+00 -0.00000000000E+00  0.00000000000E+00  0.93800000000E+00  0.93800000000E+00 0. -1.
         11    1    1    2    0    0  0.53617217258E-01  0.23087427455E-01  0.72742238814E+00  0.72976121244E+00  0.51100000000E-03 0. -1.
    9000002    1    1    2    0    0 -0.29280271474E+00 -0.12388148181E+00  0.67548425906E-01  0.99271689879E+00  0.93800000000E+00 0. -1.
         22    1    1    2    0    0  0.23918549748E+00  0.10079405435E+00  0.32050291533E+01  0.32155218888E+01  0.00000000000E+00 0. -1.
</event>
<event>
 5    1  0.3490044E+002  0.1599675E+01  0.7818608E-02  0.3353717E+00
         11   -1    0    0    0    0  0.00000000000E+00  0.00000000000E+00  0.39999999674E+01  0.40000000000E+01  0.51100000000E-03 0. -1.
    9000002   -1    0    0    0    0 -0.00000000000E+00 -0.00000000000E+00  0.00000000000E+00  0.93800000000E+00  0.93800000000E+00 0.  1.
         11    1    1    2    0    0 -0.23629369826E+00 -0.10220783062E+00  0.20581602446E+01  0.20741998472E+01  0.51100000000E-03 0. -1.
    9000002    1    1    2    0    0  0.44126451189E+00  0.18731589749E+00  0.15678448174E+00  0.10650009336E+01  0.93800000000E+00 0.  1.
         22    1    1    2    0    0 -0.20497081363E+00 -0.85108066875E-01  0.17850552410E+01  0.17987992192E+01  0.00000000000E+00 0.  1.
</event>
<event>
 5    1  0.3490044E+002  0.1599675E+01  0.7818608E-02  0.3353716E+00
         11   -1    0    0    0    0  0.00000000000E+00  0.00000000000E+00  0.39999999674E+01  0.40000000000E+01  0.51100000000E-03 0. -1.
    9000002   -1    0    0    0    0 -0.00000000000E+00 -0.00000000000E+00  0.00000000000E+00  0.93800000000E+00  0.93800000000E+00 0.  1.
         11    1    1    2    0    0 -0.67710773851E-02  0.17359530446E-01  0.34161105603E+00  0.34211924165E+00  0.51100000000E-03 0.  1.
    9000002    1    1    2    0    0  0.85196778231E-01 -0.20910959383E+00  0.33811061109E-01  0.96538722858E+00  0.93800000000E+00 0.  1.
         22    1    1    2    0    0 -0.78425700846E-01  0.19175006339E+00  0.36245778502E+01  0.36304935298E+01  0.00000000000E+00 0. -1.
</event>
<event>
 5    1  0.3490044E+002  0.1596495E+01  0.7818608E-02  0.3357176E+00
         11   -1    0    0    0    0  0.00000000000E+00  0.00000000000E+00  0.39999999674E+01  0.40000000000E+01  0.51100000000E-03 0. -1.
    9000002   -1    0    0    0    0 -0.00000000000E+00 -0.00000000000E+00  0.00000000000E+00  0.93800000000E+00  0.93800000000E+00 0.  1.
         11    1    1    2    0    0  0.12318539161E-01  0.79846941639E-02  0.67351643793E+00  0.67367659529E+00  0.51100000000E-03 0. -1.
    9000002    1    1    2    0    0  0.41322259816E-01  0.23063677939E+00  0.38847084916E-01  0.96760216472E+00  0.93800000000E+00 0.  1.
         22    1    1    2    0    0 -0.53640798978E-01 -0.23862147356E+00  0.32876364445E+01  0.32967212400E+01  0.00000000000E+00 0. -1.
</event>
<event>
 5    1  0.3490044E+002  0.1599663E+01  0.7818608E-02  0.3353729E+00
         11   -1    0    0    0    0  0.00000000000E+00  0.00000000000E+00  0.39999999674E+01  0.40000000000E+01  0.51100000000E-03 0.  1.
    9000002   -1    0    0    0    0 -0.00000000000E+00 -0.00000000000E+00  0.00000000000E+00  0.93800000000E+00  0.93800000000E+00 0. -1.
         11    1    1    2    0    0 -0.18105006366E-01  0.36673807652E-01  0.39399259479E+00  0.39611006715E+00  0.51100000000E-03 0.  1.
    9000002    1    1    2    0    0  0.19478543834E+00 -0.38106190158E+00  0.12401194879E+00  0.10384471596E+01  0.93800000000E+00 0. -1.
         22    1    1    2    0    0 -0.17668043197E+00  0.34438809393E+00  0.34819954238E+01  0.35034427733E+01  0.00000000000E+00 0.  1.
</event>
<event>
 5    1  0.3490044E+002  0.1599676E+01  0.7818608E-02  0.3353716E+00
         11   -1    0    0    0    0  0.00000000000E+00  0.00000000000E+00  0.39999999674E+01  0.40000000000E+01  0.51100000000E-03 0. -1.
    9000002   -1    0    0    0    0 -0.00000000000E+00 -0.00000000000E+00  0.00000000000E+00  0.93800000000E+00  0.93800000000E+00 0. -1.
         11    1    1    2    0    0 -0.53857399433E-01  0.35556565755E-01  0.81769491906E+00  0.82023785003E+00  0.51100000000E-03 0. -1.
    9000002    1    1    2    0    0  0.26324024688E+00 -0.16741393254E+00  0.65000324696E-01  0.99065225715E+00  0.93800000000E+00 0. -1.
         22    1    1    2    0    0 -0.20938284745E+00  0.13185736678E+00  0.31173047236E+01  0.31271098928E+01  0.00000000000E+00 0. -1.
</event>
<event>
 5    1  0.3490044E+002  0.1599364E+01  0.7818608E-02  0.3354054E+00
         11   -1    0    0    0    0  0.00000000000E+00  0.00000000000E+00  0.39999999674E+01  0.40000000000E+01  0.51100000000E-03 0.  1.
    9000002   -1    0    0    0    0 -0.00000000000E+00 -0.00000000000E+00  0.00000000000E+00  0.93800000000E+00  0.93800000000E+00 0.  1.
         11    1    1    2    0    0 -0.11637580487E+00 -0.27926484950E+00  0.19451975142E+01  0.19685847237E+01  0.51100000000E-03 0.  1.
    9000002    1    1    2    0    0  0.19940001775E+00  0.57055035687E+00  0.25541454918E+00  0.11447133566E+01  0.93800000000E+00 0.  1.
         22    1    1    2    0    0 -0.83024212882E-01 -0.29128550737E+00  0.17993879040E+01  0.18247019197E+01  0.00000000000E+00 0.  1.
</event>
<event>
 5    1  0.3490044E+002  0.1598627E+01  0.7818608E-02  0.3354855E+00
         11   -1    0    0    0    0  0.00000000000E+00  0.00000000000E+00  0.39999999674E+01  0.40000000000E+01  0.51100000000E-03 0.  1.
    9000002   -1    0    0    0    0 -0.00000000000E+00 -0.00000000000E+00  0.00000000000E+00  0.93800000000E+00  0.93800000000E+00 0. -1.
         11    1    1    2    0    0 -0.16429652805E+00  0.26104527091E+00  0.17866093762E+01  0.18130392458E+01  0.51100000000E-03 0.  1.
    9000002    1    1    2    0    0  0.30623228794E+00 -0.47909247623E+00  0.22512743924E+00  0.11197473728E+01  0.93800000000E+00 0. -1.
         22    1    1    2    0    0 -0.14193575989E+00  0.21804720532E+00  0.19882631519E+01  0.20052133814E+01  0.00000000000E+00 0.  1.
</event>
<event>
 5    1  0.3490044E+002  0.1599676E+01  0.7818608E-02  0.3353715E+00
         11   -1    0    0    0    0  0.00000000000E+00  0.00000000000E+00  0.39999999674E+01  0.40000000000E+01  0.51100000000E-03 0. -1.
    9000002   -1    0    0    0    0 -0.00000000000E+00 -0.00000000000E+00  0.00000000000E+00  0.93800000000E+00  0.93800000000E+00 0. -1.
         11    1    1    2    0    0 -0.54363527407E-01 -0.23503201776E-01  0.71870749196E+00  0.72114389252E+00  0.51100000000E-03 0. -1.
    9000002    1    1    2    0    0  0.29742257624E+00  0.13285124607E+00  0.70965516769E-01  0.99548467945E+00  0.93800000000E+00 0. -1.
         22    1    1    2    0    0 -0.24305904884E+00 -0.10934804429E+00  0.32103269586E+01  0.32213714280E+01  0.00000000000E+00 0. -1.
</event>
<event>
 5    1  0.3490044E+002  0.1597576E+01  0.7818608E-02  0.3355999E+00
         11   -1    0    0    0    0  0.00000000000E+00  0.00000000000E+00  0.39999999674E+01  0.40000000000E+01  0.51100000000E-03 0.  1.
    9000002   -1    0    0    0    0 -0.00000000000E+00 -0.00000000000E+00  0.00000000000E+00  0.93800000000E+00  0.93800000000E+00 0. -1.
         11    1    1    2    0    0 -0.84831195697E-02  0.13573255383E-01  0.94213979056E-01  0.95565326086E-01  0.51100000000E-03 0.  1.
    9000002    1    1    2    0    0  0.25545533497E+00  0.13101017957E+00  0.56555160256E-01  0.98258006364E+00  0.93800000000E+00 0. -1.
         22    1    1    2    0    0 -0.24697221540E+00 -0.14458343496E+00  0.38492308280E+01  0.38598546103E+01  0.00000000000E+00 0.  1.
</event>
<event>
 5    1  0.3490044E+002  0.1588487E+01  0.7818608E-02  0.3365954E+00
         11   -1    0    0    0    0  0.00000000000E+00  0.00000000000E+00  0.39999999674E+01  0.40000000000E+01  0.51100000000E-03 0.  1.
    9000002   -1    0    0    0    0 -0.00000000000E+00 -0.00000000000E+00  0.00000000000E+00  0.93800000000E+00  0.93800000000E+00 0.  1.
         11    1    1    2    0    0 -0.23955758614E-01  0.25373937364E-01  0.89293789876E-01  0.95871565646E-01  0.51100000000E-03 0.  1.
    9000002    1    1    2    0    0  0.10763990055E-01  0.20824331487E+00  0.37258971095E-01  0.96162018105E+00  0.93800000000E+00 0.  1.
         22    1    1    2    0    0  0.13191768559E-01 -0.23361725223E+00  0.38734472064E+01  0.38805082533E+01  0.00000000000E+00 0.  1.
</event>
<event>
 5    1  0.3490044E+002  0.1583537E+01  0.7818608E-02  0.3371428E+00
         11   -1    0    0    0    0  0.00000000000E+00  0.00000000000E+00  0.39999999674E+01  0.40000000000E+01  0.51100000000E-03 0. -1.
    9000002   -1    0    0    0    0 -0.00000000000E+00 -0.00000000000E+00  0.00000000000E+00  0.93800000000E+00  0.93800000000E+00 0. -1.
         11    1    1    2    0    0 -0.12802741652E-01  0.26250486722E-01  0.36135561473E-01  0.46465451369E-01  0.51100000000E-03 0. -1.
    9000002    1    1    2    0    0 -0.21933140638E+00  0.85385656241E-01  0.49120174198E-01  0.96832523856E+00  0.93800000000E+00 0. -1.
         22    1    1    2    0    0  0.23213414803E+00 -0.11163614296E+00  0.39147442317E+01  0.39232093101E+01  0.00000000000E+00 0. -1.
</event>
<event>
 5    1  0.3490044E+002  0.1540167E+01  0.7818608E-02  0.3420979E+00
         11   -1    0    0    0    0  0.00000000000E+00  0.00000000000E+00  0.39999999674E+01  0.40000000000E+01  0.51100000000E-03 0.  1.
    9000002   -1    0    0    0    0 -0.00000000000E+00 -0.00000000000E+00  0.00000000000E+00  0.93800000000E+00  0.93800000000E+00 0. -1.
         11    1    1    2    0    0 -0.62048456493E-01 -0.50700424129E-01  0.61657713480E-01  0.10110627435E+00  0.51100000000E-03 0.  1.
    9000002    1    1    2    0    0 -0.25443242232E-01 -0.21668861227E+00  0.77869159478E-01  0.96618265316E+00  0.93800000000E+00 0. -1.
         22    1    1    2    0    0  0.87491698724E-01  0.26738903640E+00  0.38604730944E+01  0.38707110725E+01  0.00000000000E+00 0.  1.
</event>
<event>
 5    1  0.3490044E+002  0.1569121E+01  0.7818608E-02  0.3387576E+00
         11   -1    0    0    0    0  0.00000000000E+00  0.00000000000E+00  0.39999999674E+01  0.40000000000E+01  0.51100000000E-03 0. -1.
    9000002   -1    0    0    0    0 -0.00000000000E+00 -0.00000000000E+00  0.00000000000E+00  0.93800000000E+00  0.93800000000E+00 0.  1.
         11    1    1    2    0    0 -0.15869756510E-01  0.31526434852E-01  0.12888275013E-01  0.37578371705E-01  0.51100000000E-03 0. -1.
    9000002    1    1    2    0    0 -0.84656359416E-01 -0.33245100010E+00  0.10377206492E+00  0.10041429222E+01  0.93800000000E+00 0.  1.
         22    1    1    2    0    0  0.10052611593E+00  0.30092456524E+00  0.38833396274E+01  0.38962787061E+01  0.00000000000E+00 0. -1.
</event>
<event>
 5    1  0.3490044E+002  0.1599677E+01  0.7818608E-02  0.3353714E+00
         11   -1    0    0    0    0  0.00000000000E+00  0.00000000000E+00  0.39999999674E+01  0.40000000000E+01  0.51100000000E-03 0.  1.
    9000002   -1    0    0    0    0 -0.00000000000E+00 -0.00000000000E+00  0.00000000000E+00  0.93800000000E+00  0.93800000000E+00 0. -1.
         11    1    1    2    0    0 -0.57374075649E+00  0.17428258162E+00  0.25069086583E+01  0.25776237422E+01  0.51100000000E-03 0.  1.
    9000002    1    1    2    0    0  0.79683050901E+00 -0.24214627502E+00  0.51684491749E+00  0.13566673680E+01  0.93800000000E+00 0. -1.
         22    1    1    2    0    0 -0.22308975252E+00  0.67863693409E-01  0.97624639155E+00  0.10037088899E+01  0.00000000000E+00 0.  1.
</event>
<event>
 5    1  0.3490044E+002  0.1595049E+01  0.7818608E-02  0.3358754E+00
         11   -1    0    0    0    0  0.00000000000E+00  0.00000000000E+00  0.39999999674E+01  0.40000000000E+01  0.51100000000E-03 0. -1.
    9000002   -1    0    0    0    0 -0.00000000000E+00 -0.00000000000E+00  0.00000000000E+00  0.93800000000E+00  0.93800000000E+00 0. -1.
         11    1    1    2    0    0  0.21076524700E-02 -0.32091855487E-01  0.19444412488E+00  0.19708655005E+00  0.51100000000E-03 0. -1.
    9000002    1    1    2    0    0 -0.24967836031E+00 -0.38106378066E-01  0.45933041140E-01  0.97249433105E+00  0.93800000000E+00 0. -1.
         22    1    1    2    0    0  0.24757070784E+00  0.70198233554E-01  0.37596228013E+01  0.37684191189E+01  0.00000000000E+00 0. -1.
</event>
<event>
 5    1  0.3490044E+002  0.1599612E+01  0.7818608E-02  0.3353784E+00
         11   -1    0    0    0    0  0.00000000000E+00  0.00000000000E+00  0.39999999674E+01  0.40000000000E+01  0.51100000000E-03 0. -1.
    9000002   -1    0    0    0    0 -0.00000000000E+00 -0.00000000000E+00  0.00000000000E+00  0.93800000000E+00  0.93800000000E+00 0.  1.
         11    1    1    2    0    0 -0.26154741173E+00 -0.26088791967E-01  0.17720277423E+01  0.17914157123E+01  0.51100000000E-03 0. -1.
    9000002    1    1    2    0    0  0.55311328404E+00  0.35950965364E-01  0.21243655179E+00  0.11100450736E+01  0.93800000000E+00 0.  1.
         22    1    1    2    0    0 -0.29156587230E+00 -0.98621733976E-02  0.20155356733E+01  0.20365392141E+01  0.00000000000E+00 0.  1.
</event>
<event>
 5    1  0.3490044E+002  0.1598805E+01  0.7818608E-02  0.3354661E+00
         11   -1    0    0    0    0  0.00000000000E+00  0.00000000000E+00  0.39999999674E+01  0.40000000000E+01  0.51100000000E-03 0.  1.
    9000002   -1    0    0    0    0 -0.00000000000E+00 -0.00000000000E+00  0.00000000000E+00  0.93800000000E+00  0.93800000000E+00 0. -1.
         11    1    1    2    0    0 -0.51180598891E-02  0.78931829199E-02  0.43462171723E-01  0.44471545572E-01  0.51100000000E-03 0.  1.
    9000002    1    1    2    0    0  0.25067098599E+00 -0.75559180998E-01  0.46246140802E-01  0.97495017236E+00  0.93800000000E+00 0. -1.
         22    1    1    2    0    0 -0.24555292610E+00  0.67665998078E-01  0.39102916548E+01  0.39185782821E+01  0.00000000000E+00 0.  1.
</event>
<event>
 5    1  0.3490044E+002  0.1564805E+01  0.7818608E-02  0.3392471E+00
         11   -1    0    0    0    0  0.00000000000E+00  0.00000000000E+00  0.39999999674E+01  0.40000000000E+01  0.51100000000E-03 0.  1.
    9000002   -1    0    0    0    0 -0.00000000000E+00 -0.00000000000E+00  0.00000000000E+00  0.93800000000E+00  0.93800000000E+00 0. -1.
         11    1    1    2    0    0  0.13434270545E+00  0.75175038321E-01  0.59312959614E+00  0.61278236580E+00  0.51100000000E-03 0.  1.
    9000002    1    1    2    0    0 -0.18657083955E+00  0.31250137092E+00  0.11784763670E+00  0.10130142400E+01  0.93800000000E+00 0. -1.
         22    1    1    2    0    0  0.52228134096E-01 -0.38767640924E+00  0.32890227345E+01  0.33122033942E+01  0.00000000000E+00 0.  1.
</event>
<event>
 5    1  0.3490044E+002  0.1591395E+01  0.7818608E-02  0.3362756E+00
         11   -1    0    0    0    0  0.00000000000E+00  0.00000000000E+00  0.39999999674E+01  0.40000000000E+01  0.51100000000E-03 0. -1.
    9000002   -1    0    0    0    0 -0.00000000000E+00 -0.00000000000E+00  0.00000000000E+00  0.93800000000E+00  0.93800000000E+00 0. -1.
         11    1    1    2    0    0  0.14034062107E-01  0.24140862169E-01  0.81585928524E-01  0.86233757773E-01  0.51100000000E-03 0. -1.
    9000002    1    1    2    0    0 -0.23034517831E+00  0.29139939681E+00  0.99528582976E-01  0.10137664664E+01  0.93800000000E+00 0. -1.
         22    1    1    2    0    0  0.21631111620E+00 -0.31554025898E+00  0.38188854559E+01  0.38379997758E+01  0.00000000000E+00 0. -1.
</event>
<event>
 5    1  0.3490044E+002  0.1599674E+01  0.7818608E-02  0.3353718E+00
         11   -1    0    0    0    0  0.00000000000E+00  0.00000000000E+00  0.39999999674E+01  0.40000000000E+01  0.51100000000E-03 0. -1.
    9000002   -1    0    0    0    0 -0.00000000000E+00 -0.00000000000E+00  0.00000000000E+00  0.93800000000E+00  0.93800000000E+00 0.  1.
         11    1    1    2    0    0 -0.52982252059E-01  0.54718716097E-01  0.98217784591E+00  0.98512681368E+00  0.51100000000E-03 0. -1.
    9000002    1    1    2    0    0  0.21242195817E+00 -0.21190622789E+00  0.60061200550E-01  0.98665023465E+00  0.93800000000E+00 0.  1.
         22    1    1    2    0    0 -0.15943970611E+00  0.15718751180E+00  0.29577609209E+01  0.29662229517E+01  0.00000000000E+00 0. -1.
</event>
<event>
 5    1  0.3490044E+002  0.1599288E+01  0.7818608E-02  0.3354136E+00
         11   -1    0    0    0    0  0.00000000000E+00  0.00000000000E+00  0.39999999674E+01  0.40000000000E+01  0.51100000000E-03 0. -1.
    9000002   -1    0    0    0    0 -0.00000000000E+00 -0.00000000000E+00  0.00000000000E+00  0.93800000000E+00  0.93800000000E+00 0.  1.
         11    1    1    2    0    0 -0.18411937615E+00  0.19301487990E+00  0.19133828722E+01  0.19318874101E+01  0.51100000000E-03 0. -1.
    9000002    1    1    2    0    0  0.41096256953E+00 -0.38347937523E+00  0.21910508588E+00  0.11152567881E+01  0.93800000000E+00 0.  1.
         22    1    1    2    0    0 -0.22684319338E+00  0.19046449533E+00  0.18675120092E+01  0.18908558018E+01  0.00000000000E+00 0. -1.
</event>
<event>
 5    1  0.3490044E+002  0.1555060E+01  0.7818608E-02  0.3403632E+00
         11   -1    0    0    0    0  0.00000000000E+00  0.00000000000E+00  0.39999999674E+01  0.40000000000E+01  0.51100000000E-03 0.  1.
    9000002   -1    0    0    0    0 -0.00000000000E+00 -0.00000000000E+00  0.00000000000E+00  0.93800000000E+00  0.93800000000E+00 0.  1.
         11    1    1    2    0    0 -0.20572175151E+00  0.31362202204E-01  0.94916156482E+00  0.97170621281E+00  0.51100000000E-03 0.  1.
    9000002    1    1    2    0    0 -0.49175650629E-01 -0.16091113824E+00  0.52567802011E-01  0.95442024959E+00  0.93800000000E+00 0.  1.
         22    1    1    2    0    0  0.25489740214E+00  0.12954893604E+00  0.29982706005E+01  0.30118735376E+01  0.00000000000E+00 0.  1.
</event>
<event>
 5    1  0.3490044E+002  0.1584441E+01  0.7818608E-02  0.3370425E+00
         11   -1    0    0    0    0  0.00000000000E+00  0.00000000000E+00  0.39999999674E+01  0.40000000000E+01  0.51100000000E-03 0. -1.
    9000002   -1    0    0    0    0 -0.00000000000E+00 -0.00000000000E+00  0.00000000000E+00  0.93800000000E+00  0.93800000000E+00 0.  1.
         11    1    1    2    0    0  0.49281356069E-01  0.52060809601E-01  0.33038124031E+00  0.33806952690E+00  0.51100000000E-03 0. -1.
    9000002    1    1    2    0    0 -0.69290099382E-01  0.21491413322E+00  0.45429296980E-01  0.96586594492E+00  0.93800000000E+00 0.  1.
         22    1    1    2    0    0  0.20008743313E-01 -0.26697494282E+00  0.36241894301E+01  0.36340645282E+01  0.00000000000E+00 0. -1.
</event>
<event>
 5    1  0.3490044E+002  0.1481173E+01  0.7818608E-02  0.3493374E+00
         11   -1    0    0    0    0  0.00000000000E+00  0.00000000000E+00  0.39999999674E+01  0.40000000000E+01  0.51100000000E-03 0. -1.
    9000002   -1    0    0    0    0 -0.00000000000E+00 -0.00000000000E+00  0.00000000000E+00  0.93800000000E+00  0.93800000000E+00 0. -1.
         11    1    1    2    0    0  0.32391490411E+00  0.50485557970E-01  0.40941151124E+00  0.52448803926E+00  0.51100000000E-03 0. -1.
    9000002    1    1    2    0    0  0.85048459877E-01 -0.11099180183E+00  0.16444559567E+00  0.96251689571E+00  0.93800000000E+00 0. -1.
         22    1    1    2    0    0 -0.40896336399E+00  0.60506243861E-01  0.34261428604E+01  0.34509950650E+01  0.00000000000E+00 0. -1.
</event>
<event>
 5    1  0.3490044E+002  0.1557093E+01  0.7818608E-02  0.3401291E+00
         11   -1    0    0    0    0  0.00000000000E+00  0.00000000000E+00  0.39999999674E+01  0.40000000000E+01  0.51100000000E-03 0.  1.
    9000002   -1    0    0    0    0 -0.00000000000E+00 -0.00000000000E+00  0.00000000000E+00  0.93800000000E+00  0.93800000000E+00 0.  1.
         11    1    1    2    0    0  0.10225527049E+00  0.17389123450E+00  0.85194332865E+00  0.87550099836E+00  0.51100000000E-03 0.  1.
    9000002    1    1    2    0    0 -0.13143234735E+00  0.79563125840E-01  0.47734363056E-01  0.95169707488E+00  0.93800000000E+00 0.  1.
         22    1    1    2    0    0  0.29177076869E-01 -0.25345436034E+00  0.31003222757E+01  0.31108019268E+01  0.00000000000E+00 0.  1.
</event>
<event>
 5    1  0.3490044E+002  0.1599422E+01  0.7818608E-02  0.3353991E+00
         11   -1    0    0    0    0  0.00000000000E+00  0.00000000000E+00  0.39999999674E+01  0.40000000000E+01  0.51100000000E-03 0. -1.
    9000002   -1    0    0    0    0 -0.00000000000E+00 -0.00000000000E+00  0.00000000000E+00  0.93800000000E+00  0.93800000000E+00 0. -1.
         11    1    1    2    0    0  0.43902030414E-01 -0.32467562642E-01  0.43949420335E+00  0.44287351106E+00  0.51100000000E-03 0. -1.
    9000002    1    1    2    0    0 -0.31150333949E+00  0.21339511503E+00  0.96109464966E-01  0.10157031234E+01  0.93800000000E+00 0. -1.
         22    1    1    2    0    0  0.26760130907E+00 -0.18092755239E+00  0.34643962990E+01  0.34794233655E+01  0.00000000000E+00 0. -1.
</event>
<event>
 5    1  0.3490044E+002  0.1599675E+01  0.7818608E-02  0.3353716E+00
         11   -1    0    0    0    0  0.00000000000E+00  0.00000000000E+00  0.39999999674E+01  0.40000000000E+01  0.51100000000E-03 0.  1.
    9000002   -1    0    0    0    0 -0.00000000000E+00 -0.00000000000E+00  0.00000000000E+00  0.93800000000E+00  0.93800000000E+00 0.  1.
         11    1    1    2    0    0  0.37913619318E-01  0.42681073259E+00  0.22721505413E+01  0.23122009401E+01  0.51100000000E-03 0.  1.
    9000002    1    1    2    0    0 -0.61336016326E-01 -0.68527211982E+00  0.33722619066E+00  0.12111669946E+01  0.93800000000E+00 0.  1.
         22    1    1    2    0    0  0.23422397008E-01  0.25846138723E+00  0.13906232354E+01  0.14146320653E+01  0.00000000000E+00 0.  1.
</event>
<event>
 5    1  0.3490044E+002  0.1599631E+01  0.7818608E-02  0.3353764E+00
         11   -1    0    0    0    0  0.00000000000E+00  0.00000000000E+00  0.39999999674E+01  0.40000000000E+01  0.51100000000E-03 0. -1.
    9000002   -1    0    0    0    0 -0.00000000000E+00 -0.00000000000E+00  0.00000000000E+00  0.93800000000E+00  0.93800000000E+00 0. -1.
         11    1    1    2    0    0  0.22797792749E+00 -0.32350672447E+00  0.22437089684E+01  0.22783460519E+01  0.51100000000E-03 0. -1.
    9000002    1    1    2    0    0 -0.38538829592E+00  0.52433558309E+00  0.29890938693E+00  0.11801028616E+01  0.93800000000E+00 0. -1.
         22    1    1    2    0    0  0.15741036844E+00 -0.20082885862E+00  0.14573816120E+01  0.14795510865E+01  0.00000000000E+00 0. -1.
</event>
<event>
 5    1  0.3490044E+002  0.1599676E+01  0.7818608E-02  0.3353715E+00
         11   -1    0    0    0    0  0.00000000000E+00  0.00000000000E+00  0.39999999674E+01  0.40000000000E+01  0.51100000000E-03 0. -1.
    9000002   -1    0    0    0    0 -0.00000000000E+00 -0.00000000000E+00  0.00000000000E+00  0.93800000000E+00  0.93800000000E+00 0.  1.
         11    1    1    2    0    0  0.18778035460E-01 -0.54955282169E-01  0.66256141494E+00  0.66510193756E+00  0.51100000000E-03 0. -1.
    9000002    1    1    2    0    0 -0.11049418432E+00  0.32158181707E+00  0.77443690377E-01  0.10007324093E+01  0.93800000000E+00 0.  1.
         22    1    1    2    0    0  0.91716148857E-01 -0.26662653490E+00  0.32599948620E+01  0.32721656531E+01  0.00000000000E+00 0. -1.
</event>
<event>
 5    1  0.3490044E+002  0.1599644E+01  0.7818608E-02  0.3353750E+00
         11   -1    0    0    0    0  0.00000000000E+00  0.00000000000E+00  0.39999999674E+01  0.40000000000E+01  0.51100000000E-03 0. -1.
    9000002   -1    0    0    0    0 -0.00000000000E+00 -0.00000000000E+00  0.00000000000E+00  0.93800000000E+00  0.93800000000E+00 0. -1.
         11    1    1    2    0    0  0.10605565004E+00  0.14485062075E+00  0.12491550395E+01  0.12619897294E+01  0.51100000000E-03 0. -1.
    9000002    1    1    2    0    0 -0.30999391784E+00 -0.42686997564E+00  0.19146652232E+00  0.10930771402E+01  0.93800000000E+00 0. -1.
         22    1    1    2    0    0  0.20393826781E+00  0.28201935489E+00  0.25593784055E+01  0.25829331304E+01  0.00000000000E+00 0. -1.
</event>
<event>
 5    1  0.3490044E+002  0.1566281E+01  0.7818608E-02  0.3390794E+00
         11   -1    0    0    0    0  0.00000000000E+00  0.00000000000E+00  0.39999999674E+01  0.40000000000E+01  0.51100000000E-03 0.  1.
    9000002   -1    0    0    0    0 -0.00000000000E+00 -0.00000000000E+00  0.00000000000E+00  0.93800000000E+00  0.93800000000E+00 0.  1.
         11    1    1    2    0    0 -0.23918068279E-01  0.14117213102E+00  0.57217255417E+00  0.58981635908E+00  0.51100000000E-03 0.  1.
    9000002    1    1    2    0    0 -0.16706092193E+00  0.44820471798E-01  0.45007355479E-01  0.95487584972E+00  0.93800000000E+00 0.  1.
         22    1    1    2    0    0  0.19097899021E+00 -0.18599260282E+00  0.33828200577E+01  0.33933077912E+01  0.00000000000E+00 0.  1.
</event>
<event>
 5    1  0.3490044E+002  0.1597241E+01  0.7818608E-02  0.3356363E+00
         11   -1    0    0    0    0  0.00000000000E+00  0.00000000000E+00  0.39999999674E+01  0.40000000000E+01  0.51100000000E-03 0.  1.
    9000002   -1    0    0    0    0 -0.00000000000E+00 -0.00000000000E+00  0.00000000000E+00  0.93800000000E+00  0.93800000000E+00 0.  1.
         11    1    1    2    0    0 -0.31504684639E-02  0.24348611384E-01  0.19450197445E+00  0.19604606478E+00  0.51100000000E-03 0.  1.
    9000002    1    1    2    0    0  0.36611104821E+00 -0.67634737558E-01  0.95169418439E-01  0.10136631470E+01  0.93800000000E+00 0.  1.
         22    1    1    2    0    0 -0.36296057974E+00  0.43286126174E-01  0.37103285745E+01  0.37282907882E+01  0.00000000000E+00 0.  1.
</event>
<event>
 5    1  0.3490044E+002  0.1588413E+01  0.7818608E-02  0.3366037E+00
         11   -1    0    0    0    0  0.00000000000E+00  0.00000000000E+00  0.39999999674E+01  0.40000000000E+01  0.51100000000E-03 0.  1.
    9000002   -1    0    0    0    0 -0.00000000000E+00 -0.00000000000E+00  0.00000000000E+00  0.93800000000E+00  0.93800000000E+00 0.  1.
         11    1    1    2    0    0  0.31299230638E+00 -0.78723657010E-01  0.14274381435E+01  0.14634689996E+01  0.51100000000E-03 0.  1.
    9000002    1    1    2    0    0 -0.50362274319E+00  0.15852618756E+00  0.20224597840E+00  0.10952231989E+01  0.93800000000E+00 0.  1.
         22    1    1    2    0    0  0.19063043681E+00 -0.79802530554E-01  0.23703158454E+01  0.23793078015E+01  0.00000000000E+00 0.  1.
</event>
<event>
 5    1  0.3490044E+002  0.1597626E+01  0.7818608E-02  0.3355944E+00
         11   -1    0    0    0    0  0.00000000000E+00  0.00000000000E+00  0.39999999674E+01  0.40000000000E+01  0.51100000000E-03 0.  1.
    9000002   -1    0    0    0    0 -0.00000000000E+00 -0.00000000000E+00  0.00000000000E+00  0.93800000000E+00  0.93800000000E+00 0.  1.
         11    1    1    2    0    0 -0.63003417662E-02 -0.10287593612E-01  0.28730142061E-01  0.31164259538E-01  0.51100000000E-03 0.  1.
    9000002    1    1    2    0    0  0.19322137089E+00  0.28138422932E+00  0.79693368717E-01  0.10013523934E+01  0.93800000000E+00 0.  1.
         22    1    1    2    0    0 -0.18692102913E+00 -0.27109663571E+00  0.38915764566E+01  0.39054833471E+01  0.00000000000E+00 0.  1.
</event>
<event>
 5    1  0.3490044E+002  0.1588079E+01  0.7818608E-02  0.3366405E+00
         11   -1    0    0    0    0  0.00000000000E+00  0.00000000000E+00  0.39999999674E+01  0.40000000000E+01  0.51100000000E-03 0.  1.
    9000002   -1    0    0    0    0 -0.00000000000E+00 -0.00000000000E+00  0.00000000000E+00  0.93800000000E+00  0.93800000000E+00 0.  1.
         11    1    1    2    0    0 -0.33046733050E-02  0.55426440672E-01  0.13456063779E+01  0.13467515720E+01  0.51100000000E-03 0.  1.
    9000002    1    1    2    0    0 -0.31866531052E+00 -0.16039273951E-01  0.77268769099E-01  0.99379037081E+00  0.93800000000E+00 0.  1.
         22    1    1    2    0    0  0.32196998382E+00 -0.39387166721E-01  0.25771248203E+01  0.25974580572E+01  0.00000000000E+00 0.  1.
</event>
<event>
 5    1  0.3490044E+002  0.1599677E+01  0.7818608E-02  0.3353714E+00
         11   -1    0    0    0    0  0.00000000000E+00  0.00000000000E+00  0.39999999674E+01  0.40000000000E+01  0.51100000000E-03 0. -1.
    9000002   -1    0    0    0    0 -0.00000000000E+00 -0.00000000000E+00  0.00000000000E+00  0.93800000000E+00  0.93800000000E+00 0.  1.
         11    1    1    2    0    0  0.42251428974E-01 -0.68505460306E-01  0.85180205647E+00  0.85559639193E+00  0.51100000000E-03 0. -1.
    9000002    1    1    2    0    0 -0.19307921755E+00  0.31196021142E+00  0.90422896616E-01  0.10112462895E+01  0.93800000000E+00 0.  1.
         22    1    1    2    0    0  0.15082778858E+00 -0.24345475111E+00  0.30577750143E+01  0.30711573186E+01  0.00000000000E+00 0. -1.
</event>
<event>
 5    1  0.3490044E+002  0.1560753E+01  0.7818608E-02  0.3397094E+00
         11   -1    0    0    0    0  0.00000000000E+00  0.00000000000E+00  0.39999999674E+01  0.40000000000E+01  0.51100000000E-03 0. -1.
    9000002   -1    0    0    0    0 -0.00000000000E+00 -0.00000000000E+00  0.00000000000E+00  0.93800000000E+00  0.93800000000E+00 0.  1.
         11    1    1    2    0    0  0.22286450204E+00 -0.13232458437E-01  0.12513865616E+01  0.12711460466E+01  0.51100000000E-03 0. -1.
    9000002    1    1    2    0    0 -0.21579425695E-01  0.19079771965E+00  0.54072363084E-01  0.95897719571E+00  0.93800000000E+00 0.  1.
         22    1    1    2    0    0 -0.20128507634E+00 -0.17756526121E+00  0.26945410427E+01  0.27078767576E+01  0.00000000000E+00 0. -1.
</event>
<event>
 5    1  0.3490044E+002  0.1599662E+01  0.7818608E-02  0.3353731E+00
         11   -1    0    0    0    0  0.00000000000E+00  0.00000000000E+00  0.39999999674E+01  0.40000000000E+01  0.51100000000E-03 0.  1.
    9000002   -1    0    0    0    0 -0.00000000000E+00 -0.00000000000E+00  0.00000000000E+00  0.93800000000E+00  0.93800000000E+00 0. -1.
         11    1    1    2    0    0 -0.20153023439E+00  0.13230126494E+00  0.18510225456E+01  0.18666555080E+01  0.51100000000E-03 0.  1.
    9000002    1    1    2    0    0  0.42588375028E+00 -0.27544791038E+00  0.17632980206E+00  0.10808259431E+01  0.93800000000E+00 0. -1.
         22    1    1    2    0    0 -0.22435351590E+00  0.14314664545E+00  0.19726476197E+01  0.19905185489E+01  0.00000000000E+00 0.  1.
</event>
<event>
 5    1  0.3490044E+002  0.1582982E+01  0.7818608E-02  0.3372044E+00
         11   -1    0    0    0    0  0.00000000000E+00  0.00000000000E+00  0.39999999674E+01  0.40000000000E+01  0.51100000000E-03 0. -1.
    9000002   -1    0    0    0    0 -0.00000000000E+00 -0.00000000000E+00  0.00000000000E+00  0.93800000000E+00  0.93800000000E+00 0.  1.
         11    1    1    2    0    0 -0.14221123642E+00 -0.46785649068E-01  0.14686141310E+01  0.14762251385E+01  0.51100000000E-03 0. -1.
    9000002    1    1    2    0    0  0.26504664774E+00 -0.25962983626E+00  0.10627206659E+00  0.10142953857E+01  0.93800000000E+00 0.  1.
         22    1    1    2    0    0 -0.12283541132E+00  0.30641548533E+00  0.24251137698E+01  0.24474794758E+01  0.00000000000E+00 0. -1.
</event>
<event>
 5    1  0.3490044E+002  0.1591312E+01  0.7818608E-02  0.3362847E+00
         11   -1    0    0    0    0  0.00000000000E+00  0.00000000000E+00  0.39999999674E+01  0.40000000000E+01  0.51100000000E-03 0. -1.
    9000002   -1    0    0    0    0 -0.00000000000E+00 -0.00000000000E+00  0.00000000000E+00  0.93800000000E+00  0.93800000000E+00 0.  1.
         11    1    1    2    0    0  0.42684222475E-02  0.11337103416E+00  0.14246478293E+01  0.14291581121E+01  0.51100000000E-03 0. -1.
    9000002    1    1    2    0    0 -0.29407212794E+00 -0.24364233564E+00  0.10505536256E+00  0.10181947915E+01  0.93800000000E+00 0.  1.
         22    1    1    2    0    0  0.28980370569E+00  0.13027130148E+00  0.24702967755E+01  0.24906470964E+01  0.00000000000E+00 0.  1.
</event>
<event>
 5    1  0.3490044E+002  0.1587395E+01  0.7818608E-02  0.3367159E+00
         11   -1    0    0    0    0  0.00000000000E+00  0.00000000000E+00  0.39999999674E+01  0.40000000000E+01  0.51100000000E-03 0. -1.
    9000002   -1    0    0    0    0 -0.00000000000E+00 -0.00000000000E+00  0.00000000000E+00  0.93800000000E+00  0.93800000000E+00 0. -1.
         11    1    1    2    0    0 -0.64895508967E-01  0.88629718331E-01  0.27159425698E+01  0.27181631587E+01  0.51100000000E-03 0. -1.
    9000002    1    1    2    0    0  0.26741744904E+00 -0.17038430547E+00  0.76949456045E-01  0.99313046594E+00  0.93800000000E+00 0. -1.
         22    1    1    2    0    0 -0.20252194007E+00  0.81754587143E-01  0.12071079415E+01  0.12267063753E+01  0.00000000000E+00 0. -1.
</event>
<event>
 5    1  0.3490044E+002  0.1581356E+01  0.7818608E-02  0.3373851E+00
         11   -1    0    0    0    0  0.00000000000E+00  0.00000000000E+00  0.39999999674E+01  0.40000000000E+01  0.51100000000E-03 0.  1.
    9000002   -1    0    0    0    0 -0.00000000000E+00 -0.00000000000E+00  0.00000000000E+00  0.93800000000E+00  0.93800000000E+00 0. -1.
         11    1    1    2    0    0  0.29099791903E-01  0.11346697956E+00  0.13901999352E+01  0.13951264008E+01  0.51100000000E-03 0.  1.
    9000002    1    1    2    0    0 -0.13425036027E+00  0.11670395996E+00  0.34677867558E-01  0.95534785707E+00  0.93800000000E+00 0. -1.
         22    1    1    2    0    0  0.10515056836E+00 -0.23017093953E+00  0.25751221646E+01  0.25875257421E+01  0.00000000000E+00 0.  1.
</event>
<event>
 5    1  0.3490044E+002  0.1599671E+01  0.7818608E-02  0.3353720E+00
         11   -1    0    0    0    0  0.00000000000E+00  0.00000000000E+00  0.39999999674E+01  0.40000000000E+01  0.51100000000E-03 0. -1.
    9000002   -1    0    0    0    0 -0.00000000000E+00 -0.00000000000E+00  0.00000000000E+00  0.93800000000E+00  0.93800000000E+00 0.  1.
         11    1    1    2    0    0  0.65720120308E-01 -0.37983704698E-01  0.50081399306E+00  0.50653411810E+00  0.51100000000E-03 0. -1.
    9000002    1    1    2    0    0 -0.50649005012E+00  0.27811157925E+00  0.23187836493E+00  0.11258284938E+01  0.93800000000E+00 0.  1.
         22    1    1    2    0    0  0.44076992981E+00 -0.24012787456E+00  0.32673076094E+01  0.33056373881E+01  0.00000000000E+00 0. -1.
</event>
<event>
 5    1  0.3490044E+002  0.1599674E+01  0.7818608E-02  0.3353717E+00
         11   -1    0    0    0    0  0.00000000000E+00  0.00000000000E+00  0.39999999674E+01  0.40000000000E+01  0.51100000000E-03 0. -1.
    9000002   -1    0    0    0    0 -0.00000000000E+00 -0.00000000000E+00  0.00000000000E+00  0.93800000000E+00  0.93800000000E+00 0. -1.
         11    1    1    2    0    0 -0.13245782963E-01 -0.16406028951E-01  0.37039732185E+00  0.37099736617E+00  0.51100000000E-03 0. -1.
    9000002    1    1    2    0    0  0.14108606405E+00  0.18711841507E+00  0.36441690169E-01  0.96751773912E+00  0.93800000000E+00 0. -1.
         22    1    1    2    0    0 -0.12784028109E+00 -0.17071238612E+00  0.35931609553E+01  0.35994848947E+01  0.00000000000E+00 0. -1.
</event>
<event>
 5    1  0.3490044E+002  0.1599602E+01  0.7818608E-02  0.3353796E+00
         11   -1    0    0    0    0  0.00000000000E+00  0.00000000000E+00  0.39999999674E+01  0.40000000000E+01  0.51100000000E-03 0.  1.
    9000002   -1    0    0    0    0 -0.00000000000E+00 -0.00000000000E+00  0.00000000000E+00  0.93800000000E+00  0.93800000000E+00 0.  1.
         11    1    1    2    0    0  0.19396532830E-01 -0.59870225932E-01  0.86216149604E+00  0.86445553721E+00  0.51100000000E-03 0.  1.
    9000002    1    1    2    0    0 -0.72401164915E-01  0.30907964546E+00  0.67398418138E-01  0.99255161210E+00  0.93800000000E+00 0.  1.
         22    1    1    2    0    0  0.53004632085E-01 -0.24920941953E+00  0.30704400532E+01  0.30809928507E+01  0.00000000000E+00 0.  1.
</event>
<event>
 5    1  0.3490044E+002  0.1599620E+01  0.7818608E-02  0.3353776E+00
         11   -1    0    0    0    0  0.00000000000E+00  0.00000000000E+00  0.39999999674E+01  0.40000000000E+01  0.51100000000E-03 0. -1.
    9000002   -1    0    0    0    0 -0.00000000000E+00 -0.00000000000E+00  0.00000000000E+00  0.93800000000E+00  0.93800000000E+00 0. -1.
         11    1    1    2    0    0 -0.18177166928E-02 -0.26225225042E-01  0.50619260000E+00  0.50687501017E+00  0.51100000000E-03 0. -1.
    9000002    1    1    2    0    0  0.67285418798E-02  0.25174375718E+00  0.42178694624E-01  0.97213334211E+00  0.93800000000E+00 0. -1.
         22    1    1    2    0    0 -0.49108251870E-02 -0.22551853214E+00  0.34516286727E+01  0.34589916477E+01  0.00000000000E+00 0. -1.
</event>
<event>
 5    1  0.3490044E+002  0.1552153E+01  0.7818608E-02  0.3406991E+00
         11   -1    0    0    0    0  0.00000000000E+00  0.00000000000E+00  0.39999999674E+01  0.40000000000E+01  0.51100000000E-03 0. -1.
    9000002   -1    0    0    0    0 -0.00000000000E+00 -0.00000000000E+00  0.00000000000E+00  0.93800000000E+00  0.93800000000E+00 0. -1.
         11    1    1    2    0    0 -0.20200285519E-01  0.11268063356E+00  0.23730278903E+00  0.26347267699E+00  0.51100000000E-03 0. -1.
    9000002    1    1    2    0    0 -0.58093954180E+00  0.62421810504E-01  0.28545740426E+00  0.11413663581E+01  0.93800000000E+00 0. -1.
         22    1    1    2    0    0  0.60113982732E+00 -0.17510244407E+00  0.34772397741E+01  0.35331609650E+01  0.00000000000E+00 0. -1.
</event>
<event>
 5    1  0.3490044E+002  0.1598420E+01  0.7818608E-02  0.3355080E+00
         11   -1    0    0    0    0  0.00000000000E+00  0.00000000000E+00  0.39999999674E+01  0.40000000000E+01  0.51100000000E-03 0. -1.
    9000002   -1    0    0    0    0 -0.00000000000E+00 -0.00000000000E+00  0.00000000000E+00  0.93800000000E+00  0.93800000000E+00 0. -1.
         11    1    1    2    0    0  0.42091421859E-01  0.18282603142E+00  0.16901565496E+01  0.17005371119E+01  0.51100000000E-03 0. -1.
    9000002    1    1    2    0    0 -0.18285781493E+00 -0.37506545981E+00  0.11876785897E+00  0.10334703111E+01  0.93800000000E+00 0. -1.
         22    1    1    2    0    0  0.14076639307E+00  0.19223942839E+00  0.21910755588E+01  0.22039925770E+01  0.00000000000E+00 0. -1.
</event>
<event>
 5    1  0.3490044E+002  0.1595723E+01  0.7818608E-02  0.3358018E+00
         11   -1    0    0    0    0  0.00000000000E+00  0.00000000000E+00  0.39999999674E+01  0.40000000000E+01  0.51100000000E-03 0. -1.
    9000002   -1    0    0    0    0 -0.00000000000E+00 -0.00000000000E+00  0.00000000000E+00  0.93800000000E+00  0.93800000000E+00 0.  1.
         11    1    1    2    0    0 -0.84897823363E-01 -0.10309455482E-01  0.92055763341E+00  0.92452179144E+00  0.51100000000E-03 0. -1.
    9000002    1    1    2    0    0  0.24106222412E+00 -0.20116399364E+00  0.68974372530E-01  0.99155403902E+00  0.93800000000E+00 0.  1.
         22    1    1    2    0    0 -0.15616440075E+00  0.21147344912E+00  0.30104679614E+01  0.30219241695E+01  0.00000000000E+00 0. -1.
</event>
<event>
 5    1  0.3490044E+002  0.1595914E+01  0.7818608E-02  0.3357810E+00
         11   -1    0    0    0    0  0.00000000000E+00  0.00000000000E+00  0.39999999674E+01  0.40000000000E+01  0.51100000000E-03 0.  1.
    9000002   -1    0    0    0    0 -0.00000000000E+00 -0.00000000000E+00  0.00000000000E+00  0.93800000000E+00  0.93800000000E+00 0. -1.
         11    1    1    2    0    0  0.52970820144E-01 -0.54254727645E-01  0.33781778597E+00  0.34622333962E+00  0.51100000000E-03 0.  1.
    9000002    1    1    2    0    0 -0.33919264706E+00  0.22259886244E+00  0.11425942351E+00  0.10283487352E+01  0.93800000000E+00 0. -1.
         22    1    1    2    0    0  0.28622182692E+00 -0.16834413479E+00  0.35479227579E+01  0.35634279252E+01  0.00000000000E+00 0.  1.
</event>
<event>
 5    1  0.3490044E+002  0.1599667E+01  0.7818608E-02  0.3353725E+00
         11   -1    0    0    0    0  0.00000000000E+00  0.00000000000E+00  0.39999999674E+01  0.40000000000E+01  0.51100000000E-03 0.  1.
    9000002   -1    0    0    0    0 -0.00000000000E+00 -0.00000000000E+00  0.00000000000E+00  0.93800000000E+00  0.93800000000E+00 0.  1.
         11    1    1    2    0    0 -0.17926216455E+00 -0.14180769486E+00  0.62147214947E+00  0.66217236401E+00  0.51100000000E-03 0.  1.
    9000002    1    1    2    0    0  0.85066069694E+00  0.69142927618E+00  0.10315466956E+01  0.17735925830E+01  0.93800000000E+00 0.  1.
         22    1    1    2    0    0 -0.67139853239E+00 -0.54962158132E+00  0.23469811223E+01  0.25022350530E+01  0.00000000000E+00 0.  1.
</event>
<event>
 5    1  0.3490044E+002  0.1597552E+01  0.7818608E-02  0.3356024E+00
         11   -1    0    0    0    0  0.00000000000E+00  0.00000000000E+00  0.39999999674E+01  0.40000000000E+01  0.51100000000E-03 0.  1.
    9000002   -1    0    0    0    0 -0.00000000000E+00 -0.00000000000E+00  0.00000000000E+00  0.93800000000E+00  0.93800000000E+00 0. -1.
         11    1    1    2    0    0  0.57655820105E-02  0.10360796166E-01  0.11111279467E+00  0.11174480879E+00  0.51100000000E-03 0.  1.
    9000002    1    1    2    0    0  0.89006289475E-02  0.24731962094E+00  0.42301014702E-01  0.97101987206E+00  0.93800000000E+00 0. -1.
         22    1    1    2    0    0 -0.14666210958E-01 -0.25768041711E+00  0.38465861580E+01  0.38552353191E+01  0.00000000000E+00 0.  1.
</event>
<event>
 5    1  0.3490044E+002  0.1598870E+01  0.7818608E-02  0.3354591E+00
         11   -1    0    0    0    0  0.00000000000E+00  0.00000000000E+00  0.39999999674E+01  0.40000000000E+01  0.51100000000E-03 0. -1.
    9000002   -1    0    0    0    0 -0.00000000000E+00 -0.00000000000E+00  0.00000000000E+00  0.93800000000E+00  0.93800000000E+00 0. -1.
         11    1    1    2    0    0  0.54845832171E-02  0.98149503915E-02  0.15380727470E+00  0.15421852281E+00  0.51100000000E-03 0. -1.
    9000002    1    1    2    0    0 -0.38322570073E+00 -0.16147856676E-01  0.99697225406E-01  0.10182859263E+01  0.93800000000E+00 0. -1.
         22    1    1    2    0    0  0.37774111751E+00  0.63329062848E-02  0.37464954673E+01  0.37654955509E+01  0.00000000000E+00 0. -1.
</event>
<event>
 5    1  0.3490044E+002  0.1584758E+01  0.7818608E-02  0.3370074E+00
         11   -1    0    0    0    0  0.00000000000E+00  0.00000000000E+00  0.39999999674E+01  0.40000000000E+01  0.51100000000E-03 0. -1.
    9000002   -1    0    0    0    0 -0.00000000000E+00 -0.00000000000E+00  0.00000000000E+00  0.93800000000E+00  0.93800000000E+00 0. -1.
         11    1    1    2    0    0  0.71855892981E-01  0.55569040708E-01  0.20281660112E+01  0.20301992064E+01  0.51100000000E-03 0. -1.
    9000002    1    1    2    0    0  0.54266223242E-01  0.10328485459E+00  0.19983464212E-01  0.94543953959E+00  0.93800000000E+00 0. -1.
         22    1    1    2    0    0 -0.12612211622E+00 -0.15885389530E+00  0.19518504919E+01  0.19623612540E+01  0.00000000000E+00 0. -1.
</event>
<event>
 5    1  0.3490044E+002  0.1576260E+01  0.7818608E-02  0.3379540E+00
         11   -1    0    0    0    0  0.00000000000E+00  0.00000000000E+00  0.39999999674E+01  0.40000000000E+01  0.51100000000E-03 0. -1.
    9000002   -1    0    0    0    0 -0.00000000000E+00 -0.00000000000E+00  0.00000000000E+00  0.93800000000E+00  0.93800000000E+00 0. -1.
         11    1    1    2    0    0  0.49066839890E-01  0.17888146824E+00  0.56954636248E+00  0.59899036269E+00  0.51100000000E-03 0. -1.
    9000002    1    1    2    0    0  0.17859673407E-01 -0.38715474269E+00  0.12073685956E+00  0.10220710112E+01  0.93800000000E+00 0. -1.
         22    1    1    2    0    0 -0.66926513297E-01  0.20827327445E+00  0.33097167453E+01  0.33169386261E+01  0.00000000000E+00 0. -1.
</event>
<event>
 5    1  0.3490044E+002  0.1599676E+01  0.7818608E-02  0.3353715E+00
         11   -1    0    0    0    0  0.00000000000E+00  0.00000000000E+00  0.39999999674E+01  0.40000000000E+01  0.51100000000E-03 0. -1.
    9000002   -1    0    0    0    0 -0.00000000000E+00 -0.00000000000E+00  0.00000000000E+00  0.93800000000E+00  0.93800000000E+00 0.  1.
         11    1    1    2    0    0 -0.12483137684E-01  0.47528152036E-01  0.71927414738E+00  0.72095097904E+00  0.51100000000E-03 0.  1.
    9000002    1    1    2    0    0  0.65614735958E-01 -0.26312633776E+00  0.48935773300E-01  0.97763974607E+00  0.93800000000E+00 0.  1.
         22    1    1    2    0    0 -0.53131598274E-01  0.21559818572E+00  0.32317900467E+01  0.32394092749E+01  0.00000000000E+00 0. -1.
</event>
<event>
 5    1  0.3490044E+002  0.1582757E+01  0.7818608E-02  0.3372294E+00
         11   -1    0    0    0    0  0.00000000000E+00  0.00000000000E+00  0.39999999674E+01  0.40000000000E+01  0.51100000000E-03 0. -1.
    9000002   -1    0    0    0    0 -0.00000000000E+00 -0.00000000000E+00  0.00000000000E+00  0.93800000000E+00  0.93800000000E+00 0. -1.
         11    1    1    2    0    0 -0.47261505531E-01  0.81306521915E-01  0.67948227659E+00  0.68595978434E+00  0.51100000000E-03 0. -1.
    9000002    1    1    2    0    0  0.28786460643E-01  0.16829430714E+00  0.31935193321E-01  0.95394732072E+00  0.93800000000E+00 0. -1.
         22    1    1    2    0    0  0.18475044888E-01 -0.24960082905E+00  0.32885824974E+01  0.32980928949E+01  0.00000000000E+00 0. -1.
</event>
<event>
 5    1  0.3490044E+002  0.1599649E+01  0.7818608E-02  0.3353745E+00
         11   -1    0    0    0    0  0.00000000000E+00  0.00000000000E+00  0.39999999674E+01  0.40000000000E+01  0.51100000000E-03 0. -1.
    9000002   -1    0    0    0    0 -0.00000000000E+00 -0.00000000000E+00  0.00000000000E+00  0.93800000000E+00  0.93800000000E+00 0. -1.
         11    1    1    2    0    0 -0.10936156181E-01 -0.15169696167E-01  0.29440867739E+00  0.29500245701E+00  0.51100000000E-03 0. -1.
    9000002    1    1    2    0    0  0.18350399125E+00  0.17816151148E+00  0.43495708319E-01  0.97321689033E+00  0.93800000000E+00 0. -1.
         22    1    1    2    0    0 -0.17256783507E+00 -0.16299181532E+00  0.36620955816E+01  0.36697806527E+01  0.00000000000E+00 0. -1.
</event>
<event>
 5    1  0.3490044E+002  0.1598487E+01  0.7818608E-02  0.3355007E+00
         11   -1    0    0    0    0  0.00000000000E+00  0.00000000000E+00  0.39999999674E+01  0.40000000000E+01  0.51100000000E-03 0.  1.
    9000002   -1    0    0    0    0 -0.00000000000E+00 -0.00000000000E+00  0.00000000000E+00  0.93800000000E+00  0.93800000000E+00 0. -1.
         11    1    1    2    0    0 -0.21838765005E-01 -0.10503475812E-01  0.73473981866E+00  0.73513952207E+00  0.51100000000E-03 0.  1.
    9000002    1    1    2    0    0  0.38586294522E-01  0.21178128619E+00  0.31604590718E-01  0.96290345594E+00  0.93800000000E+00 0. -1.
         22    1    1    2    0    0 -0.16747529518E-01 -0.20127781038E+00  0.32336555580E+01  0.32399570220E+01  0.00000000000E+00 0.  1.
</event>
<event>
 5    1  0.3490044E+002  0.1594100E+01  0.7818608E-02  0.3359792E+00
         11   -1    0    0    0    0  0.00000000000E+00  0.00000000000E+00  0.39999999674E+01  0.40000000000E+01  0.51100000000E-03 0.  1.
    9000002   -1    0    0    0    0 -0.00000000000E+00 -0.00000000000E+00  0.00000000000E+00  0.93800000000E+00  0.93800000000E+00 0.  1.
         11    1    1    2    0    0  0.21389054481E+00  0.16278306049E+00  0.18932068162E+01  0.19121924067E+01  0.51100000000E-03 0.  1.
    9000002    1    1    2    0    0 -0.53709698252E+00 -0.18357669902E+00  0.22866376503E+00  0.11199574503E+01  0.93800000000E+00 0.  1.
         22    1    1    2    0    0  0.32320643771E+00  0.20793638535E-01  0.18781293861E+01  0.19058501430E+01  0.00000000000E+00 0.  1.
</event>
<event>
 5    1  0.3490044E+002  0.1598554E+01  0.7818608E-02  0.3354935E+00
         11   -1    0    0    0    0  0.00000000000E+00  0.00000000000E+00  0.39999999674E+01  0.40000000000E+01  0.51100000000E-03 0. -1.
    9000002   -1    0    0    0    0 -0.00000000000E+00 -0.00000000000E+00  0.00000000000E+00  0.93800000000E+00  0.93800000000E+00 0. -1.
         11    1    1    2    0    0 -0.86993175975E-02 -0.96676520078E-02  0.15752946730E+00  0.15806623868E+00  0.51100000000E-03 0. -1.
    9000002    1    1    2    0    0 -0.13150162973E+00  0.42206864017E+00  0.13354747627E+00  0.10455207047E+01  0.93800000000E+00 0. -1.
         22    1    1    2    0    0  0.14020094733E+00 -0.41240098816E+00  0.37089230238E+01  0.37344130566E+01  0.00000000000E+00 0. -1.
</event>
<event>
 5    1  0.3490044E+002  0.1599424E+01  0.7818608E-02  0.3353989E+00
         11   -1    0    0    0    0  0.00000000000E+00  0.00000000000E+00  0.39999999674E+01  0.40000000000E+01  0.51100000000E-03 0. -1.
    9000002   -1    0    0    0    0 -0.00000000000E+00 -0.00000000000E+00  0.00000000000E+00  0.93800000000E+00  0.93800000000E+00 0.  1.
         11    1    1    2    0    0  0.11867255852E-01  0.32047862632E-01  0.63171656744E+00  0.63264048239E+00  0.51100000000E-03 0. -1.
    9000002    1    1    2    0    0 -0.16034836916E+00 -0.18282421060E+00  0.39456123758E-01  0.96981290834E+00  0.93800000000E+00 0.  1.
         22    1    1    2    0    0  0.14848111331E+00  0.15077634796E+00  0.33288272762E+01  0.33355466093E+01  0.00000000000E+00 0. -1.
</event>
<event>
 5    1  0.3490044E+002  0.1597513E+01  0.7818608E-02  0.3356067E+00
         11   -1    0    0    0    0  0.00000000000E+00  0.00000000000E+00  0.39999999674E+01  0.40000000000E+01  0.51100000000E-03 0. -1.
    9000002   -1    0    0    0    0 -0.00000000000E+00 -0.00000000000E+00  0.00000000000E+00  0.93800000000E+00  0.93800000000E+00 0. -1.
         11    1    1    2    0    0 -0.10992151279E-01  0.14196087401E-01  0.19005792027E+00  0.19090476805E+00  0.51100000000E-03 0. -1.
    9000002    1    1    2    0    0 -0.20939419620E+00 -0.58681706978E-01  0.32974825204E-01  0.96344216808E+00  0.93800000000E+00 0. -1.
         22    1    1    2    0    0  0.22038634748E+00  0.44485619578E-01  0.37769672219E+01  0.37836530639E+01  0.00000000000E+00 0. -1.
</event>
<event>
 5    1  0.3490044E+002  0.1599396E+01  0.7818608E-02  0.3354019E+00
         11   -1    0    0    0    0  0.00000000000E+00  0.00000000000E+00  0.39999999674E+01  0.40000000000E+01  0.51100000000E-03 0.  1.
    9000002   -1    0    0    0    0 -0.00000000000E+00 -0.00000000000E+00  0.00000000000E+00  0.93800000000E+00  0.93800000000E+00 0.  1.
         11    1    1    2    0    0  0.37428578139E-01 -0.91939963791E-02  0.42392396671E+00  0.42567266615E+00  0.51100000000E-03 0.  1.
    9000002    1    1    2    0    0 -0.23335108542E+00  0.97566984640E-01  0.42720463323E-01  0.97244078665E+00  0.93800000000E+00 0.  1.
         22    1    1    2    0    0  0.19592250728E+00 -0.88372988261E-01  0.35333555373E+01  0.35398865472E+01  0.00000000000E+00 0.  1.
</event>
<event>
 5    1  0.5644329E+002  0.1535528E+01  0.7818608E-02  0.3426456E+00
         11   -1    0    0    0    0  0.00000000000E+00  0.00000000000E+00  0.39999999674E+01  0.40000000000E+01  0.51100000000E-03 0.  1.
    9000002   -1    0    0    0    0 -0.00000000000E+00 -0.00000000000E+00  0.00000000000E+00  0.93800000000E+00  0.93800000000E+00 0.  1.
         11    1    1    2    0    0  0.43354063680E-01 -0.72969093483E-01  0.61225699952E-01  0.10465615556E+00  0.51100000000E-03 0.  1.
    9000002    1    1    2    0    0  0.10435199540E+00 -0.67770504496E-01  0.58834976442E-01  0.94804416283E+00  0.93800000000E+00 0.  1.
         22    1    1    2    0    0 -0.14770605908E+00  0.14073959798E+00  0.38799392910E+01  0.38852996816E+01  0.00000000000E+00 0.  1.
</event>
<event>
 5    1  0.3490044E+002  0.1599677E+01  0.7818608E-02  0.3353714E+00
         11   -1    0    0    0    0  0.00000000000E+00  0.00000000000E+00  0.39999999674E+01  0.40000000000E+01  0.51100000000E-03 0.  1.
    9000002   -1    0    0    0    0 -0.00000000000E+00 -0.00000000000E+00  0.00000000000E+00  0.93800000000E+00  0.93800000000E+00 0. -1.
         11    1    1    2    0    0 -0.89727260281E-01  0.84778286508E-01  0.10604346900E+01  0.10675955844E+01  0.51100000000E-03 0.  1.
    9000002    1    1    2    0    0  0.32564547055E+00 -0.30900239236E+00  0.13685258086E+00  0.10488565583E+01  0.93800000000E+00 0. -1.
         22    1    1    2    0    0 -0.23591821027E+00  0.22422410585E+00  0.28027126965E+01  0.28215478573E+01  0.00000000000E+00 0.  1.
</event>
<event>
 5    1  0.3490044E+002  0.1549142E+01  0.7818608E-02  0.3410483E+00
         11   -1    0    0    0    0  0.00000000000E+00  0.00000000000E+00  0.39999999674E+01  0.40000000000E+01  0.51100000000E-03 0. -1.
    9000002   -1    0    0    0    0 -0.00000000000E+00 -0.00000000000E+00  0.00000000000E+00  0.93800000000E+00  0.93800000000E+00 0. -1.
         11    1    1    2    0    0  0.25414169306E+00 -0.19920199699E+00  0.17514323344E+01  0.17809505661E+01  0.51100000000E-03 0. -1.
    9000002    1    1    2    0    0 -0.21809819728E+00 -0.43542807011E-01  0.71999801924E-01  0.96669062847E+00  0.93800000000E+00 0. -1.
         22    1    1    2    0    0 -0.36043495778E-01  0.24274480400E+00  0.21765678310E+01  0.21903588054E+01  0.00000000000E+00 0.  1.
</event>
<event>
 5    1  0.3490044E+002  0.1599527E+01  0.7818608E-02  0.3353877E+00
         11   -1    0    0    0    0  0.00000000000E+00  0.00000000000E+00  0.39999999674E+01  0.40000000000E+01  0.51100000000E-03 0.  1.
    9000002   -1    0    0    0    0 -0.00000000000E+00 -0.00000000000E+00  0.00000000000E+00  0.93800000000E+00  0.93800000000E+00 0. -1.
         11    1    1    2    0    0 -0.30698932540E-01 -0.86287734111E-02  0.46677071004E+00  0.46785899271E+00  0.51100000000E-03 0.  1.
    9000002    1    1    2    0    0  0.24930794127E+00 -0.65967034880E-02  0.41430146084E-01  0.97147229661E+00  0.93800000000E+00 0. -1.
         22    1    1    2    0    0 -0.21860900873E+00  0.15225476899E-01  0.34917991112E+01  0.34986687107E+01  0.00000000000E+00 0.  1.
</event>
<event>
 5    1  0.3490044E+002  0.1599671E+01  0.7818608E-02  0.3353720E+00
         11   -1    0    0    0    0  0.00000000000E+00  0.00000000000E+00  0.39999999674E+01  0.40000000000E+01  0.51100000000E-03 0.  1.
    9000002   -1    0    0    0    0 -0.00000000000E+00 -0.00000000000E+00  0.00000000000E+00  0.93800000000E+00  0.93800000000E+00 0. -1.
         11    1    1    2    0    0  0.49054703834E-01 -0.17441340296E+00  0.11590227398E+01  0.11730986198E+01  0.51100000000E-03 0.  1.
    9000002    1    1    2    0    0 -0.16305026771E+00  0.57240134405E+00  0.24689708009E+00  0.11379942252E+01  0.93800000000E+00 0. -1.
         22    1    1    2    0    0  0.11399556388E+00 -0.39798794109E+00  0.25940801474E+01  0.26269071550E+01  0.00000000000E+00 0.  1.
</event>
<event>
 5    1  0.3490044E+002  0.1598896E+01  0.7818608E-02  0.3354562E+00
         11   -1    0    0    0    0  0.00000000000E+00  0.00000000000E+00  0.39999999674E+01  0.40000000000E+01  0.51100000000E-03 0.  1.
    9000002   -1    0    0    0    0 -0.00000000000E+00 -0.00000000000E+00  0.00000000000E+00  0.93800000000E+00  0.93800000000E+00 0.  1.
         11    1    1    2    0    0 -0.13688757059E+00  0.12479649033E-01  0.18592183014E+01  0.18642926009E+01  0.51100000000E-03 0.  1.
    9000002    1    1    2    0    0  0.35572728433E+00 -0.44474706087E-02  0.85546532685E-01  0.10068385621E+01  0.93800000000E+00 0.  1.
         22    1    1    2    0    0 -0.21883971374E+00 -0.80321784238E-02  0.20552351333E+01  0.20668688370E+01  0.00000000000E+00 0. -1.
</event>
<event>
 5    1  0.3490044E+002  0.1599677E+01  0.7818608E-02  0.3353714E+00
         11   -1    0    0    0    0  0.00000000000E+00  0.00000000000E+00  0.39999999674E+01  0.40000000000E+01  0.51100000000E-03 0.  1.
    9000002   -1    0    0    0    0 -0.00000000000E+00 -0.00000000000E+00  0.00000000000E+00  0.93800000000E+00  0.93800000000E+00 0.  1.
         11    1    1    2    0    0  0.62357701681E-01  0.40749813725E-02  0.88540412897E+00  0.88760679422E+00  0.51100000000E-03 0.  1.
    9000002    1    1    2    0    0 -0.27726830179E+00 -0.18029079349E-01  0.51401130615E-01  0.97963709358E+00  0.93800000000E+00 0.  1.
         22    1    1    2    0    0  0.21491060011E+00  0.13954097977E-01  0.30631947078E+01  0.30707561122E+01  0.00000000000E+00 0.  1.
</event>
<event>
 5    1  0.3490044E+002  0.1537937E+01  0.7818608E-02  0.3423608E+00
         11   -1    0    0    0    0  0.00000000000E+00  0.00000000000E+00  0.39999999674E+01  0.40000000000E+01  0.51100000000E-03 0. -1.
    9000002   -1    0    0    0    0 -0.00000000000E+00 -0.00000000000E+00  0.00000000000E+00  0.93800000000E+00  0.93800000000E+00 0. -1.
         11    1    1    2    0    0 -0.14334181848E+00 -0.30444935648E-01  0.98472504846E+00  0.99556890932E+00  0.51100000000E-03 0. -1.
    9000002    1    1    2    0    0 -0.38534406347E+00 -0.25972566732E+00  0.20310615888E+00  0.10663224565E+01  0.93800000000E+00 0. -1.
         22    1    1    2    0    0  0.52868588194E+00  0.29017060297E+00  0.28121687600E+01  0.28761086342E+01  0.00000000000E+00 0. -1.
</event>
<event>
 5    1  0.3490044E+002  0.1599661E+01  0.7818608E-02  0.3353731E+00
         11   -1    0    0    0    0  0.00000000000E+00  0.00000000000E+00  0.39999999674E+01  0.40000000000E+01  0.51100000000E-03 0.  1.
    9000002   -1    0    0    0    0 -0.00000000000E+00 -0.00000000000E+00  0.00000000000E+00  0.93800000000E+00  0.93800000000E+00 0.  1.
         11    1    1    2    0    0  0.14760642303E-01  0.19077586048E-01  0.35280016336E+00  0.35362416099E+00  0.51100000000E-03 0.  1.
    9000002    1    1    2    0    0 -0.14514067094E+00 -0.19179227871E+00  0.38414080187E-01  0.96910769994E+00  0.93800000000E+00 0.  1.
         22    1    1    2    0    0  0.13038002864E+00  0.17271469266E+00  0.36087857238E+01  0.36152681391E+01  0.00000000000E+00 0.  1.
</event>
<event>
 5    1  0.3490044E+002  0.1599676E+01  0.7818608E-02  0.3353715E+00
         11   -1    0    0    0    0  0.00000000000E+00  0.00000000000E+00  0.39999999674E+01  0.40000000000E+01  0.51100000000E-03 0. -1.
    9000002   -1    0    0    0    0 -0.00000000000E+00 -0.00000000000E+00  0.00000000000E+00  0.93800000000E+00  0.93800000000E+00 0.  1.
         11    1    1    2    0    0  0.15024463654E-01  0.80756969985E-02  0.25636719484E+00  0.25693452688E+00  0.51100000000E-03 0.  1.
    9000002    1    1    2    0    0 -0.22773489131E+00 -0.12562998326E+00  0.44972692001E-01  0.97442937991E+00  0.93800000000E+00 0.  1.
         22    1    1    2    0    0  0.21271042766E+00  0.11755428626E+00  0.36986600805E+01  0.37066360932E+01  0.00000000000E+00 0. -1.
</event>
<event>
 5    1  0.3490044E+002  0.1588960E+01  0.7818608E-02  0.3365434E+00
         11   -1    0    0    0    0  0.00000000000E+00  0.00000000000E+00  0.39999999674E+01  0.40000000000E+01  0.51100000000E-03 0.  1.
    9000002   -1    0    0    0    0 -0.00000000000E+00 -0.00000000000E+00  0.00000000000E+00  0.93800000000E+00  0.93800000000E+00 0. -1.
         11    1    1    2    0    0  0.48256824763E-01 -0.37482935644E-01  0.25769744853E+00  0.26484321343E+00  0.51100000000E-03 0.  1.
    9000002    1    1    2    0    0 -0.13862060995E+00 -0.15668266495E+00  0.37091298349E-01  0.96176135055E+00  0.93800000000E+00 0. -1.
         22    1    1    2    0    0  0.90363785186E-01  0.19416560059E+00  0.37052112205E+01  0.37113954360E+01  0.00000000000E+00 0.  1.
</event>
<event>
 5    1  0.3490044E+002  0.1599672E+01  0.7818608E-02  0.3353719E+00
         11   -1    0    0    0    0  0.00000000000E+00  0.00000000000E+00  0.39999999674E+01  0.40000000000E+01  0.51100000000E-03 0.  1.
    9000002   -1    0    0    0    0 -0.00000000000E+00 -0.00000000000E+00  0.00000000000E+00  0.93800000000E+00  0.93800000000E+00 0.  1.
         11    1    1    2    0    0 -0.19948129098E+00  0.28444913933E-01  0.18340674532E+01  0.18451031361E+01  0.51100000000E-03 0.  1.
    9000002    1    1    2    0    0  0.41642130602E+00 -0.59459943909E-01  0.11968140341E+00  0.10349443595E+01  0.93800000000E+00 0.  1.
         22    1    1    2    0    0 -0.21694001504E+00  0.31015029976E-01  0.20462511107E+01  0.20579525044E+01  0.00000000000E+00 0.  1.
</event>
<event>
 5    1  0.3490044E+002  0.1599676E+01  0.7818608E-02  0.3353716E+00
         11   -1    0    0    0    0  0.00000000000E+00  0.00000000000E+00  0.39999999674E+01  0.40000000000E+01  0.51100000000E-03 0.  1.
    9000002   -1    0    0    0    0 -0.00000000000E+00 -0.00000000000E+00  0.00000000000E+00  0.93800000000E+00  0.93800000000E+00 0. -1.
         11    1    1    2    0    0  0.32458417384E+00  0.14986962469E+00  0.17552067307E+01  0.17912472523E+01  0.51100000000E-03 0.  1.
    9000002    1    1    2    0    0 -0.66661940988E+00 -0.30564340209E+00  0.38795301394E+00  0.12522583072E+01  0.93800000000E+00 0. -1.
         22    1    1    2    0    0  0.34203523604E+00  0.15577377739E+00  0.18568402227E+01  0.18944944405E+01  0.00000000000E+00 0.  1.
</event>
<event>
 5    1  0.3490044E+002  0.1597309E+01  0.7818608E-02  0.3356289E+00
         11   -1    0    0    0    0  0.00000000000E+00  0.00000000000E+00  0.39999999674E+01  0.40000000000E+01  0.51100000000E-03 0.  1.
    9000002   -1    0    0    0    0 -0.00000000000E+00 -0.00000000000E+00  0.00000000000E+00  0.93800000000E+00  0.93800000000E+00 0.  1.
         11    1    1    2    0    0  0.82254096056E-01 -0.11386687303E+00  0.39928452748E+00  0.42327272071E+00  0.51100000000E-03 0.  1.
    9000002    1    1    2    0    0 -0.62946309675E+00  0.64000985725E+00  0.61983720419E+00  0.14387072556E+01  0.93800000000E+00 0.  1.
         22    1    1    2    0    0  0.54720900070E+00 -0.52614298422E+00  0.29808782357E+01  0.30760200237E+01  0.00000000000E+00 0.  1.
</event>
<event>
 5    1  0.3490044E+002  0.1595368E+01  0.7818608E-02  0.3358406E+00
         11   -1    0    0    0    0  0.00000000000E+00  0.00000000000E+00  0.39999999674E+01  0.40000000000E+01  0.51100000000E-03 0. -1.
    9000002   -1    0    0    0    0 -0.00000000000E+00 -0.00000000000E+00  0.00000000000E+00  0.93800000000E+00  0.93800000000E+00 0.  1.
         11    1    1    2    0    0  0.10421475596E+00  0.26554303944E-01  0.48181484140E+00  0.49367160029E+00  0.51100000000E-03 0. -1.
    9000002    1    1    2    0    0 -0.41189807861E+00 -0.18724807310E+00  0.14283263224E+00  0.10511741192E+01  0.93800000000E+00 0.  1.
         22    1    1    2    0    0  0.30768332265E+00  0.16069376916E+00  0.33753524937E+01  0.33931542805E+01  0.00000000000E+00 0. -1.
</event>
<event>
 5    1  0.3490044E+002  0.1547935E+01  0.7818608E-02  0.3411887E+00
         11   -1    0    0    0    0  0.00000000000E+00  0.00000000000E+00  0.39999999674E+01  0.40000000000E+01  0.51100000000E-03 0.  1.
    9000002   -1    0    0    0    0 -0.00000000000E+00 -0.00000000000E+00  0.00000000000E+00  0.93800000000E+00  0.93800000000E+00 0.  1.
         11    1    1    2    0    0 -0.27455271335E-01 -0.12280303461E+00  0.25219495622E+00  0.28184558591E+00  0.51100000000E-03 0.  1.
    9000002    1    1    2    0    0 -0.11625298534E+00 -0.14636223925E+00  0.62759983594E-01  0.95849855358E+00  0.93800000000E+00 0.  1.
         22    1    1    2    0    0  0.14370825668E+00  0.26916527386E+00  0.36850450275E+01  0.36976558605E+01  0.00000000000E+00 0.  1.
</event>
<event>
 5    1  0.3490044E+002  0.1599667E+01  0.7818608E-02  0.3353724E+00
         11   -1    0    0    0    0  0.00000000000E+00  0.00000000000E+00  0.39999999674E+01  0.40000000000E+01  0.51100000000E-03 0. -1.
    9000002   -1    0    0    0    0 -0.00000000000E+00 -0.00000000000E+00  0.00000000000E+00  0.93800000000E+00  0.93800000000E+00 0. -1.
         11    1    1    2    0    0  0.74682188481E-01 -0.14302226578E+00  0.12155432276E+01  0.12262048756E+01  0.51100000000E-03 0. -1.
    9000002    1    1    2    0    0 -0.24554871588E+00  0.44842069819E+00  0.17927774401E+00  0.10832173392E+01  0.93800000000E+00 0. -1.
         22    1    1    2    0    0  0.17086652740E+00 -0.30539843242E+00  0.26051789958E+01  0.26285777852E+01  0.00000000000E+00 0. -1.
</event>
<event>
 5    1  0.3490044E+002  0.1599123E+01  0.7818608E-02  0.3354315E+00
         11   -1    0    0    0    0  0.00000000000E+00  0.00000000000E+00  0.39999999674E+01  0.40000000000E+01  0.51100000000E-03 0.  1.
    9000002   -1    0    0    0    0 -0.00000000000E+00 -0.00000000000E+00  0.00000000000E+00  0.93800000000E+00  0.93800000000E+00 0. -1.
         11    1    1    2    0    0  0.40353118917E-01  0.58942857195E-01  0.10259364394E+01  0.10284203778E+01  0.51100000000E-03 0.  1.
    9000002    1    1    2    0    0 -0.22701721577E+00 -0.28558046715E+00  0.89839645357E-01  0.10104494947E+01  0.93800000000E+00 0. -1.
         22    1    1    2    0    0  0.18666409685E+00  0.22663760995E+00  0.28842238826E+01  0.28991301275E+01  0.00000000000E+00 0.  1.
</event>
<event>
 5    1  0.3490044E+002  0.1598455E+01  0.7818608E-02  0.3355042E+00
         11   -1    0    0    0    0  0.00000000000E+00  0.00000000000E+00  0.39999999674E+01  0.40000000000E+01  0.51100000000E-03 0.  1.
    9000002   -1    0    0    0    0 -0.00000000000E+00 -0.00000000000E+00  0.00000000000E+00  0.93800000000E+00  0.93800000000E+00 0.  1.
         11    1    1    2    0    0  0.90337351863E-01 -0.10508817462E+00  0.11174566889E+01  0.11260169067E+01  0.51100000000E-03 0.  1.
    9000002    1    1    2    0    0 -0.19469949218E+00  0.31180779854E+00  0.91783668384E-01  0.10116324616E+01  0.93800000000E+00 0.  1.
         22    1    1    2    0    0  0.10436214031E+00 -0.20671962392E+00  0.27907596101E+01  0.28003506317E+01  0.00000000000E+00 0.  1.
</event>
<event>
 5    1  0.3490044E+002  0.1599673E+01  0.7818608E-02  0.3353718E+00
         11   -1    0    0    0    0  0.00000000000E+00  0.00000000000E+00  0.39999999674E+01  0.40000000000E+01  0.51100000000E-03 0.  1.
    9000002   -1    0    0    0    0 -0.00000000000E+00 -0.00000000000E+00  0.00000000000E+00  0.93800000000E+00  0.93800000000E+00 0. -1.
         11    1    1    2    0    0  0.20909454204E-01  0.11741140574E-01  0.29430150170E+00  0.29527731826E+00  0.51100000000E-03 0.  1.
    9000002    1    1    2    0    0 -0.26608573137E+00 -0.14943513614E+00  0.62163072499E-01  0.98835253019E+00  0.93800000000E+00 0. -1.
         22    1    1    2    0    0  0.24517627716E+00  0.13769399556E+00  0.36435353932E+01  0.36543701516E+01  0.00000000000E+00 0.  1.
</event>
<event>
 5    1  0.3490044E+002  0.1593357E+01  0.7818608E-02  0.3360606E+00
         11   -1    0    0    0    0  0.00000000000E+00  0.00000000000E+00  0.39999999674E+01  0.40000000000E+01  0.51100000000E-03 0. -1.
    9000002   -1    0    0    0    0 -0.00000000000E+00 -0.00000000000E+00  0.00000000000E+00  0.93800000000E+00  0.93800000000E+00 0.  1.
         11    1    1    2    0    0  0.13774067473E+00  0.48491462505E+00  0.24810029575E+01  0.25316971824E+01  0.51100000000E-03 0. -1.
    9000002    1    1    2    0    0 -0.31159667253E+00 -0.63994328669E+00  0.37046248341E+00  0.12343850081E+01  0.93800000000E+00 0.  1.
         22    1    1    2    0    0  0.17385599780E+00  0.15502866163E+00  0.11485345264E+01  0.11719178095E+01  0.00000000000E+00 0. -1.
</event>
<event>
 5    1  0.3490044E+002  0.1594984E+01  0.7818608E-02  0.3358825E+00
         11   -1    0    0    0    0  0.00000000000E+00  0.00000000000E+00  0.39999999674E+01  0.40000000000E+01  0.51100000000E-03 0. -1.
    9000002   -1    0    0    0    0 -0.00000000000E+00 -0.00000000000E+00  0.00000000000E+00  0.93800000000E+00  0.93800000000E+00 0. -1.
         11    1    1    2    0    0  0.14346436162E+00  0.77010650333E-01  0.17024026496E+01  0.17101718352E+01  0.51100000000E-03 0. -1.
    9000002    1    1    2    0    0 -0.20574928061E+00 -0.31779262795E+00  0.10027588757E+00  0.10164763521E+01  0.93800000000E+00 0. -1.
         22    1    1    2    0    0  0.62284918987E-01  0.24078197762E+00  0.21973214302E+01  0.22113518127E+01  0.00000000000E+00 0. -1.
</event>
<event>
 5    1  0.3490044E+002  0.1599421E+01  0.7818608E-02  0.3353992E+00
         11   -1    0    0    0    0  0.00000000000E+00  0.00000000000E+00  0.39999999674E+01  0.40000000000E+01  0.51100000000E-03 0. -1.
    9000002   -1    0    0    0    0 -0.00000000000E+00 -0.00000000000E+00  0.00000000000E+00  0.93800000000E+00  0.93800000000E+00 0.  1.
         11    1    1    2    0    0 -0.21376290185E-02  0.25085770577E-01  0.26575480588E+00  0.26694520657E+00  0.51100000000E-03 0. -1.
    9000002    1    1    2    0    0  0.16484727795E-01 -0.23106782298E+00  0.35794758738E-01  0.96684504954E+00  0.93800000000E+00 0.  1.
         22    1    1    2    0    0 -0.14347098777E-01  0.20598205241E+00  0.36984504027E+01  0.37042097439E+01  0.00000000000E+00 0. -1.
</event>
<event>
 5    1  0.3490044E+002  0.1599661E+01  0.7818608E-02  0.3353731E+00
         11   -1    0    0    0    0  0.00000000000E+00  0.00000000000E+00  0.39999999674E+01  0.40000000000E+01  0.51100000000E-03 0.  1.
    9000002   -1    0    0    0    0 -0.00000000000E+00 -0.00000000000E+00  0.00000000000E+00  0.93800000000E+00  0.93800000000E+00 0.  1.
         11    1    1    2    0    0  0.74902984853E-01 -0.44373544185E-01  0.87441288913E+00  0.87873638274E+00  0.51100000000E-03 0.  1.
    9000002    1    1    2    0    0 -0.33070610889E+00  0.18065796203E+00  0.95522519449E-01  0.10153681014E+01  0.93800000000E+00 0.  1.
         22    1    1    2    0    0  0.25580312403E+00 -0.13628441784E+00  0.30300645588E+01  0.30438955158E+01  0.00000000000E+00 0.  1.
</event>
<event>
 5    1  0.3490044E+002  0.1599670E+01  0.7818608E-02  0.3353722E+00
         11   -1    0    0    0    0  0.00000000000E+00  0.00000000000E+00  0.39999999674E+01  0.40000000000E+01  0.51100000000E-03 0.  1.
    9000002   -1    0    0    0    0 -0.00000000000E+00 -0.00000000000E+00  0.00000000000E+00  0.93800000000E+00  0.93800000000E+00 0. -1.
         11    1    1    2    0    0  0.15632858796E+00  0.16993470835E+00  0.18202302533E+01  0.18348173938E+01  0.51100000000E-03 0.  1.
    9000002    1    1    2    0    0 -0.32354598630E+00 -0.35596541655E+00  0.15791667937E+00  0.10659151283E+01  0.93800000000E+00 0. -1.
         22    1    1    2    0    0  0.16721739834E+00  0.18603070820E+00  0.20218530347E+01  0.20372674779E+01  0.00000000000E+00 0.  1.
</event>
<event>
 5    1  0.3490044E+002  0.1599117E+01  0.7818608E-02  0.3354322E+00
         11   -1    0    0    0    0  0.00000000000E+00  0.00000000000E+00  0.39999999674E+01  0.40000000000E+01  0.51100000000E-03 0. -1.
    9000002   -1    0    0    0    0 -0.00000000000E+00 -0.00000000000E+00  0.00000000000E+00  0.93800000000E+00  0.93800000000E+00 0.  1.
         11    1    1    2    0    0  0.22864437488E-02  0.31191441559E-02  0.91502472126E-01  0.91585590632E-01  0.51100000000E-03 0. -1.
    9000002    1    1    2    0    0  0.17159114451E-01  0.21604807590E+00  0.31550984412E-01  0.96322929302E+00  0.93800000000E+00 0.  1.
         22    1    1    2    0    0 -0.19445558199E-01 -0.21916722005E+00  0.38769465108E+01  0.38831851164E+01  0.00000000000E+00 0. -1.
</event>
<event>
 5    1  0.3490044E+002  0.1599677E+01  0.7818608E-02  0.3353714E+00
         11   -1    0    0    0    0  0.00000000000E+00  0.00000000000E+00  0.39999999674E+01  0.40000000000E+01  0.51100000000E-03 0.  1.
    9000002   -1    0    0    0    0 -0.00000000000E+00 -0.00000000000E+00  0.00000000000E+00  0.93800000000E+00  0.93800000000E+00 0.  1.
         11    1    1    2    0    0 -0.12110666315E+00 -0.70246915444E-01  0.15089893630E+01  0.15154704259E+01  0.51100000000E-03 0.  1.
    9000002    1    1    2    0    0  0.31291730982E+00  0.18231145998E+00  0.88060933752E-01  0.10093331656E+01  0.93800000000E+00 0.  1.
         22    1    1    2    0    0 -0.19181064667E+00 -0.11206454454E+00  0.24029496706E+01  0.24131964084E+01  0.00000000000E+00 0.  1.
</event>
<event>
 5    1  0.3490044E+002  0.1599677E+01  0.7818608E-02  0.3353714E+00
         11   -1    0    0    0    0  0.00000000000E+00  0.00000000000E+00  0.39999999674E+01  0.40000000000E+01  0.51100000000E-03 0. -1.
    9000002   -1    0    0    0    0 -0.00000000000E+00 -0.00000000000E+00  0.00000000000E+00  0.93800000000E+00  0.93800000000E+00 0. -1.
         11    1    1    2    0    0 -0.24187628236E-01 -0.21231286321E+00  0.18281494326E+01  0.18405956651E+01  0.51100000000E-03 0. -1.
    9000002    1    1    2    0    0  0.51979386065E-01  0.44850121542E+00  0.13848607652E+00  0.10501797895E+01  0.93800000000E+00 0. -1.
         22    1    1    2    0    0 -0.27791757828E-01 -0.23618835221E+00  0.20333644582E+01  0.20472245454E+01  0.00000000000E+00 0. -1.
</event>
<event>
 5    1  0.3490044E+002  0.1597964E+01  0.7818608E-02  0.3355576E+00
         11   -1    0    0    0    0  0.00000000000E+00  0.00000000000E+00  0.39999999674E+01  0.40000000000E+01  0.51100000000E-03 0.  1.
    9000002   -1    0    0    0    0 -0.00000000000E+00 -0.00000000000E+00  0.00000000000E+00  0.93800000000E+00  0.93800000000E+00 0.  1.
         11    1    1    2    0    0 -0.71598826655E-01  0.47539297407E+00  0.18294853561E+01  0.18915976848E+01  0.51100000000E-03 0.  1.
    9000002    1    1    2    0    0  0.42296654942E-01 -0.89661667275E+00  0.61871044287E+00  0.14381783884E+01  0.93800000000E+00 0.  1.
         22    1    1    2    0    0  0.29302171713E-01  0.42122369869E+00  0.15518041684E+01  0.16082239268E+01  0.00000000000E+00 0.  1.
</event>
<event>
 5    1  0.3490044E+002  0.1591748E+01  0.7818608E-02  0.3362369E+00
         11   -1    0    0    0    0  0.00000000000E+00  0.00000000000E+00  0.39999999674E+01  0.40000000000E+01  0.51100000000E-03 0.  1.
    9000002   -1    0    0    0    0 -0.00000000000E+00 -0.00000000000E+00  0.00000000000E+00  0.93800000000E+00  0.93800000000E+00 0.  1.
         11    1    1    2    0    0 -0.23347942299E-01  0.44316892568E-01  0.67208695582E+00  0.67395122278E+00  0.51100000000E-03 0.  1.
    9000002    1    1    2    0    0 -0.82043367865E-01  0.15884008929E+00  0.27057266777E-01  0.95526822613E+00  0.93800000000E+00 0.  1.
         22    1    1    2    0    0  0.10539131016E+00 -0.20315698186E+00  0.33008557448E+01  0.33087805511E+01  0.00000000000E+00 0.  1.
</event>
<event>
 5    1  0.3490044E+002  0.1599662E+01  0.7818608E-02  0.3353730E+00
         11   -1    0    0    0    0  0.00000000000E+00  0.00000000000E+00  0.39999999674E+01  0.40000000000E+01  0.51100000000E-03 0. -1.
    9000002   -1    0    0    0    0 -0.00000000000E+00 -0.00000000000E+00  0.00000000000E+00  0.93800000000E+00  0.93800000000E+00 0.  1.
         11    1    1    2    0    0 -0.55477231976E+00 -0.53259975846E+00  0.25444611381E+01  0.26581417520E+01  0.51100000000E-03 0. -1.
    9000002    1    1    2    0    0  0.70416898235E+00  0.67525247323E+00  0.75550601499E+00  0.15499849022E+01  0.93800000000E+00 0.  1.
         22    1    1    2    0    0 -0.14939666259E+00 -0.14265271478E+00  0.70003281429E+00  0.72987334580E+00  0.00000000000E+00 0. -1.
</event>
<event>
 5    1  0.3490044E+002  0.1599671E+01  0.7818608E-02  0.3353721E+00
         11   -1    0    0    0    0  0.00000000000E+00  0.00000000000E+00  0.39999999674E+01  0.40000000000E+01  0.51100000000E-03 0.  1.
    9000002   -1    0    0    0    0 -0.00000000000E+00 -0.00000000000E+00  0.00000000000E+00  0.93800000000E+00  0.93800000000E+00 0. -1.
         11    1    1    2    0    0 -0.47646100648E-03  0.85984301390E-02  0.66945707581E-01  0.67499251111E-01  0.51100000000E-03 0.  1.
    9000002    1    1    2    0    0  0.61777388580E-01 -0.49863729469E+00  0.17289698971E+00  0.10780505398E+01  0.93800000000E+00 0. -1.
         22    1    1    2    0    0 -0.61300927574E-01  0.49003886455E+00  0.37601572701E+01  0.37924502090E+01  0.00000000000E+00 0.  1.
</event>
<event>
 5    1  0.3490044E+002  0.1599148E+01  0.7818608E-02  0.3354289E+00
         11   -1    0    0    0    0  0.00000000000E+00  0.00000000000E+00  0.39999999674E+01  0.40000000000E+01  0.51100000000E-03 0. -1.
    9000002   -1    0    0    0    0 -0.00000000000E+00 -0.00000000000E+00  0.00000000000E+00  0.93800000000E+00  0.93800000000E+00 0. -1.
         11    1    1    2    0    0  0.73875688965E-02  0.52487253270E-01  0.10428027038E+01  0.10441490450E+01  0.51100000000E-03 0. -1.
    9000002    1    1    2    0    0 -0.88455744302E-01 -0.26864308871E+00  0.53692805773E-01  0.98118318636E+00  0.93800000000E+00 0. -1.
         22    1    1    2    0    0  0.81068175405E-01  0.21615583544E+00  0.29035044578E+01  0.29126677687E+01  0.00000000000E+00 0. -1.
</event>
<event>
 5    1  0.3490044E+002  0.1599665E+01  0.7818608E-02  0.3353727E+00
         11   -1    0    0    0    0  0.00000000000E+00  0.00000000000E+00  0.39999999674E+01  0.40000000000E+01  0.51100000000E-03 0.  1.
    9000002   -1    0    0    0    0 -0.00000000000E+00 -0.00000000000E+00  0.00000000000E+00  0.93800000000E+00  0.93800000000E+00 0.  1.
         11    1    1    2    0    0  0.84232642055E-01 -0.73765115192E-01  0.97104077433E+00  0.97747474481E+00  0.51100000000E-03 0.  1.
    9000002    1    1    2    0    0 -0.33139850537E+00  0.28065867291E+00  0.12780964260E+00  0.10415246347E+01  0.93800000000E+00 0.  1.
         22    1    1    2    0    0  0.24716586332E+00 -0.20689355771E+00  0.29011495504E+01  0.29190006204E+01  0.00000000000E+00 0.  1.
</event>
<event>
 5    1  0.3490044E+002  0.1599567E+01  0.7818608E-02  0.3353834E+00
         11   -1    0    0    0    0  0.00000000000E+00  0.00000000000E+00  0.39999999674E+01  0.40000000000E+01  0.51100000000E-03 0. -1.
    9000002   -1    0    0    0    0 -0.00000000000E+00 -0.00000000000E+00  0.00000000000E+00  0.93800000000E+00  0.93800000000E+00 0.  1.
         11    1    1    2    0    0 -0.21493793848E-01  0.10499547951E+00  0.99696039168E+00  0.10027045016E+01  0.51100000000E-03 0. -1.
    9000002    1    1    2    0    0  0.12549139842E+00 -0.39867421176E+00  0.11820351978E+00  0.10336852956E+01  0.93800000000E+00 0.  1.
         22    1    1    2    0    0 -0.10399760457E+00  0.29367873225E+00  0.28848360559E+01  0.29016102028E+01  0.00000000000E+00 0. -1.
</event>
<event>
 5    1  0.3490044E+002  0.1545551E+01  0.7818608E-02  0.3414668E+00
         11   -1    0    0    0    0  0.00000000000E+00  0.00000000000E+00  0.39999999674E+01  0.40000000000E+01  0.51100000000E-03 0. -1.
    9000002   -1    0    0    0    0 -0.00000000000E+00 -0.00000000000E+00  0.00000000000E+00  0.93800000000E+00  0.93800000000E+00 0.  1.
         11    1    1    2    0    0 -0.10856422972E+00 -0.24978261173E+00  0.10911975023E+01  0.11246731949E+01  0.51100000000E-03 0. -1.
    9000002    1    1    2    0    0  0.10241931883E+00  0.42214394375E-01  0.48782277993E-01  0.94577771311E+00  0.93800000000E+00 0.  1.
         22    1    1    2    0    0  0.61449108921E-02  0.20756821735E+00  0.28600201870E+01  0.28675490920E+01  0.00000000000E+00 0. -1.
</event>
<event>
 5    1  0.3490044E+002  0.1486970E+01  0.7818608E-02  0.3485987E+00
         11   -1    0    0    0    0  0.00000000000E+00  0.00000000000E+00  0.39999999674E+01  0.40000000000E+01  0.51100000000E-03 0. -1.
    9000002   -1    0    0    0    0 -0.00000000000E+00 -0.00000000000E+00  0.00000000000E+00  0.93800000000E+00  0.93800000000E+00 0. -1.
         11    1    1    2    0    0  0.81001812766E-01  0.11947763629E+00  0.87068334575E-01  0.16857447983E+00  0.51100000000E-03 0. -1.
    9000002    1    1    2    0    0 -0.19731961582E+00  0.93768148041E-01  0.12209379894E+00  0.97081326325E+00  0.93800000000E+00 0. -1.
         22    1    1    2    0    0  0.11631780305E+00 -0.21324578433E+00  0.37908378338E+01  0.37986122569E+01  0.00000000000E+00 0. -1.
</event>
<event>
 5    1  0.3490044E+002  0.1599383E+01  0.7818608E-02  0.3354033E+00
         11   -1    0    0    0    0  0.00000000000E+00  0.00000000000E+00  0.39999999674E+01  0.40000000000E+01  0.51100000000E-03 0. -1.
    9000002   -1    0    0    0    0 -0.00000000000E+00 -0.00000000000E+00  0.00000000000E+00  0.93800000000E+00  0.93800000000E+00 0. -1.
         11    1    1    2    0    0  0.94582639612E-02 -0.16388655862E-01  0.55230263393E+00  0.55262691517E+00  0.51100000000E-03 0. -1.
    9000002    1    1    2    0    0 -0.72699967596E-01  0.22017003085E+00  0.35887781496E-01  0.96689816456E+00  0.93800000000E+00 0. -1.
         22    1    1    2    0    0  0.63241703635E-01 -0.20378137498E+00  0.34118095519E+01  0.34184749203E+01  0.00000000000E+00 0. -1.
</event>
<event>
 5    1  0.3490044E+002  0.1599657E+01  0.7818608E-02  0.3353736E+00
         11   -1    0    0    0    0  0.00000000000E+00  0.00000000000E+00  0.39999999674E+01  0.40000000000E+01  0.51100000000E-03 0.  1.
    9000002   -1    0    0    0    0 -0.00000000000E+00 -0.00000000000E+00  0.00000000000E+00  0.93800000000E+00  0.93800000000E+00 0. -1.
         11    1    1    2    0    0  0.13821461662E+00 -0.18454987763E+00  0.14220465440E+01  0.14406174274E+01  0.51100000000E-03 0.  1.
    9000002    1    1    2    0    0 -0.36985611066E+00  0.49636935129E+00  0.26847525325E+00  0.11554648576E+01  0.93800000000E+00 0. -1.
         22    1    1    2    0    0  0.23164149405E+00 -0.31181947367E+00  0.23094781701E+01  0.23419177150E+01  0.00000000000E+00 0.  1.
</event>
<event>
 5    1  0.3490044E+002  0.1599677E+01  0.7818608E-02  0.3353714E+00
         11   -1    0    0    0    0  0.00000000000E+00  0.00000000000E+00  0.39999999674E+01  0.40000000000E+01  0.51100000000E-03 0. -1.
    9000002   -1    0    0    0    0 -0.00000000000E+00 -0.00000000000E+00  0.00000000000E+00  0.93800000000E+00  0.93800000000E+00 0. -1.
         11    1    1    2    0    0  0.12325629262E+00  0.22687497450E-01  0.10256979288E+01  0.10333263466E+01  0.51100000000E-03 0. -1.
    9000002    1    1    2    0    0 -0.46091268710E+00 -0.84280691188E-01  0.14952973264E+00  0.10591255265E+01  0.93800000000E+00 0. -1.
         22    1    1    2    0    0  0.33765639448E+00  0.61593193738E-01  0.28247723059E+01  0.28455481269E+01  0.00000000000E+00 0. -1.
</event>
<event>
 5    1  0.3490044E+002  0.1568993E+01  0.7818608E-02  0.3387721E+00
         11   -1    0    0    0    0  0.00000000000E+00  0.00000000000E+00  0.39999999674E+01  0.40000000000E+01  0.51100000000E-03 0.  1.
    9000002   -1    0    0    0    0 -0.00000000000E+00 -0.00000000000E+00  0.00000000000E+00  0.93800000000E+00  0.93800000000E+00 0. -1.
         11    1    1    2    0    0 -0.89417206261E-01 -0.69191890372E-01  0.27194259249E+00  0.29450974382E+00  0.51100000000E-03 0.  1.
    9000002    1    1    2    0    0 -0.64029205323E-01  0.20611297826E+00  0.54363266804E-01  0.96404443037E+00  0.93800000000E+00 0. -1.
         22    1    1    2    0    0  0.15344641158E+00 -0.13692108789E+00  0.36736941081E+01  0.36794458258E+01  0.00000000000E+00 0.  1.
</event>
<event>
 5    1  0.3490044E+002  0.1599640E+01  0.7818608E-02  0.3353754E+00
         11   -1    0    0    0    0  0.00000000000E+00  0.00000000000E+00  0.39999999674E+01  0.40000000000E+01  0.51100000000E-03 0. -1.
    9000002   -1    0    0    0    0 -0.00000000000E+00 -0.00000000000E+00  0.00000000000E+00  0.93800000000E+00  0.93800000000E+00 0. -1.
         11    1    1    2    0    0  0.26620329029E-01  0.65751100742E-01  0.71267293439E+00  0.71619468142E+00  0.51100000000E-03 0. -1.
    9000002    1    1    2    0    0 -0.17117658333E+00 -0.37531871807E+00  0.11499918537E+00  0.10311325693E+01  0.93800000000E+00 0. -1.
         22    1    1    2    0    0  0.14455625430E+00  0.30956761733E+00  0.31723278476E+01  0.31906727493E+01  0.00000000000E+00 0. -1.
</event>
<event>
 5    1  0.3490044E+002  0.1591759E+01  0.7818608E-02  0.3362357E+00
         11   -1    0    0    0    0  0.00000000000E+00  0.00000000000E+00  0.39999999674E+01  0.40000000000E+01  0.51100000000E-03 0. -1.
    9000002   -1    0    0    0    0 -0.00000000000E+00 -0.00000000000E+00  0.00000000000E+00  0.93800000000E+00  0.93800000000E+00 0.  1.
         11    1    1    2    0    0  0.95775340852E-02  0.58055792212E-01  0.47950236420E+00  0.48309935062E+00  0.51100000000E-03 0. -1.
    9000002    1    1    2    0    0  0.17219306589E+00  0.39723076671E-01  0.26558629072E-01  0.95487053339E+00  0.93800000000E+00 0.  1.
         22    1    1    2    0    0 -0.18177059998E+00 -0.97778868883E-01  0.34939389741E+01  0.35000301160E+01  0.00000000000E+00 0. -1.
</event>
<event>
 5    1  0.3490044E+002  0.1598812E+01  0.7818608E-02  0.3354653E+00
         11   -1    0    0    0    0  0.00000000000E+00  0.00000000000E+00  0.39999999674E+01  0.40000000000E+01  0.51100000000E-03 0. -1.
    9000002   -1    0    0    0    0 -0.00000000000E+00 -0.00000000000E+00  0.00000000000E+00  0.93800000000E+00  0.93800000000E+00 0.  1.
         11    1    1    2    0    0  0.70383973974E+00 -0.11282238996E+00  0.19486939120E+01  0.20749765046E+01  0.51100000000E-03 0. -1.
    9000002    1    1    2    0    0 -0.10800565293E+01  0.22012859650E+00  0.10502968988E+01  0.17882802580E+01  0.93800000000E+00 0.  1.
         22    1    1    2    0    0  0.37621678960E+00 -0.10730620654E+00  0.10010091566E+01  0.10747432374E+01  0.00000000000E+00 0. -1.
</event>
<event>
 5    1  0.3490044E+002  0.1599675E+01  0.7818608E-02  0.3353716E+00
         11   -1    0    0    0    0  0.00000000000E+00  0.00000000000E+00  0.39999999674E+01  0.40000000000E+01  0.51100000000E-03 0.  1.
    9000002   -1    0    0    0    0 -0.00000000000E+00 -0.00000000000E+00  0.00000000000E+00  0.93800000000E+00  0.93800000000E+00 0.  1.
         11    1    1    2    0    0  0.65908765771E-02  0.97042435876E-01  0.11379005538E+01  0.11420501764E+01  0.51100000000E-03 0.  1.
    9000002    1    1    2    0    0 -0.24316454833E-01 -0.33001887877E+00  0.73275152110E-01  0.99735500111E+00  0.93800000000E+00 0.  1.
         22    1    1    2    0    0  0.17725578256E-01  0.23297644290E+00  0.27888242614E+01  0.27985948225E+01  0.00000000000E+00 0.  1.
</event>
<event>
 5    1  0.3490044E+002  0.1599669E+01  0.7818608E-02  0.3353723E+00
         11   -1    0    0    0    0  0.00000000000E+00  0.00000000000E+00  0.39999999674E+01  0.40000000000E+01  0.51100000000E-03 0. -1.
    9000002   -1    0    0    0    0 -0.00000000000E+00 -0.00000000000E+00  0.00000000000E+00  0.93800000000E+00  0.93800000000E+00 0. -1.
         11    1    1    2    0    0  0.53718010796E-01 -0.22917769802E-01  0.45527602533E+00  0.45900693810E+00  0.51100000000E-03 0. -1.
    9000002    1    1    2    0    0 -0.46801845381E+00  0.18422672283E+00  0.17327367793E+00  0.10783545456E+01  0.93800000000E+00 0. -1.
         22    1    1    2    0    0  0.41430044301E+00 -0.16130895303E+00  0.33714502641E+01  0.34006385163E+01  0.00000000000E+00 0. -1.
</event>
<event>
 5    1  0.3490044E+002  0.1549165E+01  0.7818608E-02  0.3410456E+00
         11   -1    0    0    0    0  0.00000000000E+00  0.00000000000E+00  0.39999999674E+01  0.40000000000E+01  0.51100000000E-03 0.  1.
    9000002   -1    0    0    0    0 -0.00000000000E+00 -0.00000000000E+00  0.00000000000E+00  0.93800000000E+00  0.93800000000E+00 0. -1.
         11    1    1    2    0    0 -0.22992463400E+00  0.24203055057E+00  0.22337980075E+01  0.22586053051E+01  0.51100000000E-03 0.  1.
    9000002    1    1    2    0    0  0.60513995876E-01 -0.10397236741E+00  0.47522151390E-01  0.94687620720E+00  0.93800000000E+00 0. -1.
         22    1    1    2    0    0  0.16941063812E+00 -0.13805818316E+00  0.17186798084E+01  0.17325184877E+01  0.00000000000E+00 0.  1.
</event>
<event>
 5    1  0.3490044E+002  0.1599662E+01  0.7818608E-02  0.3353730E+00
         11   -1    0    0    0    0  0.00000000000E+00  0.00000000000E+00  0.39999999674E+01  0.40000000000E+01  0.51100000000E-03 0.  1.
    9000002   -1    0    0    0    0 -0.00000000000E+00 -0.00000000000E+00  0.00000000000E+00  0.93800000000E+00  0.93800000000E+00 0.  1.
         11    1    1    2    0    0  0.12221696219E-01  0.20474089686E+00  0.11349648382E+01  0.11533488847E+01  0.51100000000E-03 0.  1.
    9000002    1    1    2    0    0 -0.39074275646E-01 -0.65285658966E+00  0.30214910341E+00  0.11827453684E+01  0.93800000000E+00 0.  1.
         22    1    1    2    0    0  0.26852579427E-01  0.44811569280E+00  0.25628860257E+01  0.26019057469E+01  0.00000000000E+00 0.  1.
</event>
<event>
 5    1  0.3490044E+002  0.1599293E+01  0.7818608E-02  0.3354131E+00
         11   -1    0    0    0    0  0.00000000000E+00  0.00000000000E+00  0.39999999674E+01  0.40000000000E+01  0.51100000000E-03 0.  1.
    9000002   -1    0    0    0    0 -0.00000000000E+00 -0.00000000000E+00  0.00000000000E+00  0.93800000000E+00  0.93800000000E+00 0. -1.
         11    1    1    2    0    0  0.73799686953E-01  0.11339134774E+00  0.15592235861E+01  0.15650822483E+01  0.51100000000E-03 0.  1.
    9000002    1    1    2    0    0 -0.14461267190E+00 -0.32599497340E+00  0.85652715797E-01  0.10071573538E+01  0.93800000000E+00 0. -1.
         22    1    1    2    0    0  0.70812984944E-01  0.21260362566E+00  0.23551236655E+01  0.23657603979E+01  0.00000000000E+00 0.  1.
</event>
<event>
 5    1  0.3490044E+002  0.1584883E+01  0.7818608E-02  0.3369936E+00
         11   -1    0    0    0    0  0.00000000000E+00  0.00000000000E+00  0.39999999674E+01  0.40000000000E+01  0.51100000000E-03 0. -1.
    9000002   -1    0    0    0    0 -0.00000000000E+00 -0.00000000000E+00  0.00000000000E+00  0.93800000000E+00  0.93800000000E+00 0. -1.
         11    1    1    2    0    0 -0.38162131448E-02 -0.32269696685E-01  0.41278192201E-01  0.52536150214E-01  0.51100000000E-03 0. -1.
    9000002    1    1    2    0    0 -0.21334417119E+00  0.10544003165E+00  0.48921021397E-01  0.96895335388E+00  0.93800000000E+00 0. -1.
         22    1    1    2    0    0  0.21716038434E+00 -0.73170334964E-01  0.39098007538E+01  0.39165104959E+01  0.00000000000E+00 0. -1.
</event>
<event>
 5    1  0.3490044E+002  0.1599642E+01  0.7818608E-02  0.3353752E+00
         11   -1    0    0    0    0  0.00000000000E+00  0.00000000000E+00  0.39999999674E+01  0.40000000000E+01  0.51100000000E-03 0.  1.
    9000002   -1    0    0    0    0 -0.00000000000E+00 -0.00000000000E+00  0.00000000000E+00  0.93800000000E+00  0.93800000000E+00 0.  1.
         11    1    1    2    0    0 -0.49387623981E+00  0.30956891468E-01  0.26258748996E+01  0.26720949308E+01  0.51100000000E-03 0.  1.
    9000002    1    1    2    0    0  0.69516098814E+00 -0.38866170002E-01  0.34613575089E+00  0.12183650260E+01  0.93800000000E+00 0.  1.
         22    1    1    2    0    0 -0.20128474833E+00  0.79092785341E-02  0.10279893168E+01  0.10475400432E+01  0.00000000000E+00 0.  1.
</event>
<event>
 5    1  0.3490044E+002  0.1599677E+01  0.7818608E-02  0.3353714E+00
         11   -1    0    0    0    0  0.00000000000E+00  0.00000000000E+00  0.39999999674E+01  0.40000000000E+01  0.51100000000E-03 0.  1.
    9000002   -1    0    0    0    0 -0.00000000000E+00 -0.00000000000E+00  0.00000000000E+00  0.93800000000E+00  0.93800000000E+00 0. -1.
         11    1    1    2    0    0 -0.19153853304E+00 -0.21774160380E+00  0.13487011752E+01  0.13795265626E+01  0.51100000000E-03 0. -1.
    9000002    1    1    2    0    0  0.50674858614E+00  0.57636168268E+00  0.42927633121E+00  0.12857328989E+01  0.93800000000E+00 0. -1.
         22    1    1    2    0    0 -0.31521005311E+00 -0.35862007888E+00  0.22220224609E+01  0.22727405385E+01  0.00000000000E+00 0.  1.
</event>
<event>
 5    1  0.3490044E+002  0.1598020E+01  0.7818608E-02  0.3355515E+00
         11   -1    0    0    0    0  0.00000000000E+00  0.00000000000E+00  0.39999999674E+01  0.40000000000E+01  0.51100000000E-03 0.  1.
    9000002   -1    0    0    0    0 -0.00000000000E+00 -0.00000000000E+00  0.00000000000E+00  0.93800000000E+00  0.93800000000E+00 0. -1.
         11    1    1    2    0    0 -0.69303708633E+00 -0.16718779530E+00  0.25349709638E+01  0.26333116433E+01  0.51100000000E-03 0.  1.
    9000002    1    1    2    0    0  0.94449359637E+00  0.21553699414E+00  0.74521616472E+00  0.15406866916E+01  0.93800000000E+00 0. -1.
         22    1    1    2    0    0 -0.25145651004E+00 -0.48349198846E-01  0.71981283880E+00  0.76400166517E+00  0.00000000000E+00 0. -1.
</event>
<event>
 5    1  0.3490044E+002  0.1572958E+01  0.7818608E-02  0.3383247E+00
         11   -1    0    0    0    0  0.00000000000E+00  0.00000000000E+00  0.39999999674E+01  0.40000000000E+01  0.51100000000E-03 0. -1.
    9000002   -1    0    0    0    0 -0.00000000000E+00 -0.00000000000E+00  0.00000000000E+00  0.93800000000E+00  0.93800000000E+00 0.  1.
         11    1    1    2    0    0  0.27310736037E-02  0.49709042889E-01  0.55140439085E-01  0.74291162674E-01  0.51100000000E-03 0. -1.
    9000002    1    1    2    0    0  0.19501820567E+00 -0.14174881592E-01  0.45569911393E-01  0.95924639412E+00  0.93800000000E+00 0.  1.
         22    1    1    2    0    0 -0.19774927927E+00 -0.35534161297E-01  0.38992896169E+01  0.39044624432E+01  0.00000000000E+00 0. -1.
</event>
<event>
 5    1  0.3490044E+002  0.1599658E+01  0.7818608E-02  0.3353734E+00
         11   -1    0    0    0    0  0.00000000000E+00  0.00000000000E+00  0.39999999674E+01  0.40000000000E+01  0.51100000000E-03 0. -1.
    9000002   -1    0    0    0    0 -0.00000000000E+00 -0.00000000000E+00  0.00000000000E+00  0.93800000000E+00  0.93800000000E+00 0. -1.
         11    1    1    2    0    0 -0.56230335100E-01 -0.26327351186E-01  0.62345131267E+00  0.62653553802E+00  0.51100000000E-03 0. -1.
    9000002    1    1    2    0    0  0.34011586387E+00  0.18527228913E+00  0.10103465060E+00  0.10198316639E+01  0.93800000000E+00 0. -1.
         22    1    1    2    0    0 -0.28388552877E+00 -0.15894493794E+00  0.32755140041E+01  0.32916327981E+01  0.00000000000E+00 0. -1.
</event>
<event>
 5    1  0.3490044E+002  0.1597241E+01  0.7818608E-02  0.3356364E+00
         11   -1    0    0    0    0  0.00000000000E+00  0.00000000000E+00  0.39999999674E+01  0.40000000000E+01  0.51100000000E-03 0.  1.
    9000002   -1    0    0    0    0 -0.00000000000E+00 -0.00000000000E+00  0.00000000000E+00  0.93800000000E+00  0.93800000000E+00 0.  1.
         11    1    1    2    0    0  0.23688747700E+00  0.19346051913E+00  0.21577581053E+01  0.21793262609E+01  0.51100000000E-03 0.  1.
    9000002    1    1    2    0    0 -0.46171983607E+00 -0.42163710220E+00  0.27679102074E+00  0.11607843564E+01  0.93800000000E+00 0.  1.
         22    1    1    2    0    0  0.22483235906E+00  0.22817658307E+00  0.15654508413E+01  0.15978893827E+01  0.00000000000E+00 0.  1.
</event>
<event>
 5    1  0.3490044E+002  0.1523846E+01  0.7818608E-02  0.3440405E+00
         11   -1    0    0    0    0  0.00000000000E+00  0.00000000000E+00  0.39999999674E+01  0.40000000000E+01  0.51100000000E-03 0. -1.
    9000002   -1    0    0    0    0 -0.00000000000E+00 -0.00000000000E+00  0.00000000000E+00  0.93800000000E+00  0.93800000000E+00 0. -1.
         11    1    1    2    0    0  0.16258676292E+00 -0.19126412694E+00  0.10570576619E+01  0.10864564342E+01  0.51100000000E-03 0. -1.
    9000002    1    1    2    0    0  0.18557442633E-01 -0.18834447302E+00  0.82621815391E-01  0.96046258833E+00  0.93800000000E+00 0. -1.
         22    1    1    2    0    0 -0.18114420556E+00  0.37960859995E+00  0.28603204900E+01  0.28910809774E+01  0.00000000000E+00 0. -1.
</event>
<event>
 5    1  0.3490044E+002  0.1595014E+01  0.7818608E-02  0.3358793E+00
         11   -1    0    0    0    0  0.00000000000E+00  0.00000000000E+00  0.39999999674E+01  0.40000000000E+01  0.51100000000E-03 0. -1.
    9000002   -1    0    0    0    0 -0.00000000000E+00 -0.00000000000E+00  0.00000000000E+00  0.93800000000E+00  0.93800000000E+00 0. -1.
         11    1    1    2    0    0  0.26920924122E-01  0.16278347003E+00  0.64280247697E+00  0.66364032411E+00  0.51100000000E-03 0. -1.
    9000002    1    1    2    0    0 -0.24368637479E+00 -0.58627753195E+00  0.28827624169E+00  0.11687820949E+01  0.93800000000E+00 0. -1.
         22    1    1    2    0    0  0.21676545067E+00  0.42349406193E+00  0.30689212487E+01  0.31055775810E+01  0.00000000000E+00 0. -1.
</event>
<event>
 5    1  0.3490044E+002  0.1599620E+01  0.7818608E-02  0.3353776E+00
         11   -1    0    0    0    0  0.00000000000E+00  0.00000000000E+00  0.39999999674E+01  0.40000000000E+01  0.51100000000E-03 0. -1.
    9000002   -1    0    0    0    0 -0.00000000000E+00 -0.00000000000E+00  0.00000000000E+00  0.93800000000E+00  0.93800000000E+00 0.  1.
         11    1    1    2    0    0  0.21333321728E-01  0.32796096030E-02  0.38072453328E+00  0.38133620051E+00  0.51100000000E-03 0. -1.
    9000002    1    1    2    0    0 -0.23500608273E+00 -0.88192583505E-01  0.41901168972E-01  0.97190817399E+00  0.93800000000E+00 0.  1.
         22    1    1    2    0    0  0.21367276100E+00  0.84912973902E-01  0.35773742651E+01  0.35847556255E+01  0.00000000000E+00 0. -1.
</event>
<event>
 5    1  0.3490044E+002  0.1598919E+01  0.7818608E-02  0.3354538E+00
         11   -1    0    0    0    0  0.00000000000E+00  0.00000000000E+00  0.39999999674E+01  0.40000000000E+01  0.51100000000E-03 0. -1.
    9000002   -1    0    0    0    0 -0.00000000000E+00 -0.00000000000E+00  0.00000000000E+00  0.93800000000E+00  0.93800000000E+00 0.  1.
         11    1    1    2    0    0 -0.81766914351E-02  0.26245083360E-01  0.53979839856E+00  0.54049813588E+00  0.51100000000E-03 0. -1.
    9000002    1    1    2    0    0  0.12309969799E+00 -0.34334911641E+00  0.89971205043E-01  0.10104360292E+01  0.93800000000E+00 0.  1.
         22    1    1    2    0    0 -0.11492300656E+00  0.31710403305E+00  0.33702303638E+01  0.33870658349E+01  0.00000000000E+00 0. -1.
</event>
<event>
 5    1  0.3490044E+002  0.1599675E+01  0.7818608E-02  0.3353716E+00
         11   -1    0    0    0    0  0.00000000000E+00  0.00000000000E+00  0.39999999674E+01  0.40000000000E+01  0.51100000000E-03 0.  1.
    9000002   -1    0    0    0    0 -0.00000000000E+00 -0.00000000000E+00  0.00000000000E+00  0.93800000000E+00  0.93800000000E+00 0. -1.
         11    1    1    2    0    0  0.98240978193E-01  0.48782669009E-01  0.11730307094E+01  0.11781478451E+01  0.51100000000E-03 0.  1.
    9000002    1    1    2    0    0 -0.32831987546E+00 -0.15794308886E+00  0.89148968305E-01  0.10102135905E+01  0.93800000000E+00 0. -1.
         22    1    1    2    0    0  0.23007889727E+00  0.10916041986E+00  0.27378202896E+01  0.27496385644E+01  0.00000000000E+00 0.  1.
</event>
<event>
 5    1  0.3490044E+002  0.1599677E+01  0.7818608E-02  0.3353714E+00
         11   -1    0    0    0    0  0.00000000000E+00  0.00000000000E+00  0.39999999674E+01  0.40000000000E+01  0.51100000000E-03 0.  1.
    9000002   -1    0    0    0    0 -0.00000000000E+00 -0.00000000000E+00  0.00000000000E+00  0.93800000000E+00  0.93800000000E+00 0.  1.
         11    1    1    2    0    0 -0.74119896682E+00  0.72025561684E+00  0.15042702580E+01  0.18250954310E+01  0.51100000000E-03 0.  1.
    9000002    1    1    2    0    0  0.92837954597E+00 -0.90233012223E+00  0.21159468357E+01  0.26520111694E+01  0.93800000000E+00 0.  1.
         22    1    1    2    0    0 -0.18718057915E+00  0.18207450539E+00  0.37978287360E+00  0.46089339962E+00  0.00000000000E+00 0.  1.
</event>
<event>
 5    1  0.3490044E+002  0.1597427E+01  0.7818608E-02  0.3356161E+00
         11   -1    0    0    0    0  0.00000000000E+00  0.00000000000E+00  0.39999999674E+01  0.40000000000E+01  0.51100000000E-03 0. -1.
    9000002   -1    0    0    0    0 -0.00000000000E+00 -0.00000000000E+00  0.00000000000E+00  0.93800000000E+00  0.93800000000E+00 0. -1.
         11    1    1    2    0    0  0.58717945649E-01 -0.27956539667E+00  0.17159828577E+01  0.17395982401E+01  0.51100000000E-03 0. -1.
    9000002    1    1    2    0    0 -0.98800069587E-01  0.49892333832E+00  0.17938925177E+00  0.10819937407E+01  0.93800000000E+00 0. -1.
         22    1    1    2    0    0  0.40082123938E-01 -0.21935794165E+00  0.21046278579E+01  0.21164080192E+01  0.00000000000E+00 0. -1.
</event>
<event>
 5    1  0.3490044E+002  0.1599440E+01  0.7818608E-02  0.3353972E+00
         11   -1    0    0    0    0  0.00000000000E+00  0.00000000000E+00  0.39999999674E+01  0.40000000000E+01  0.51100000000E-03 0. -1.
    9000002   -1    0    0    0    0 -0.00000000000E+00 -0.00000000000E+00  0.00000000000E+00  0.93800000000E+00  0.93800000000E+00 0.  1.
         11    1    1    2    0    0 -0.24360158352E-01  0.42768318960E-01  0.54717550443E+00  0.54938496539E+00  0.51100000000E-03 0. -1.
    9000002    1    1    2    0    0  0.15852927285E+00 -0.21784820014E+00  0.48478089532E-01  0.97713023381E+00  0.93800000000E+00 0.  1.
         22    1    1    2    0    0 -0.13416911450E+00  0.17507988118E+00  0.34043463734E+01  0.34114848008E+01  0.00000000000E+00 0. -1.
</event>
<event>
 5    1  0.3490044E+002  0.1599676E+01  0.7818608E-02  0.3353715E+00
         11   -1    0    0    0    0  0.00000000000E+00  0.00000000000E+00  0.39999999674E+01  0.40000000000E+01  0.51100000000E-03 0. -1.
    9000002   -1    0    0    0    0 -0.00000000000E+00 -0.00000000000E+00  0.00000000000E+00  0.93800000000E+00  0.93800000000E+00 0. -1.
         11    1    1    2    0    0 -0.38397516871E-01  0.20334672198E+00  0.17778554849E+01  0.17898588338E+01  0.51100000000E-03 0. -1.
    9000002    1    1    2    0    0  0.85021419570E-01 -0.43981050919E+00  0.13624624581E+00  0.10483649008E+01  0.93800000000E+00 0. -1.
         22    1    1    2    0    0 -0.46623902698E-01  0.23646378720E+00  0.20858982367E+01  0.20997762654E+01  0.00000000000E+00 0. -1.
</event>
<event>
 5    1  0.3490044E+002  0.1599676E+01  0.7818608E-02  0.3353715E+00
         11   -1    0    0    0    0  0.00000000000E+00  0.00000000000E+00  0.39999999674E+01  0.40000000000E+01  0.51100000000E-03 0.  1.
    9000002   -1    0    0    0    0 -0.00000000000E+00 -0.00000000000E+00  0.00000000000E+00  0.93800000000E+00  0.93800000000E+00 0.  1.
         11    1    1    2    0    0  0.87369830873E-01 -0.50738380915E-01  0.11726814222E+01  0.11770258492E+01  0.51100000000E-03 0.  1.
    9000002    1    1    2    0    0 -0.29412954941E+00  0.16707267967E+00  0.76626746287E-01  0.10000705627E+01  0.93800000000E+00 0.  1.
         22    1    1    2    0    0  0.20675971854E+00 -0.11633429875E+00  0.27506917989E+01  0.27609035881E+01  0.00000000000E+00 0.  1.
</event>
<event>
 5    1  0.3490044E+002  0.1599673E+01  0.7818608E-02  0.3353718E+00
         11   -1    0    0    0    0  0.00000000000E+00  0.00000000000E+00  0.39999999674E+01  0.40000000000E+01  0.51100000000E-03 0.  1.
    9000002   -1    0    0    0    0 -0.00000000000E+00 -0.00000000000E+00  0.00000000000E+00  0.93800000000E+00  0.93800000000E+00 0.  1.
         11    1    1    2    0    0  0.27335241321E-01  0.48268552960E-01  0.43586732270E+00  0.43938326407E+00  0.51100000000E-03 0.  1.
    9000002    1    1    2    0    0 -0.23075801887E+00 -0.41820361065E+00  0.15561161973E+00  0.10640500455E+01  0.93800000000E+00 0.  1.
         22    1    1    2    0    0  0.20342277755E+00  0.36993505769E+00  0.34085210249E+01  0.34345666904E+01  0.00000000000E+00 0.  1.
</event>
<event>
 5    1  0.3490044E+002  0.1599664E+01  0.7818608E-02  0.3353728E+00
         11   -1    0    0    0    0  0.00000000000E+00  0.00000000000E+00  0.39999999674E+01  0.40000000000E+01  0.51100000000E-03 0.  1.
    9000002   -1    0    0    0    0 -0.00000000000E+00 -0.00000000000E+00  0.00000000000E+00  0.93800000000E+00  0.93800000000E+00 0. -1.
         11    1    1    2    0    0  0.41214377400E-01  0.29788329375E-02  0.32284221335E+00  0.32547634967E+00  0.51100000000E-03 0.  1.
    9000002    1    1    2    0    0 -0.51576421634E+00 -0.32648965448E-01  0.18336980304E+00  0.10865298737E+01  0.93800000000E+00 0. -1.
         22    1    1    2    0    0  0.47454983894E+00  0.29670132510E-01  0.34937879510E+01  0.35259937766E+01  0.00000000000E+00 0.  1.
</event>
<event>
 5    1  0.3490044E+002  0.1599673E+01  0.7818608E-02  0.3353718E+00
         11   -1    0    0    0    0  0.00000000000E+00  0.00000000000E+00  0.39999999674E+01  0.40000000000E+01  0.51100000000E-03 0. -1.
    9000002   -1    0    0    0    0 -0.00000000000E+00 -0.00000000000E+00  0.00000000000E+00  0.93800000000E+00  0.93800000000E+00 0.  1.
         11    1    1    2    0    0  0.36988010303E-01 -0.86305924359E-01  0.94533065385E+00  0.94998270075E+00  0.51100000000E-03 0. -1.
    9000002    1    1    2    0    0 -0.15067526952E+00  0.34798754309E+00  0.96747439107E-01  0.10163672732E+01  0.93800000000E+00 0.  1.
         22    1    1    2    0    0  0.11368725922E+00 -0.26168161873E+00  0.29579218744E+01  0.29716500261E+01  0.00000000000E+00 0. -1.
</event>
<event>
 5    1  0.3490044E+002  0.1599521E+01  0.7818608E-02  0.3353883E+00
         11   -1    0    0    0    0  0.00000000000E+00  0.00000000000E+00  0.39999999674E+01  0.40000000000E+01  0.51100000000E-03 0.  1.
    9000002   -1    0    0    0    0 -0.00000000000E+00 -0.00000000000E+00  0.00000000000E+00  0.93800000000E+00  0.93800000000E+00 0. -1.
         11    1    1    2    0    0  0.14266831614E+00 -0.27673887686E+00  0.18739518531E+01  0.18996406142E+01  0.51100000000E-03 0.  1.
    9000002    1    1    2    0    0 -0.30271170608E+00  0.56946340171E+00  0.29330319983E+00  0.11754972182E+01  0.93800000000E+00 0. -1.
         22    1    1    2    0    0  0.16004338994E+00 -0.29272452485E+00  0.18327449144E+01  0.18628621676E+01  0.00000000000E+00 0.  1.
</event>
<event>
 5    1  0.3490044E+002  0.1599653E+01  0.7818608E-02  0.3353741E+00
         11   -1    0    0    0    0  0.00000000000E+00  0.00000000000E+00  0.39999999674E+01  0.40000000000E+01  0.51100000000E-03 0. -1.
    9000002   -1    0    0    0    0 -0.00000000000E+00 -0.00000000000E+00  0.00000000000E+00  0.93800000000E+00  0.93800000000E+00 0.  1.
         11    1    1    2    0    0 -0.47923814555E-01 -0.16990535201E+00  0.96617778394E+00  0.98217324946E+00  0.51100000000E-03 0. -1.
    9000002    1    1    2    0    0  0.19423882074E+00  0.63228266336E+00  0.30961474799E+00  0.11887873561E+01  0.93800000000E+00 0.  1.
         22    1    1    2    0    0 -0.14631500619E+00 -0.46237731135E+00  0.27242074354E+01  0.27670393944E+01  0.00000000000E+00 0. -1.
</event>
<event>
 5    1  0.3490044E+002  0.1599648E+01  0.7818608E-02  0.3353746E+00
         11   -1    0    0    0    0  0.00000000000E+00  0.00000000000E+00  0.39999999674E+01  0.40000000000E+01  0.51100000000E-03 0.  1.
    9000002   -1    0    0    0    0 -0.00000000000E+00 -0.00000000000E+00  0.00000000000E+00  0.93800000000E+00  0.93800000000E+00 0.  1.
         11    1    1    2    0    0 -0.58915617845E-02 -0.10490414256E-02  0.97770794402E-01  0.97955093523E-01  0.51100000000E-03 0.  1.
    9000002    1    1    2    0    0  0.18566120473E+00  0.10164972566E+00  0.29703933002E-01  0.96204421588E+00  0.93800000000E+00 0.  1.
         22    1    1    2    0    0 -0.17976964294E+00 -0.10060068423E+00  0.38725252400E+01  0.38780006906E+01  0.00000000000E+00 0.  1.
</event>
<event>
 5    1  0.3499463E+002  0.1569922E+01  0.7818608E-02  0.3386670E+00
         11   -1    0    0    0    0  0.00000000000E+00  0.00000000000E+00  0.39999999674E+01  0.40000000000E+01  0.51100000000E-03 0.  1.
    9000002   -1    0    0    0    0 -0.00000000000E+00 -0.00000000000E+00  0.00000000000E+00  0.93800000000E+00  0.93800000000E+00 0.  1.
         11    1    1    2    0    0  0.14956804215E+00  0.64352444808E-01  0.28658401854E+01  0.28704619951E+01  0.51100000000E-03 0.  1.
    9000002    1    1    2    0    0 -0.58574237296E-01  0.12170782336E+00  0.34246149663E-01  0.94829348532E+00  0.93800000000E+00 0.  1.
         22    1    1    2    0    0 -0.90993804850E-01 -0.18606026817E+00  0.10999136323E+01  0.11192445195E+01  0.00000000000E+00 0.  1.
</event>
<event>
 5    1  0.3490044E+002  0.1510591E+01  0.7818608E-02  0.3456514E+00
         11   -1    0    0    0    0  0.00000000000E+00  0.00000000000E+00  0.39999999674E+01  0.40000000000E+01  0.51100000000E-03 0.  1.
    9000002   -1    0    0    0    0 -0.00000000000E+00 -0.00000000000E+00  0.00000000000E+00  0.93800000000E+00  0.93800000000E+00 0. -1.
         11    1    1    2    0    0  0.10574702619E+00 -0.25530296582E+00  0.10093608250E+01  0.10465044548E+01  0.51100000000E-03 0.  1.
    9000002    1    1    2    0    0  0.50785807556E-01 -0.14032454330E+00  0.83581176386E-01  0.95346735065E+00  0.93800000000E+00 0. -1.
         22    1    1    2    0    0 -0.15653283374E+00  0.39562750913E+00  0.29070579660E+01  0.29380281945E+01  0.00000000000E+00 0.  1.
</event>
<event>
 5    1  0.3490044E+002  0.1599612E+01  0.7818608E-02  0.3353784E+00
         11   -1    0    0    0    0  0.00000000000E+00  0.00000000000E+00  0.39999999674E+01  0.40000000000E+01  0.51100000000E-03 0.  1.
    9000002   -1    0    0    0    0 -0.00000000000E+00 -0.00000000000E+00  0.00000000000E+00  0.93800000000E+00  0.93800000000E+00 0. -1.
         11    1    1    2    0    0 -0.48055678625E-01 -0.17741061119E-01  0.58651691139E+00  0.58874989763E+00  0.51100000000E-03 0.  1.
    9000002    1    1    2    0    0  0.27912598894E+00  0.10389036919E+00  0.59214518181E-01  0.98592843842E+00  0.93800000000E+00 0. -1.
         22    1    1    2    0    0 -0.23107031032E+00 -0.86149308069E-01  0.33542685378E+01  0.33633216640E+01  0.00000000000E+00 0.  1.
</event>
<event>
 5    1  0.3490044E+002  0.1599638E+01  0.7818608E-02  0.3353757E+00
         11   -1    0    0    0    0  0.00000000000E+00  0.00000000000E+00  0.39999999674E+01  0.40000000000E+01  0.51100000000E-03 0. -1.
    9000002   -1    0    0    0    0 -0.00000000000E+00 -0.00000000000E+00  0.00000000000E+00  0.93800000000E+00  0.93800000000E+00 0.  1.
         11    1    1    2    0    0  0.36218639658E+00 -0.15213877750E-01  0.22248227592E+01  0.22541621545E+01  0.51100000000E-03 0. -1.
    9000002    1    1    2    0    0 -0.61146419142E+00  0.37649918712E-01  0.26260800403E+00  0.11507010635E+01  0.93800000000E+00 0.  1.
         22    1    1    2    0    0  0.24927779484E+00 -0.22436040962E-01  0.15125692041E+01  0.15331367819E+01  0.00000000000E+00 0.  1.
</event>
<event>
 5    1  0.3490044E+002  0.1595688E+01  0.7818608E-02  0.3358057E+00
         11   -1    0    0    0    0  0.00000000000E+00  0.00000000000E+00  0.39999999674E+01  0.40000000000E+01  0.51100000000E-03 0.  1.
    9000002   -1    0    0    0    0 -0.00000000000E+00 -0.00000000000E+00  0.00000000000E+00  0.93800000000E+00  0.93800000000E+00 0.  1.
         11    1    1    2    0    0 -0.20660000142E-01  0.81056270393E-01  0.12309467827E+01  0.12337857178E+01  0.51100000000E-03 0.  1.
    9000002    1    1    2    0    0 -0.15904203395E+00 -0.26824722537E+00  0.68099110175E-01  0.99082411723E+00  0.93800000000E+00 0.  1.
         22    1    1    2    0    0  0.17970203409E+00  0.18719095497E+00  0.27009540745E+01  0.27133901650E+01  0.00000000000E+00 0.  1.
</event>
<event>
 5    1  0.3490044E+002  0.1599676E+01  0.7818608E-02  0.3353716E+00
         11   -1    0    0    0    0  0.00000000000E+00  0.00000000000E+00  0.39999999674E+01  0.40000000000E+01  0.51100000000E-03 0.  1.
    9000002   -1    0    0    0    0 -0.00000000000E+00 -0.00000000000E+00  0.00000000000E+00  0.93800000000E+00  0.93800000000E+00 0.  1.
         11    1    1    2    0    0 -0.23425162247E+00  0.42913814317E+00  0.25517422258E+01  0.25981574272E+01  0.51100000000E-03 0.  1.
    9000002    1    1    2    0    0  0.33466343565E+00 -0.61556111851E+00  0.35090785977E+00  0.12222501511E+01  0.93800000000E+00 0.  1.
         22    1    1    2    0    0 -0.10041181318E+00  0.18642297534E+00  0.10973498818E+01  0.11175924217E+01  0.00000000000E+00 0. -1.
</event>
<event>
 5    1  0.3490044E+002  0.1599644E+01  0.7818608E-02  0.3353749E+00
         11   -1    0    0    0    0  0.00000000000E+00  0.00000000000E+00  0.39999999674E+01  0.40000000000E+01  0.51100000000E-03 0. -1.
    9000002   -1    0    0    0    0 -0.00000000000E+00 -0.00000000000E+00  0.00000000000E+00  0.93800000000E+00  0.93800000000E+00 0. -1.
         11    1    1    2    0    0 -0.61222422219E-01  0.40861093858E+00  0.23216647879E+01  0.23581430687E+01  0.51100000000E-03 0. -1.
    9000002    1    1    2    0    0  0.95219632563E-01 -0.65919132838E+00  0.31428969118E+00  0.11925694931E+01  0.93800000000E+00 0. -1.
         22    1    1    2    0    0 -0.33997210344E-01  0.25058038980E+00  0.13640454883E+01  0.13872874382E+01  0.00000000000E+00 0.  1.
</event>
<event>
 5    1  0.3490044E+002  0.1599666E+01  0.7818608E-02  0.3353725E+00
         11   -1    0    0    0    0  0.00000000000E+00  0.00000000000E+00  0.39999999674E+01  0.40000000000E+01  0.51100000000E-03 0.  1.
    9000002   -1    0    0    0    0 -0.00000000000E+00 -0.00000000000E+00  0.00000000000E+00  0.93800000000E+00  0.93800000000E+00 0. -1.
         11    1    1    2    0    0  0.53740765431E-01 -0.10004897499E+00  0.13735063095E+01  0.13781936405E+01  0.51100000000E-03 0.  1.
    9000002    1    1    2    0    0 -0.15007631386E+00  0.27654918962E+00  0.66146503158E-01  0.99157536987E+00  0.93800000000E+00 0. -1.
         22    1    1    2    0    0  0.96335548430E-01 -0.17650021463E+00  0.25603471547E+01  0.25682309896E+01  0.00000000000E+00 0.  1.
</event>
<event>
 5    1  0.3490044E+002  0.1599598E+01  0.7818608E-02  0.3353800E+00
         11   -1    0    0    0    0  0.00000000000E+00  0.00000000000E+00  0.39999999674E+01  0.40000000000E+01  0.51100000000E-03 0. -1.
    9000002   -1    0    0    0    0 -0.00000000000E+00 -0.00000000000E+00  0.00000000000E+00  0.93800000000E+00  0.93800000000E+00 0. -1.
         11    1    1    2    0    0 -0.41599732601E-01  0.22800279002E-01  0.72771077337E+00  0.72925552536E+00  0.51100000000E-03 0. -1.
    9000002    1    1    2    0    0  0.25215793328E+00 -0.15949221992E+00  0.59439880879E-01  0.98610267770E+00  0.93800000000E+00 0. -1.
         22    1    1    2    0    0 -0.21055820068E+00  0.13669194092E+00  0.32128493131E+01  0.32226417969E+01  0.00000000000E+00 0. -1.
</event>
<event>
 5    1  0.3490044E+002  0.1599645E+01  0.7818608E-02  0.3353749E+00
         11   -1    0    0    0    0  0.00000000000E+00  0.00000000000E+00  0.39999999674E+01  0.40000000000E+01  0.51100000000E-03 0. -1.
    9000002   -1    0    0    0    0 -0.00000000000E+00 -0.00000000000E+00  0.00000000000E+00  0.93800000000E+00  0.93800000000E+00 0. -1.
         11    1    1    2    0    0 -0.43822141305E-01 -0.10661126497E+00  0.11486151065E+01  0.11543843667E+01  0.51100000000E-03 0. -1.
    9000002    1    1    2    0    0  0.15943286759E+00  0.34389546232E+00  0.96691073789E-01  0.10163051176E+01  0.93800000000E+00 0. -1.
         22    1    1    2    0    0 -0.11561072629E+00 -0.23728419735E+00  0.27546937870E+01  0.27673105158E+01  0.00000000000E+00 0. -1.
</event>
<event>
 5    1  0.3490044E+002  0.1447932E+01  0.7818608E-02  0.3536982E+00
         11   -1    0    0    0    0  0.00000000000E+00  0.00000000000E+00  0.39999999674E+01  0.40000000000E+01  0.51100000000E-03 0.  1.
    9000002   -1    0    0    0    0 -0.00000000000E+00 -0.00000000000E+00  0.00000000000E+00  0.93800000000E+00  0.93800000000E+00 0. -1.
         11    1    1    2    0    0 -0.12512378098E+00 -0.74707742486E-02  0.23586554035E-01  0.12754748013E+00  0.51100000000E-03 0.  1.
    9000002    1    1    2    0    0 -0.23017320925E+00  0.19314650021E+00  0.19029031603E+00  0.10031648325E+01  0.93800000000E+00 0. -1.
         22    1    1    2    0    0  0.35529699024E+00 -0.18567572596E+00  0.37861230973E+01  0.38072876874E+01  0.00000000000E+00 0.  1.
</event>
<event>
 5    1  0.3490044E+002  0.1599657E+01  0.7818608E-02  0.3353736E+00
         11   -1    0    0    0    0  0.00000000000E+00  0.00000000000E+00  0.39999999674E+01  0.40000000000E+01  0.51100000000E-03 0.  1.
    9000002   -1    0    0    0    0 -0.00000000000E+00 -0.00000000000E+00  0.00000000000E+00  0.93800000000E+00  0.93800000000E+00 0. -1.
         11    1    1    2    0    0 -0.18359316139E-01 -0.35202015757E-02  0.28915402669E+00  0.28975812082E+00  0.51100000000E-03 0.  1.
    9000002    1    1    2    0    0  0.22133428340E+00  0.70846112081E-01  0.35845580025E-01  0.96702478883E+00  0.93800000000E+00 0. -1.
         22    1    1    2    0    0 -0.20297496726E+00 -0.67325910505E-01  0.36750003606E+01  0.36812170903E+01  0.00000000000E+00 0.  1.
</event>
<event>
 5    1  0.3490044E+002  0.1419238E+01  0.7818608E-02  0.3576530E+00
         11   -1    0    0    0    0  0.00000000000E+00  0.00000000000E+00  0.39999999674E+01  0.40000000000E+01  0.51100000000E-03 0. -1.
    9000002   -1    0    0    0    0 -0.00000000000E+00 -0.00000000000E+00  0.00000000000E+00  0.93800000000E+00  0.93800000000E+00 0.  1.
         11    1    1    2    0    0 -0.13092215981E+00  0.11652909913E+00  0.32586299654E+01  0.32633401839E+01  0.51100000000E-03 0. -1.
    9000002    1    1    2    0    0  0.51714436877E+00 -0.32976523650E-01  0.37370089921E+00  0.11349106182E+01  0.93800000000E+00 0.  1.
         22    1    1    2    0    0 -0.38622220896E+00 -0.83552575477E-01  0.36766910270E+00  0.53974919791E+00  0.00000000000E+00 0.  1.
</event>
<event>
 5    1  0.3490044E+002  0.1599250E+01  0.7818608E-02  0.3354178E+00
         11   -1    0    0    0    0  0.00000000000E+00  0.00000000000E+00  0.39999999674E+01  0.40000000000E+01  0.51100000000E-03 0. -1.
    9000002   -1    0    0    0    0 -0.00000000000E+00 -0.00000000000E+00  0.00000000000E+00  0.93800000000E+00  0.93800000000E+00 0.  1.
         11    1    1    2    0    0  0.30537056323E-01 -0.17424920887E-01  0.68744188353E+00  0.68834057270E+00  0.51100000000E-03 0. -1.
    9000002    1    1    2    0    0 -0.25478117418E+00  0.25919811057E-01  0.43915850917E-01  0.97332311453E+00  0.93800000000E+00 0.  1.
         22    1    1    2    0    0  0.22424411786E+00 -0.84948901696E-02  0.32686422329E+01  0.32763363128E+01  0.00000000000E+00 0. -1.
</event>
<event>
 5    1  0.3490044E+002  0.1598952E+01  0.7818608E-02  0.3354502E+00
         11   -1    0    0    0    0  0.00000000000E+00  0.00000000000E+00  0.39999999674E+01  0.40000000000E+01  0.51100000000E-03 0. -1.
    9000002   -1    0    0    0    0 -0.00000000000E+00 -0.00000000000E+00  0.00000000000E+00  0.93800000000E+00  0.93800000000E+00 0. -1.
         11    1    1    2    0    0 -0.23569684582E-01  0.77762543865E-02  0.35730580300E+00  0.35816713716E+00  0.51100000000E-03 0. -1.
    9000002    1    1    2    0    0  0.13316184322E+00 -0.24711062828E+00  0.53036808184E-01  0.98053691523E+00  0.93800000000E+00 0. -1.
         22    1    1    2    0    0 -0.10959215864E+00  0.23933437389E+00  0.35896573562E+01  0.35992959476E+01  0.00000000000E+00 0. -1.
</event>
<event>
 5    1  0.3490044E+002  0.1599662E+01  0.7818608E-02  0.3353730E+00
         11   -1    0    0    0    0  0.00000000000E+00  0.00000000000E+00  0.39999999674E+01  0.40000000000E+01  0.51100000000E-03 0.  1.
    9000002   -1    0    0    0    0 -0.00000000000E+00 -0.00000000000E+00  0.00000000000E+00  0.93800000000E+00  0.93800000000E+00 0. -1.
         11    1    1    2    0    0  0.11404697010E-01 -0.26664385161E-01  0.41644986826E+00  0.41745875298E+00  0.51100000000E-03 0.  1.
    9000002    1    1    2    0    0 -0.82711883524E-01  0.24468126651E+00  0.44355114184E-01  0.97392071238E+00  0.93800000000E+00 0. -1.
         22    1    1    2    0    0  0.71307186514E-01 -0.21801688135E+00  0.35391949849E+01  0.35466205346E+01  0.00000000000E+00 0.  1.
</event>
<event>
 5    1  0.3490044E+002  0.1599590E+01  0.7818608E-02  0.3353808E+00
         11   -1    0    0    0    0  0.00000000000E+00  0.00000000000E+00  0.39999999674E+01  0.40000000000E+01  0.51100000000E-03 0. -1.
    9000002   -1    0    0    0    0 -0.00000000000E+00 -0.00000000000E+00  0.00000000000E+00  0.93800000000E+00  0.93800000000E+00 0.  1.
         11    1    1    2    0    0  0.30465937298E-01  0.42289104464E-01  0.70949273619E+00  0.71140476911E+00  0.51100000000E-03 0. -1.
    9000002    1    1    2    0    0 -0.13714306645E+00 -0.27028767939E+00  0.61369108980E-01  0.98766078076E+00  0.93800000000E+00 0.  1.
         22    1    1    2    0    0  0.10667712915E+00  0.22799857493E+00  0.32291381222E+01  0.32389344501E+01  0.00000000000E+00 0. -1.
</event>
<event>
 5    1  0.3490044E+002  0.1599661E+01  0.7818608E-02  0.3353731E+00
         11   -1    0    0    0    0  0.00000000000E+00  0.00000000000E+00  0.39999999674E+01  0.40000000000E+01  0.51100000000E-03 0.  1.
    9000002   -1    0    0    0    0 -0.00000000000E+00 -0.00000000000E+00  0.00000000000E+00  0.93800000000E+00  0.93800000000E+00 0.  1.
         11    1    1    2    0    0 -0.32184270995E-01  0.27303461738E-01  0.43645161614E+00  0.43848783412E+00  0.51100000000E-03 0. -1.
    9000002    1    1    2    0    0  0.28201751565E+00 -0.21908937048E+00  0.85593404187E-01  0.10073253011E+01  0.93800000000E+00 0.  1.
         22    1    1    2    0    0 -0.24983324466E+00  0.19178590875E+00  0.34779549470E+01  0.34921868648E+01  0.00000000000E+00 0.  1.
</event>
<event>
 5    1  0.3490044E+002  0.1598830E+01  0.7818608E-02  0.3354634E+00
         11   -1    0    0    0    0  0.00000000000E+00  0.00000000000E+00  0.39999999674E+01  0.40000000000E+01  0.51100000000E-03 0.  1.
    9000002   -1    0    0    0    0 -0.00000000000E+00 -0.00000000000E+00  0.00000000000E+00  0.93800000000E+00  0.93800000000E+00 0.  1.
         11    1    1    2    0    0 -0.20814921642E-01 -0.77778784997E-02  0.63773334744E+00  0.63812055281E+00  0.51100000000E-03 0.  1.
    9000002    1    1    2    0    0  0.21178091602E+00 -0.88834800869E-01  0.35626453056E-01  0.96636226250E+00  0.93800000000E+00 0.  1.
         22    1    1    2    0    0 -0.19096599438E+00  0.96612679369E-01  0.33266401669E+01  0.33335171847E+01  0.00000000000E+00 0.  1.
</event>
<event>
 5    1  0.3490044E+002  0.1599563E+01  0.7818608E-02  0.3353838E+00
         11   -1    0    0    0    0  0.00000000000E+00  0.00000000000E+00  0.39999999674E+01  0.40000000000E+01  0.51100000000E-03 0.  1.
    9000002   -1    0    0    0    0 -0.00000000000E+00 -0.00000000000E+00  0.00000000000E+00  0.93800000000E+00  0.93800000000E+00 0.  1.
         11    1    1    2    0    0  0.52594264654E-01 -0.71999643910E-01  0.11786460950E+01  0.11820139525E+01  0.51100000000E-03 0.  1.
    9000002    1    1    2    0    0 -0.16710417808E+00  0.27843392834E+00  0.70606158157E-01  0.99512737293E+00  0.93800000000E+00 0.  1.
         22    1    1    2    0    0  0.11450991343E+00 -0.20643428443E+00  0.27507477142E+01  0.27608586746E+01  0.00000000000E+00 0.  1.
</event>
<event>
 5    1  0.3490044E+002  0.1599673E+01  0.7818608E-02  0.3353718E+00
         11   -1    0    0    0    0  0.00000000000E+00  0.00000000000E+00  0.39999999674E+01  0.40000000000E+01  0.51100000000E-03 0.  1.
    9000002   -1    0    0    0    0 -0.00000000000E+00 -0.00000000000E+00  0.00000000000E+00  0.93800000000E+00  0.93800000000E+00 0.  1.
         11    1    1    2    0    0 -0.12628654261E-01  0.42825549759E-01  0.51429315721E+00  0.51622787923E+00  0.51100000000E-03 0.  1.
    9000002    1    1    2    0    0  0.10258428405E+00 -0.33586585529E+00  0.82707437435E-01  0.10049944917E+01  0.93800000000E+00 0.  1.
         22    1    1    2    0    0 -0.89955629786E-01  0.29304030553E+00  0.34029993727E+01  0.34167776291E+01  0.00000000000E+00 0.  1.
</event>
<event>
 5    1  0.3490044E+002  0.1597080E+01  0.7818608E-02  0.3356539E+00
         11   -1    0    0    0    0  0.00000000000E+00  0.00000000000E+00  0.39999999674E+01  0.40000000000E+01  0.51100000000E-03 0. -1.
    9000002   -1    0    0    0    0 -0.00000000000E+00 -0.00000000000E+00  0.00000000000E+00  0.93800000000E+00  0.93800000000E+00 0. -1.
         11    1    1    2    0    0 -0.32905620242E+00 -0.27080111509E-01  0.19270554018E+01  0.19551353148E+01  0.51100000000E-03 0. -1.
    9000002    1    1    2    0    0  0.63236490792E+00 -0.65881993630E-01  0.28697815319E+00  0.11689423742E+01  0.93800000000E+00 0. -1.
         22    1    1    2    0    0 -0.30330870550E+00  0.92962105139E-01  0.17859664124E+01  0.18139223109E+01  0.00000000000E+00 0. -1.
</event>
<event>
 5    1  0.3490044E+002  0.1599559E+01  0.7818608E-02  0.3353843E+00
         11   -1    0    0    0    0  0.00000000000E+00  0.00000000000E+00  0.39999999674E+01  0.40000000000E+01  0.51100000000E-03 0.  1.
    9000002   -1    0    0    0    0 -0.00000000000E+00 -0.00000000000E+00  0.00000000000E+00  0.93800000000E+00  0.93800000000E+00 0.  1.
         11    1    1    2    0    0  0.16220695909E-03  0.44450266150E-01  0.42216496415E+00  0.42449896414E+00  0.51100000000E-03 0.  1.
    9000002    1    1    2    0    0 -0.70994473783E-01 -0.43490089054E+00  0.13180544031E+00  0.10446988437E+01  0.93800000000E+00 0.  1.
         22    1    1    2    0    0  0.70832266824E-01  0.39045062439E+00  0.34460295629E+01  0.34688021922E+01  0.00000000000E+00 0.  1.
</event>
<event>
 5    1  0.3490044E+002  0.1599647E+01  0.7818608E-02  0.3353747E+00
         11   -1    0    0    0    0  0.00000000000E+00  0.00000000000E+00  0.39999999674E+01  0.40000000000E+01  0.51100000000E-03 0.  1.
    9000002   -1    0    0    0    0 -0.00000000000E+00 -0.00000000000E+00  0.00000000000E+00  0.93800000000E+00  0.93800000000E+00 0.  1.
         11    1    1    2    0    0  0.16588552437E+00  0.19632561479E-01  0.16451621181E+01  0.16536209059E+01  0.51100000000E-03 0.  1.
    9000002    1    1    2    0    0 -0.39724046267E+00 -0.31646569764E-01  0.10711953741E+00  0.10247536708E+01  0.93800000000E+00 0.  1.
         22    1    1    2    0    0  0.23135493830E+00  0.12014008285E-01  0.22477183119E+01  0.22596254232E+01  0.00000000000E+00 0.  1.
</event>
<event>
 5    1  0.3490044E+002  0.1599677E+01  0.7818608E-02  0.3353714E+00
         11   -1    0    0    0    0  0.00000000000E+00  0.00000000000E+00  0.39999999674E+01  0.40000000000E+01  0.51100000000E-03 0. -1.
    9000002   -1    0    0    0    0 -0.00000000000E+00 -0.00000000000E+00  0.00000000000E+00  0.93800000000E+00  0.93800000000E+00 0.  1.
         11    1    1    2    0    0 -0.12260374684E+00  0.22257696756E+00  0.21588719291E+01  0.21737756215E+01  0.51100000000E-03 0. -1.
    9000002    1    1    2    0    0  0.21884072064E+00 -0.39806448943E+00  0.14023579694E+00  0.10515972031E+01  0.93800000000E+00 0.  1.
         22    1    1    2    0    0 -0.96236973807E-01  0.17548752187E+00  0.17008922413E+01  0.17126271755E+01  0.00000000000E+00 0.  1.
</event>
<event>
 5    1  0.3490044E+002  0.1599602E+01  0.7818608E-02  0.3353795E+00
         11   -1    0    0    0    0  0.00000000000E+00  0.00000000000E+00  0.39999999674E+01  0.40000000000E+01  0.51100000000E-03 0.  1.
    9000002   -1    0    0    0    0 -0.00000000000E+00 -0.00000000000E+00  0.00000000000E+00  0.93800000000E+00  0.93800000000E+00 0.  1.
         11    1    1    2    0    0 -0.10200893047E+00  0.11295399735E+00  0.14702584453E+01  0.14781152135E+01  0.51100000000E-03 0.  1.
    9000002    1    1    2    0    0  0.24600980525E+00 -0.28940609723E+00  0.97134698475E-01  0.10166394951E+01  0.93800000000E+00 0.  1.
         22    1    1    2    0    0 -0.14400087478E+00  0.17645209988E+00  0.24326068236E+01  0.24432452914E+01  0.00000000000E+00 0.  1.
</event>
<event>
 5    1  0.3490044E+002  0.1599580E+01  0.7818608E-02  0.3353819E+00
         11   -1    0    0    0    0  0.00000000000E+00  0.00000000000E+00  0.39999999674E+01  0.40000000000E+01  0.51100000000E-03 0.  1.
    9000002   -1    0    0    0    0 -0.00000000000E+00 -0.00000000000E+00  0.00000000000E+00  0.93800000000E+00  0.93800000000E+00 0. -1.
         11    1    1    2    0    0 -0.60450062284E-02  0.12481198424E-01  0.86250977152E-01  0.87360257527E-01  0.51100000000E-03 0.  1.
    9000002    1    1    2    0    0  0.26585200103E+00 -0.40025699270E+00  0.15763394978E+00  0.10656338061E+01  0.93800000000E+00 0. -1.
         22    1    1    2    0    0 -0.25980699480E+00  0.38777579428E+00  0.37561150404E+01  0.37850059363E+01  0.00000000000E+00 0.  1.
</event>
<event>
 5    1  0.3490044E+002  0.1599676E+01  0.7818608E-02  0.3353715E+00
         11   -1    0    0    0    0  0.00000000000E+00  0.00000000000E+00  0.39999999674E+01  0.40000000000E+01  0.51100000000E-03 0.  1.
    9000002   -1    0    0    0    0 -0.00000000000E+00 -0.00000000000E+00  0.00000000000E+00  0.93800000000E+00  0.93800000000E+00 0. -1.
         11    1    1    2    0    0 -0.16424872447E-01  0.83614807874E-02  0.29692107783E+00  0.29749298879E+00  0.51100000000E-03 0.  1.
    9000002    1    1    2    0    0  0.21990188003E+00 -0.10927566290E+00  0.40042297825E-01  0.97043567173E+00  0.93800000000E+00 0. -1.
         22    1    1    2    0    0 -0.20347700758E+00  0.10091418211E+00  0.36630365917E+01  0.36700713395E+01  0.00000000000E+00 0.  1.
</event>
<event>
 5    1  0.3490044E+002  0.1599658E+01  0.7818608E-02  0.3353734E+00
         11   -1    0    0    0    0  0.00000000000E+00  0.00000000000E+00  0.39999999674E+01  0.40000000000E+01  0.51100000000E-03 0. -1.
    9000002   -1    0    0    0    0 -0.00000000000E+00 -0.00000000000E+00  0.00000000000E+00  0.93800000000E+00  0.93800000000E+00 0.  1.
         11    1    1    2    0    0 -0.14401909738E-01  0.11698355085E+00  0.10111583690E+01  0.10180049481E+01  0.51100000000E-03 0. -1.
    9000002    1    1    2    0    0  0.37818653965E-01 -0.44941816101E+00  0.13818736214E+00  0.10499269885E+01  0.93800000000E+00 0.  1.
         22    1    1    2    0    0 -0.23416744227E-01  0.33243461016E+00  0.28506542363E+01  0.28700680634E+01  0.00000000000E+00 0. -1.
</event>
<event>
 5    1  0.3490044E+002  0.1598692E+01  0.7818608E-02  0.3354784E+00
         11   -1    0    0    0    0  0.00000000000E+00  0.00000000000E+00  0.39999999674E+01  0.40000000000E+01  0.51100000000E-03 0. -1.
    9000002   -1    0    0    0    0 -0.00000000000E+00 -0.00000000000E+00  0.00000000000E+00  0.93800000000E+00  0.93800000000E+00 0. -1.
         11    1    1    2    0    0 -0.51831190969E-01  0.52360944167E-01  0.15857536742E+01  0.15874643672E+01  0.51100000000E-03 0. -1.
    9000002    1    1    2    0    0  0.17543483483E+00 -0.21032315407E+00  0.50687548898E-01  0.97848170040E+00  0.93800000000E+00 0. -1.
         22    1    1    2    0    0 -0.12360364386E+00  0.15796220991E+00  0.23635587442E+01  0.23720539324E+01  0.00000000000E+00 0. -1.
</event>
<event>
 5    1  0.3490044E+002  0.1599657E+01  0.7818608E-02  0.3353736E+00
         11   -1    0    0    0    0  0.00000000000E+00  0.00000000000E+00  0.39999999674E+01  0.40000000000E+01  0.51100000000E-03 0. -1.
    9000002   -1    0    0    0    0 -0.00000000000E+00 -0.00000000000E+00  0.00000000000E+00  0.93800000000E+00  0.93800000000E+00 0. -1.
         11    1    1    2    0    0 -0.82581162397E-02 -0.68049176165E-01  0.79791170980E+00  0.80085095031E+00  0.51100000000E-03 0.  1.
    9000002    1    1    2    0    0  0.56814784389E-01  0.32109033195E+00  0.71128552350E-01  0.99560543990E+00  0.93800000000E+00 0. -1.
         22    1    1    2    0    0 -0.48556668149E-01 -0.25304115579E+00  0.31309597052E+01  0.31415436098E+01  0.00000000000E+00 0. -1.
</event>
<event>
 5    1  0.3490044E+002  0.1598493E+01  0.7818608E-02  0.3355001E+00
         11   -1    0    0    0    0  0.00000000000E+00  0.00000000000E+00  0.39999999674E+01  0.40000000000E+01  0.51100000000E-03 0.  1.
    9000002   -1    0    0    0    0 -0.00000000000E+00 -0.00000000000E+00  0.00000000000E+00  0.93800000000E+00  0.93800000000E+00 0. -1.
         11    1    1    2    0    0 -0.44623891729E-01 -0.22913095525E+00  0.15860686993E+01  0.16031551598E+01  0.51100000000E-03 0.  1.
    9000002    1    1    2    0    0  0.55168214239E-01  0.62156711722E+00  0.27432365374E+00  0.11595200214E+01  0.93800000000E+00 0. -1.
         22    1    1    2    0    0 -0.10544322511E-01 -0.39243616196E+00  0.21396076143E+01  0.21753248188E+01  0.00000000000E+00 0.  1.
</event>
<event>
 5    1  0.3490044E+002  0.1597553E+01  0.7818608E-02  0.3356024E+00
         11   -1    0    0    0    0  0.00000000000E+00  0.00000000000E+00  0.39999999674E+01  0.40000000000E+01  0.51100000000E-03 0. -1.
    9000002   -1    0    0    0    0 -0.00000000000E+00 -0.00000000000E+00  0.00000000000E+00  0.93800000000E+00  0.93800000000E+00 0.  1.
         11    1    1    2    0    0  0.44025979104E-01  0.18830040507E-01  0.32843778666E+00  0.33191037659E+00  0.51100000000E-03 0. -1.
    9000002    1    1    2    0    0 -0.16054451060E+00 -0.20815092160E+00  0.47584238171E-01  0.97529975175E+00  0.93800000000E+00 0.  1.
         22    1    1    2    0    0  0.11651853149E+00  0.18932088109E+00  0.36239779425E+01  0.36307898717E+01  0.00000000000E+00 0. -1.
</event>
<event>
 5    1  0.3490044E+002  0.1599458E+01  0.7818608E-02  0.3353951E+00
         11   -1    0    0    0    0  0.00000000000E+00  0.00000000000E+00  0.39999999674E+01  0.40000000000E+01  0.51100000000E-03 0.  1.
    9000002   -1    0    0    0    0 -0.00000000000E+00 -0.00000000000E+00  0.00000000000E+00  0.93800000000E+00  0.93800000000E+00 0. -1.
         11    1    1    2    0    0  0.10247288610E-01  0.18627804354E-01  0.21147039177E+00  0.21253703145E+00  0.51100000000E-03 0.  1.
    9000002    1    1    2    0    0 -0.89082702603E-01 -0.23920431832E+00  0.43466557450E-01  0.97308158724E+00  0.93800000000E+00 0. -1.
         22    1    1    2    0    0  0.78835413993E-01  0.22057651397E+00  0.37450630181E+01  0.37523813813E+01  0.00000000000E+00 0.  1.
</event>
<event>
 5    1  0.3490044E+002  0.1599669E+01  0.7818608E-02  0.3353723E+00
         11   -1    0    0    0    0  0.00000000000E+00  0.00000000000E+00  0.39999999674E+01  0.40000000000E+01  0.51100000000E-03 0. -1.
    9000002   -1    0    0    0    0 -0.00000000000E+00 -0.00000000000E+00  0.00000000000E+00  0.93800000000E+00  0.93800000000E+00 0.  1.
         11    1    1    2    0    0 -0.57926376357E-01 -0.28768152956E+00  0.22368737692E+01  0.22560409234E+01  0.51100000000E-03 0. -1.
    9000002    1    1    2    0    0  0.10006639283E+00  0.49758899420E+00  0.17658068503E+00  0.10810332226E+01  0.93800000000E+00 0.  1.
         22    1    1    2    0    0 -0.42140016469E-01 -0.20990746463E+00  0.15865455131E+01  0.16009258540E+01  0.00000000000E+00 0. -1.
</event>
<event>
 5    1  0.3490044E+002  0.1599676E+01  0.7818608E-02  0.3353715E+00
         11   -1    0    0    0    0  0.00000000000E+00  0.00000000000E+00  0.39999999674E+01  0.40000000000E+01  0.51100000000E-03 0. -1.
    9000002   -1    0    0    0    0 -0.00000000000E+00 -0.00000000000E+00  0.00000000000E+00  0.93800000000E+00  0.93800000000E+00 0. -1.
         11    1    1    2    0    0 -0.26128596759E+00 -0.43597017379E-01  0.14546019965E+01  0.14785257137E+01  0.51100000000E-03 0. -1.
    9000002    1    1    2    0    0  0.66355318844E+00  0.11233021194E+00  0.32142012982E+00  0.11983638055E+01  0.93800000000E+00 0. -1.
         22    1    1    2    0    0 -0.40226722086E+00 -0.68733194562E-01  0.22239778411E+01  0.22611104808E+01  0.00000000000E+00 0. -1.
</event>
<event>
 5    1  0.3490044E+002  0.1599671E+01  0.7818608E-02  0.3353721E+00
         11   -1    0    0    0    0  0.00000000000E+00  0.00000000000E+00  0.39999999674E+01  0.40000000000E+01  0.51100000000E-03 0.  1.
    9000002   -1    0    0    0    0 -0.00000000000E+00 -0.00000000000E+00  0.00000000000E+00  0.93800000000E+00  0.93800000000E+00 0.  1.
         11    1    1    2    0    0 -0.32583291452E-01 -0.45329578915E-01  0.75208697038E+00  0.75415616006E+00  0.51100000000E-03 0.  1.
    9000002    1    1    2    0    0  0.18260333112E+00  0.23557438102E+00  0.59259767527E-01  0.98599948559E+00  0.93800000000E+00 0.  1.
         22    1    1    2    0    0 -0.15002003967E+00 -0.19024480211E+00  0.31886532294E+01  0.31978443544E+01  0.00000000000E+00 0.  1.
</event>
<event>
 5    1  0.3490044E+002  0.1590618E+01  0.7818608E-02  0.3363610E+00
         11   -1    0    0    0    0  0.00000000000E+00  0.00000000000E+00  0.39999999674E+01  0.40000000000E+01  0.51100000000E-03 0.  1.
    9000002   -1    0    0    0    0 -0.00000000000E+00 -0.00000000000E+00  0.00000000000E+00  0.93800000000E+00  0.93800000000E+00 0.  1.
         11    1    1    2    0    0 -0.76859481755E-01 -0.10955432207E-01  0.48300390114E+00  0.48920387475E+00  0.51100000000E-03 0.  1.
    9000002    1    1    2    0    0  0.14464067558E+00  0.47115241594E+00  0.17423852806E+00  0.10738289383E+01  0.93800000000E+00 0.  1.
         22    1    1    2    0    0 -0.67781193827E-01 -0.46019698373E+00  0.33427575382E+01  0.33749671869E+01  0.00000000000E+00 0.  1.
</event>
<event>
 5    1  0.3490044E+002  0.1599566E+01  0.7818608E-02  0.3353835E+00
         11   -1    0    0    0    0  0.00000000000E+00  0.00000000000E+00  0.39999999674E+01  0.40000000000E+01  0.51100000000E-03 0.  1.
    9000002   -1    0    0    0    0 -0.00000000000E+00 -0.00000000000E+00  0.00000000000E+00  0.93800000000E+00  0.93800000000E+00 0.  1.
         11    1    1    2    0    0  0.53111059689E-02 -0.20630288460E-02  0.21053264150E+00  0.21061034683E+00  0.51100000000E-03 0.  1.
    9000002    1    1    2    0    0 -0.18608714771E+00  0.10247931294E+00  0.29983975930E-01  0.96222319393E+00  0.93800000000E+00 0.  1.
         22    1    1    2    0    0  0.18077604174E+00 -0.10041628409E+00  0.37594833499E+01  0.37651664592E+01  0.00000000000E+00 0.  1.
</event>
<event>
 5    1  0.3490044E+002  0.1597348E+01  0.7818608E-02  0.3356247E+00
         11   -1    0    0    0    0  0.00000000000E+00  0.00000000000E+00  0.39999999674E+01  0.40000000000E+01  0.51100000000E-03 0. -1.
    9000002   -1    0    0    0    0 -0.00000000000E+00 -0.00000000000E+00  0.00000000000E+00  0.93800000000E+00  0.93800000000E+00 0. -1.
         11    1    1    2    0    0  0.27971334773E-02 -0.24658282161E+00  0.14449674458E+01  0.14658588242E+01  0.51100000000E-03 0. -1.
    9000002    1    1    2    0    0 -0.54175029036E-01  0.50897516321E+00  0.18183269002E+00  0.10839270168E+01  0.93800000000E+00 0. -1.
         22    1    1    2    0    0  0.51377895559E-01 -0.26239234160E+00  0.23731998315E+01  0.23882141590E+01  0.00000000000E+00 0. -1.
</event>
<event>
 5    1  0.3490044E+002  0.1599637E+01  0.7818608E-02  0.3353757E+00
         11   -1    0    0    0    0  0.00000000000E+00  0.00000000000E+00  0.39999999674E+01  0.40000000000E+01  0.51100000000E-03 0.  1.
    9000002   -1    0    0    0    0 -0.00000000000E+00 -0.00000000000E+00  0.00000000000E+00  0.93800000000E+00  0.93800000000E+00 0.  1.
         11    1    1    2    0    0 -0.48476772782E+00 -0.23827620170E+00  0.25436294874E+01  0.26003512317E+01  0.51100000000E-03 0.  1.
    9000002    1    1    2    0    0  0.67402326007E+00  0.33559064329E+00  0.41139949160E+00  0.12712285305E+01  0.93800000000E+00 0.  1.
         22    1    1    2    0    0 -0.18925553224E+00 -0.97314441582E-01  0.10449709884E+01  0.10664202378E+01  0.00000000000E+00 0.  1.
</event>
<event>
 5    1  0.3490044E+002  0.1598925E+01  0.7818608E-02  0.3354531E+00
         11   -1    0    0    0    0  0.00000000000E+00  0.00000000000E+00  0.39999999674E+01  0.40000000000E+01  0.51100000000E-03 0.  1.
    9000002   -1    0    0    0    0 -0.00000000000E+00 -0.00000000000E+00  0.00000000000E+00  0.93800000000E+00  0.93800000000E+00 0. -1.
         11    1    1    2    0    0 -0.22554020609E-02  0.11589308703E-01  0.26864581787E+00  0.26890562563E+00  0.51100000000E-03 0.  1.
    9000002    1    1    2    0    0 -0.21076613379E+00 -0.18239821115E+00  0.52312845659E-01  0.97993474497E+00  0.93800000000E+00 0. -1.
         22    1    1    2    0    0  0.21302153585E+00  0.17080890245E+00  0.36790413038E+01  0.36891596294E+01  0.00000000000E+00 0.  1.
</event>
<event>
 5    1  0.3490044E+002  0.1530427E+01  0.7818608E-02  0.3432519E+00
         11   -1    0    0    0    0  0.00000000000E+00  0.00000000000E+00  0.39999999674E+01  0.40000000000E+01  0.51100000000E-03 0. -1.
    9000002   -1    0    0    0    0 -0.00000000000E+00 -0.00000000000E+00  0.00000000000E+00  0.93800000000E+00  0.93800000000E+00 0. -1.
         11    1    1    2    0    0 -0.91524351815E-01 -0.34182875840E+00  0.31618007361E+01  0.31815417274E+01  0.51100000000E-03 0. -1.
    9000002    1    1    2    0    0  0.54826607193E-01  0.11647756663E+00  0.63618503530E-01  0.94892797112E+00  0.93800000000E+00 0. -1.
         22    1    1    2    0    0  0.36697744623E-01  0.22535119177E+00  0.77458072772E+00  0.80753030151E+00  0.00000000000E+00 0.  1.
</event>
<event>
 5    1  0.3490044E+002  0.1587814E+01  0.7818608E-02  0.3366697E+00
         11   -1    0    0    0    0  0.00000000000E+00  0.00000000000E+00  0.39999999674E+01  0.40000000000E+01  0.51100000000E-03 0. -1.
    9000002   -1    0    0    0    0 -0.00000000000E+00 -0.00000000000E+00  0.00000000000E+00  0.93800000000E+00  0.93800000000E+00 0.  1.
         11    1    1    2    0    0 -0.21196890829E+00  0.32089237222E-01  0.13380951706E+01  0.13551603167E+01  0.51100000000E-03 0. -1.
    9000002    1    1    2    0    0  0.40218777071E+00 -0.38510143916E+00  0.22579952054E+00  0.11139513207E+01  0.93800000000E+00 0.  1.
         22    1    1    2    0    0 -0.19021886242E+00  0.35301220194E+00  0.24361052762E+01  0.24688883627E+01  0.00000000000E+00 0. -1.
</event>
<event>
 5    1  0.3490044E+002  0.1599670E+01  0.7818608E-02  0.3353721E+00
         11   -1    0    0    0    0  0.00000000000E+00  0.00000000000E+00  0.39999999674E+01  0.40000000000E+01  0.51100000000E-03 0.  1.
    9000002   -1    0    0    0    0 -0.00000000000E+00 -0.00000000000E+00  0.00000000000E+00  0.93800000000E+00  0.93800000000E+00 0. -1.
         11    1    1    2    0    0 -0.68933444767E-02  0.95492307953E-02  0.20480225780E+00  0.20514124872E+00  0.51100000000E-03 0.  1.
    9000002    1    1    2    0    0  0.10949244578E+00 -0.19228441397E+00  0.32462794116E-01  0.96429234392E+00  0.93800000000E+00 0. -1.
         22    1    1    2    0    0 -0.10259910131E+00  0.18273518317E+00  0.37627349154E+01  0.37685664074E+01  0.00000000000E+00 0.  1.
</event>
<event>
 5    1  0.3490044E+002  0.1599266E+01  0.7818608E-02  0.3354161E+00
         11   -1    0    0    0    0  0.00000000000E+00  0.00000000000E+00  0.39999999674E+01  0.40000000000E+01  0.51100000000E-03 0.  1.
    9000002   -1    0    0    0    0 -0.00000000000E+00 -0.00000000000E+00  0.00000000000E+00  0.93800000000E+00  0.93800000000E+00 0. -1.
         11    1    1    2    0    0 -0.76075337626E-03 -0.16987952513E-01  0.39086081233E+00  0.39123088453E+00  0.51100000000E-03 0.  1.
    9000002    1    1    2    0    0  0.12988380378E+00  0.25368759178E+00  0.54433623799E-01  0.98185244111E+00  0.93800000000E+00 0. -1.
         22    1    1    2    0    0 -0.12912305041E+00 -0.23669963926E+00  0.35547055312E+01  0.35649166744E+01  0.00000000000E+00 0.  1.
</event>
<event>
 5    1  0.3490044E+002  0.1599675E+01  0.7818608E-02  0.3353716E+00
         11   -1    0    0    0    0  0.00000000000E+00  0.00000000000E+00  0.39999999674E+01  0.40000000000E+01  0.51100000000E-03 0.  1.
    9000002   -1    0    0    0    0 -0.00000000000E+00 -0.00000000000E+00  0.00000000000E+00  0.93800000000E+00  0.93800000000E+00 0. -1.
         11    1    1    2    0    0 -0.26399777727E+00  0.22515182082E+00  0.16821802207E+01  0.17175909656E+01  0.51100000000E-03 0.  1.
    9000002    1    1    2    0    0  0.56456142099E+00 -0.48554919809E+00  0.40132307116E+00  0.12630882112E+01  0.93800000000E+00 0. -1.
         22    1    1    2    0    0 -0.30056364372E+00  0.26039737726E+00  0.19164966755E+01  0.19573208232E+01  0.00000000000E+00 0.  1.
</event>
<event>
 5    1  0.3490044E+002  0.1599677E+01  0.7818608E-02  0.3353714E+00
         11   -1    0    0    0    0  0.00000000000E+00  0.00000000000E+00  0.39999999674E+01  0.40000000000E+01  0.51100000000E-03 0.  1.
    9000002   -1    0    0    0    0 -0.00000000000E+00 -0.00000000000E+00  0.00000000000E+00  0.93800000000E+00  0.93800000000E+00 0. -1.
         11    1    1    2    0    0 -0.23513882006E+00 -0.26878964832E+00  0.22277732698E+01  0.22562163333E+01  0.51100000000E-03 0.  1.
    9000002    1    1    2    0    0  0.39654959485E+00  0.45217075239E+00  0.25244169450E+00  0.11424888532E+01  0.93800000000E+00 0. -1.
         22    1    1    2    0    0 -0.16141077479E+00 -0.18338110407E+00  0.15197850030E+01  0.15392948136E+01  0.00000000000E+00 0. -1.
</event>
<event>
 5    1  0.3490044E+002  0.1599675E+01  0.7818608E-02  0.3353716E+00
         11   -1    0    0    0    0  0.00000000000E+00  0.00000000000E+00  0.39999999674E+01  0.40000000000E+01  0.51100000000E-03 0. -1.
    9000002   -1    0    0    0    0 -0.00000000000E+00 -0.00000000000E+00  0.00000000000E+00  0.93800000000E+00  0.93800000000E+00 0.  1.
         11    1    1    2    0    0  0.30946606388E-01  0.45126091829E-02  0.45095497756E+00  0.45203839327E+00  0.51100000000E-03 0. -1.
    9000002    1    1    2    0    0 -0.26378265818E+00 -0.42498031785E-01  0.47487960792E-01  0.97646632296E+00  0.93800000000E+00 0.  1.
         22    1    1    2    0    0  0.23283605179E+00  0.37985422603E-01  0.35015570290E+01  0.35094952838E+01  0.00000000000E+00 0. -1.
</event>
<event>
 5    1  0.3490044E+002  0.1599558E+01  0.7818608E-02  0.3353843E+00
         11   -1    0    0    0    0  0.00000000000E+00  0.00000000000E+00  0.39999999674E+01  0.40000000000E+01  0.51100000000E-03 0. -1.
    9000002   -1    0    0    0    0 -0.00000000000E+00 -0.00000000000E+00  0.00000000000E+00  0.93800000000E+00  0.93800000000E+00 0. -1.
         11    1    1    2    0    0 -0.25719372556E-02 -0.79410882139E-02  0.98863900394E-01  0.99216972668E-01  0.51100000000E-03 0. -1.
    9000002    1    1    2    0    0 -0.52897078605E-01  0.36149044906E+00  0.89747157061E-01  0.10106295057E+01  0.93800000000E+00 0. -1.
         22    1    1    2    0    0  0.55469015861E-01 -0.35354936085E+00  0.38113889099E+01  0.38281535216E+01  0.00000000000E+00 0. -1.
</event>
<event>
 5    1  0.3490044E+002  0.1599676E+01  0.7818608E-02  0.3353715E+00
         11   -1    0    0    0    0  0.00000000000E+00  0.00000000000E+00  0.39999999674E+01  0.40000000000E+01  0.51100000000E-03 0. -1.
    9000002   -1    0    0    0    0 -0.00000000000E+00 -0.00000000000E+00  0.00000000000E+00  0.93800000000E+00  0.93800000000E+00 0.  1.
         11    1    1    2    0    0  0.38306625728E-02  0.13135735444E-01  0.18886341925E+00  0.18935911326E+00  0.51100000000E-03 0.  1.
    9000002    1    1    2    0    0 -0.86828669164E-01 -0.27337429949E+00  0.54820441982E-01  0.98240623281E+00  0.93800000000E+00 0.  1.
         22    1    1    2    0    0  0.82998006591E-01  0.26023856405E+00  0.37563161061E+01  0.37662346539E+01  0.00000000000E+00 0. -1.
</event>
<event>
 5    1  0.3490044E+002  0.1598859E+01  0.7818608E-02  0.3354603E+00
         11   -1    0    0    0    0  0.00000000000E+00  0.00000000000E+00  0.39999999674E+01  0.40000000000E+01  0.51100000000E-03 0.  1.
    9000002   -1    0    0    0    0 -0.00000000000E+00 -0.00000000000E+00  0.00000000000E+00  0.93800000000E+00  0.93800000000E+00 0.  1.
         11    1    1    2    0    0  0.11546568352E+00  0.48349922915E-02  0.10215063809E+01  0.10280229806E+01  0.51100000000E-03 0.  1.
    9000002    1    1    2    0    0 -0.32797207246E+00 -0.66147414073E-02  0.72635094374E-01  0.99635801400E+00  0.93800000000E+00 0.  1.
         22    1    1    2    0    0  0.21250638894E+00  0.17797491158E-02  0.29058584921E+01  0.29136190054E+01  0.00000000000E+00 0.  1.
</event>
<event>
 5    1  0.3490044E+002  0.1599671E+01  0.7818608E-02  0.3353721E+00
         11   -1    0    0    0    0  0.00000000000E+00  0.00000000000E+00  0.39999999674E+01  0.40000000000E+01  0.51100000000E-03 0. -1.
    9000002   -1    0    0    0    0 -0.00000000000E+00 -0.00000000000E+00  0.00000000000E+00  0.93800000000E+00  0.93800000000E+00 0. -1.
         11    1    1    2    0    0 -0.12364201464E-01 -0.53367344680E-03  0.20344614334E+00  0.20382284623E+00  0.51100000000E-03 0. -1.
    9000002    1    1    2    0    0  0.22298127711E+00  0.27189843448E-01  0.33463319750E-01  0.96510296409E+00  0.93800000000E+00 0. -1.
         22    1    1    2    0    0 -0.21061707565E+00 -0.26656170001E-01  0.37630905043E+01  0.37690741897E+01  0.00000000000E+00 0. -1.
</event>
<event>
 5    1  0.3490044E+002  0.1599676E+01  0.7818608E-02  0.3353715E+00
         11   -1    0    0    0    0  0.00000000000E+00  0.00000000000E+00  0.39999999674E+01  0.40000000000E+01  0.51100000000E-03 0.  1.
    9000002   -1    0    0    0    0 -0.00000000000E+00 -0.00000000000E+00  0.00000000000E+00  0.93800000000E+00  0.93800000000E+00 0.  1.
         11    1    1    2    0    0 -0.21755421989E+00 -0.43973450882E-01  0.18958963152E+01  0.19088443106E+01  0.51100000000E-03 0.  1.
    9000002    1    1    2    0    0  0.44150657358E+00  0.91428547190E-01  0.13808815406E+00  0.10498569293E+01  0.93800000000E+00 0.  1.
         22    1    1    2    0    0 -0.22395235369E+00 -0.47455096308E-01  0.19660154981E+01  0.19792987601E+01  0.00000000000E+00 0.  1.
</event>
<event>
 5    1  0.3490044E+002  0.1588652E+01  0.7818608E-02  0.3365773E+00
         11   -1    0    0    0    0  0.00000000000E+00  0.00000000000E+00  0.39999999674E+01  0.40000000000E+01  0.51100000000E-03 0. -1.
    9000002   -1    0    0    0    0 -0.00000000000E+00 -0.00000000000E+00  0.00000000000E+00  0.93800000000E+00  0.93800000000E+00 0. -1.
         11    1    1    2    0    0 -0.60962739998E-01 -0.45800842513E-01  0.22283049116E+00  0.23551616028E+00  0.51100000000E-03 0. -1.
    9000002    1    1    2    0    0  0.57187743076E+00 -0.14051478824E+00  0.25229826753E+00  0.11359078384E+01  0.93800000000E+00 0. -1.
         22    1    1    2    0    0 -0.51091469076E+00  0.18631563076E+00  0.35248712087E+01  0.35665760013E+01  0.00000000000E+00 0. -1.
</event>
<event>
 5    1  0.4098505E+002  0.1503398E+01  0.7818608E-02  0.3465383E+00
         11   -1    0    0    0    0  0.00000000000E+00  0.00000000000E+00  0.39999999674E+01  0.40000000000E+01  0.51100000000E-03 0.  1.
    9000002   -1    0    0    0    0 -0.00000000000E+00 -0.00000000000E+00  0.00000000000E+00  0.93800000000E+00  0.93800000000E+00 0. -1.
         11    1    1    2    0    0 -0.43149391460E-02 -0.67763316699E-01 -0.44128808374E-03  0.67903914807E-01  0.51100000000E-03 0.  1.
    9000002    1    1    2    0    0  0.11323842418E+00 -0.10426982453E+00  0.90487422828E-01  0.95484402428E+00  0.93800000000E+00 0. -1.
         22    1    1    2    0    0 -0.10892348504E+00  0.17203314123E+00  0.39099538326E+01  0.39152520609E+01  0.00000000000E+00 0.  1.
</event>
<event>
 5    1  0.3490044E+002  0.1599677E+01  0.7818608E-02  0.3353714E+00
         11   -1    0    0    0    0  0.00000000000E+00  0.00000000000E+00  0.39999999674E+01  0.40000000000E+01  0.51100000000E-03 0.  1.
    9000002   -1    0    0    0    0 -0.00000000000E+00 -0.00000000000E+00  0.00000000000E+00  0.93800000000E+00  0.93800000000E+00 0.  1.
         11    1    1    2    0    0 -0.23683813663E+00  0.15987469594E+00  0.20488553064E+01  0.20686857057E+01  0.51100000000E-03 0.  1.
    9000002    1    1    2    0    0  0.44102547946E+00 -0.29667794971E+00  0.19446976055E+00  0.10955289896E+01  0.93800000000E+00 0.  1.
         22    1    1    2    0    0 -0.20418734283E+00  0.13680325377E+00  0.17566749004E+01  0.17737853046E+01  0.00000000000E+00 0.  1.
</event>
<event>
 5    1  0.3490044E+002  0.1595833E+01  0.7818608E-02  0.3357898E+00
         11   -1    0    0    0    0  0.00000000000E+00  0.00000000000E+00  0.39999999674E+01  0.40000000000E+01  0.51100000000E-03 0.  1.
    9000002   -1    0    0    0    0 -0.00000000000E+00 -0.00000000000E+00  0.00000000000E+00  0.93800000000E+00  0.93800000000E+00 0. -1.
         11    1    1    2    0    0 -0.39810511846E-01 -0.10568525102E+00  0.84785255474E+00  0.85534113945E+00  0.51100000000E-03 0.  1.
    9000002    1    1    2    0    0  0.29678682789E+00  0.22669644143E+00  0.96917594685E-01  0.10142537739E+01  0.93800000000E+00 0. -1.
         22    1    1    2    0    0 -0.25697631604E+00 -0.12101119041E+00  0.30552298179E+01  0.30684050866E+01  0.00000000000E+00 0.  1.
</event>
<event>
 5    1  0.3490044E+002  0.1599677E+01  0.7818608E-02  0.3353714E+00
         11   -1    0    0    0    0  0.00000000000E+00  0.00000000000E+00  0.39999999674E+01  0.40000000000E+01  0.51100000000E-03 0.  1.
    9000002   -1    0    0    0    0 -0.00000000000E+00 -0.00000000000E+00  0.00000000000E+00  0.93800000000E+00  0.93800000000E+00 0. -1.
         11    1    1    2    0    0  0.21557507648E+00  0.78677693308E-01  0.18874406455E+01  0.19013403810E+01  0.51100000000E-03 0.  1.
    9000002    1    1    2    0    0 -0.43838407609E+00 -0.16013179832E+00  0.14831551338E+00  0.10581419009E+01  0.93800000000E+00 0. -1.
         22    1    1    2    0    0  0.22280899961E+00  0.81454105013E-01  0.19642438085E+01  0.19785177181E+01  0.00000000000E+00 0. -1.
</event>
<event>
 5    1  0.3490044E+002  0.1599556E+01  0.7818608E-02  0.3353846E+00
         11   -1    0    0    0    0  0.00000000000E+00  0.00000000000E+00  0.39999999674E+01  0.40000000000E+01  0.51100000000E-03 0.  1.
    9000002   -1    0    0    0    0 -0.00000000000E+00 -0.00000000000E+00  0.00000000000E+00  0.93800000000E+00  0.93800000000E+00 0.  1.
         11    1    1    2    0    0  0.20061548784E+00  0.32867432135E+00  0.21994149545E+01  0.22328680630E+01  0.51100000000E-03 0.  1.
    9000002    1    1    2    0    0 -0.31880583719E+00 -0.54670085921E+00  0.28161403478E+00  0.11660486507E+01  0.93800000000E+00 0.  1.
         22    1    1    2    0    0  0.11819034935E+00  0.21802653786E+00  0.15189709780E+01  0.15390832863E+01  0.00000000000E+00 0. -1.
</event>
<event>
 5    1  0.3490044E+002  0.1599031E+01  0.7818608E-02  0.3354415E+00
         11   -1    0    0    0    0  0.00000000000E+00  0.00000000000E+00  0.39999999674E+01  0.40000000000E+01  0.51100000000E-03 0.  1.
    9000002   -1    0    0    0    0 -0.00000000000E+00 -0.00000000000E+00  0.00000000000E+00  0.93800000000E+00  0.93800000000E+00 0. -1.
         11    1    1    2    0    0 -0.10563627630E+00 -0.61944694689E-01  0.16048081140E+01  0.16094736754E+01  0.51100000000E-03 0.  1.
    9000002    1    1    2    0    0  0.23833486033E+00  0.22242033325E+00  0.71589559987E-01  0.99561206069E+00  0.93800000000E+00 0. -1.
         22    1    1    2    0    0 -0.13269858403E+00 -0.16047563856E+00  0.23236022934E+01  0.23329142639E+01  0.00000000000E+00 0. -1.
</event>
<event>
 5    1  0.3490044E+002  0.1598945E+01  0.7818608E-02  0.3354510E+00
         11   -1    0    0    0    0  0.00000000000E+00  0.00000000000E+00  0.39999999674E+01  0.40000000000E+01  0.51100000000E-03 0. -1.
    9000002   -1    0    0    0    0 -0.00000000000E+00 -0.00000000000E+00  0.00000000000E+00  0.93800000000E+00  0.93800000000E+00 0. -1.
         11    1    1    2    0    0  0.31522651274E-01 -0.18252745026E-02  0.37678093106E+00  0.37810202367E+00  0.51100000000E-03 0. -1.
    9000002    1    1    2    0    0 -0.18912031443E+00  0.16109938834E+00  0.41554174519E-01  0.97123130905E+00  0.93800000000E+00 0. -1.
         22    1    1    2    0    0  0.15759766316E+00 -0.15927411383E+00  0.35816648618E+01  0.35886666673E+01  0.00000000000E+00 0. -1.
</event>
<event>
 5    1  0.3490044E+002  0.1599669E+01  0.7818608E-02  0.3353723E+00
         11   -1    0    0    0    0  0.00000000000E+00  0.00000000000E+00  0.39999999674E+01  0.40000000000E+01  0.51100000000E-03 0.  1.
    9000002   -1    0    0    0    0 -0.00000000000E+00 -0.00000000000E+00  0.00000000000E+00  0.93800000000E+00  0.93800000000E+00 0.  1.
         11    1    1    2    0    0  0.13183046879E+00  0.35820811544E+00  0.20997401434E+01  0.21341511796E+01  0.51100000000E-03 0.  1.
    9000002    1    1    2    0    0 -0.23317613335E+00 -0.62306931636E+00  0.31348622367E+00  0.11919329237E+01  0.93800000000E+00 0.  1.
         22    1    1    2    0    0  0.10134566456E+00  0.26486120092E+00  0.15867736003E+01  0.16119158967E+01  0.00000000000E+00 0.  1.
</event>
<event>
 5    1  0.3490044E+002  0.1599169E+01  0.7818608E-02  0.3354266E+00
         11   -1    0    0    0    0  0.00000000000E+00  0.00000000000E+00  0.39999999674E+01  0.40000000000E+01  0.51100000000E-03 0. -1.
    9000002   -1    0    0    0    0 -0.00000000000E+00 -0.00000000000E+00  0.00000000000E+00  0.93800000000E+00  0.93800000000E+00 0. -1.
         11    1    1    2    0    0  0.52839885573E+00  0.33046659736E+00  0.25770247896E+01  0.26513148719E+01  0.51100000000E-03 0. -1.
    9000002    1    1    2    0    0 -0.72805821055E+00 -0.46342849582E+00  0.56219505373E+00  0.13931051673E+01  0.93800000000E+00 0. -1.
         22    1    1    2    0    0  0.19965935481E+00  0.13296189846E+00  0.86078012400E+00  0.89357996077E+00  0.00000000000E+00 0. -1.
</event>
<event>
 5    1  0.3490044E+002  0.1599676E+01  0.7818608E-02  0.3353715E+00
         11   -1    0    0    0    0  0.00000000000E+00  0.00000000000E+00  0.39999999674E+01  0.40000000000E+01  0.51100000000E-03 0. -1.
    9000002   -1    0    0    0    0 -0.00000000000E+00 -0.00000000000E+00  0.00000000000E+00  0.93800000000E+00  0.93800000000E+00 0.  1.
         11    1    1    2    0    0  0.17778534630E+00 -0.14581927408E+00  0.19617581875E+01  0.19751876714E+01  0.51100000000E-03 0. -1.
    9000002    1    1    2    0    0 -0.34925039834E+00  0.28492808590E+00  0.13799864379E+00  0.10497844924E+01  0.93800000000E+00 0.  1.
         22    1    1    2    0    0  0.17146505205E+00 -0.13910881182E+00  0.19002431361E+01  0.19130278361E+01  0.00000000000E+00 0. -1.
</event>
<event>
 5    1  0.3490044E+002  0.1599677E+01  0.7818608E-02  0.3353714E+00
         11   -1    0    0    0    0  0.00000000000E+00  0.00000000000E+00  0.39999999674E+01  0.40000000000E+01  0.51100000000E-03 0.  1.
    9000002   -1    0    0    0    0 -0.00000000000E+00 -0.00000000000E+00  0.00000000000E+00  0.93800000000E+00  0.93800000000E+00 0.  1.
         11    1    1    2    0    0 -0.55886958128E-01 -0.27073332055E+00  0.21487214678E+01  0.21664311875E+01  0.51100000000E-03 0.  1.
    9000002    1    1    2    0    0  0.10030859291E+00  0.48233504548E+00  0.16594513721E+00  0.10724228170E+01  0.93800000000E+00 0.  1.
         22    1    1    2    0    0 -0.44421634787E-01 -0.21160172493E+00  0.16853333623E+01  0.16991459954E+01  0.00000000000E+00 0.  1.
</event>
<event>
 5    1  0.3490044E+002  0.1597623E+01  0.7818608E-02  0.3355948E+00
         11   -1    0    0    0    0  0.00000000000E+00  0.00000000000E+00  0.39999999674E+01  0.40000000000E+01  0.51100000000E-03 0.  1.
    9000002   -1    0    0    0    0 -0.00000000000E+00 -0.00000000000E+00  0.00000000000E+00  0.93800000000E+00  0.93800000000E+00 0.  1.
         11    1    1    2    0    0 -0.30893816865E-01  0.54519309638E-01  0.57264318955E+00  0.57606186013E+00  0.51100000000E-03 0.  1.
    9000002    1    1    2    0    0 -0.51000362043E-01 -0.39979300609E+00  0.11132368735E+00  0.10269724670E+01  0.93800000000E+00 0.  1.
         22    1    1    2    0    0  0.81894178908E-01  0.34527369646E+00  0.33160330905E+01  0.33349656728E+01  0.00000000000E+00 0.  1.
</event>
<event>
 5    1  0.3490044E+002  0.1599209E+01  0.7818608E-02  0.3354222E+00
         11   -1    0    0    0    0  0.00000000000E+00  0.00000000000E+00  0.39999999674E+01  0.40000000000E+01  0.51100000000E-03 0.  1.
    9000002   -1    0    0    0    0 -0.00000000000E+00 -0.00000000000E+00  0.00000000000E+00  0.93800000000E+00  0.93800000000E+00 0.  1.
         11    1    1    2    0    0  0.70069635650E-01 -0.13933069237E+00  0.15728952793E+01  0.15806083058E+01  0.51100000000E-03 0.  1.
    9000002    1    1    2    0    0 -0.11110628132E+00  0.35376396189E+00  0.92791342980E-01  0.10128908035E+01  0.93800000000E+00 0.  1.
         22    1    1    2    0    0  0.41036645668E-01 -0.21443326952E+00  0.23343133451E+01  0.23445008907E+01  0.00000000000E+00 0.  1.
</event>
<event>
 5    1  0.3490044E+002  0.1599676E+01  0.7818608E-02  0.3353715E+00
         11   -1    0    0    0    0  0.00000000000E+00  0.00000000000E+00  0.39999999674E+01  0.40000000000E+01  0.51100000000E-03 0. -1.
    9000002   -1    0    0    0    0 -0.00000000000E+00 -0.00000000000E+00  0.00000000000E+00  0.93800000000E+00  0.93800000000E+00 0. -1.
         11    1    1    2    0    0 -0.31487233317E+00 -0.17046968639E+00  0.20532059079E+01  0.20841927121E+01  0.51100000000E-03 0. -1.
    9000002    1    1    2    0    0  0.56820855281E+00  0.30928801206E+00  0.29511215888E+00  0.11770536182E+01  0.93800000000E+00 0. -1.
         22    1    1    2    0    0 -0.25333621964E+00 -0.13881832567E+00  0.16516819006E+01  0.16767536696E+01  0.00000000000E+00 0. -1.
</event>
<event>
 5    1  0.3490044E+002  0.1594844E+01  0.7818608E-02  0.3358979E+00
         11   -1    0    0    0    0  0.00000000000E+00  0.00000000000E+00  0.39999999674E+01  0.40000000000E+01  0.51100000000E-03 0. -1.
    9000002   -1    0    0    0    0 -0.00000000000E+00 -0.00000000000E+00  0.00000000000E+00  0.93800000000E+00  0.93800000000E+00 0.  1.
         11    1    1    2    0    0  0.63517327940E-01 -0.19175815647E-01  0.10784844672E+01  0.10805235628E+01  0.51100000000E-03 0. -1.
    9000002    1    1    2    0    0 -0.30957825815E+00 -0.18990579010E+00  0.92507876596E-01  0.10101012891E+01  0.93800000000E+00 0.  1.
         22    1    1    2    0    0  0.24606093021E+00  0.20908160574E+00  0.28290076236E+01  0.28473751480E+01  0.00000000000E+00 0. -1.
</event>
<event>
 5    1  0.3490044E+002  0.1595324E+01  0.7818608E-02  0.3358454E+00
         11   -1    0    0    0    0  0.00000000000E+00  0.00000000000E+00  0.39999999674E+01  0.40000000000E+01  0.51100000000E-03 0.  1.
    9000002   -1    0    0    0    0 -0.00000000000E+00 -0.00000000000E+00  0.00000000000E+00  0.93800000000E+00  0.93800000000E+00 0. -1.
         11    1    1    2    0    0  0.31668488584E+00 -0.17599814299E+00  0.25890954764E+01  0.26143221512E+01  0.51100000000E-03 0.  1.
    9000002    1    1    2    0    0 -0.53039335429E+00  0.17312599239E+00  0.21948742471E+00  0.11132423138E+01  0.93800000000E+00 0. -1.
         22    1    1    2    0    0  0.21370846845E+00  0.28721506057E-02  0.11914170662E+01  0.12104355350E+01  0.00000000000E+00 0. -1.
</event>
<event>
 5    1  0.3490044E+002  0.1494720E+01  0.7818608E-02  0.3476206E+00
         11   -1    0    0    0    0  0.00000000000E+00  0.00000000000E+00  0.39999999674E+01  0.40000000000E+01  0.51100000000E-03 0.  1.
    9000002   -1    0    0    0    0 -0.00000000000E+00 -0.00000000000E+00  0.00000000000E+00  0.93800000000E+00  0.93800000000E+00 0. -1.
         11    1    1    2    0    0  0.93330332442E-01 -0.29580366397E+00  0.97401585680E+00  0.10222120665E+01  0.51100000000E-03 0.  1.
    9000002    1    1    2    0    0  0.21962489874E+00 -0.36017146729E-01  0.11683145585E+00  0.97109521680E+00  0.93800000000E+00 0. -1.
         22    1    1    2    0    0 -0.31295523119E+00  0.33182081070E+00  0.29091526547E+01  0.29446927167E+01  0.00000000000E+00 0.  1.
</event>
<event>
 5    1  0.3490044E+002  0.1512586E+01  0.7818608E-02  0.3454071E+00
         11   -1    0    0    0    0  0.00000000000E+00  0.00000000000E+00  0.39999999674E+01  0.40000000000E+01  0.51100000000E-03 0.  1.
    9000002   -1    0    0    0    0 -0.00000000000E+00 -0.00000000000E+00  0.00000000000E+00  0.93800000000E+00  0.93800000000E+00 0. -1.
         11    1    1    2    0    0 -0.19301903687E-01 -0.74088008645E-01  0.16233798666E-01  0.78264895394E-01  0.51100000000E-03 0.  1.
    9000002    1    1    2    0    0 -0.23071193099E+00 -0.71422986302E-02  0.10455252158E+00  0.97162453515E+00  0.93800000000E+00 0. -1.
         22    1    1    2    0    0  0.25001383468E+00  0.81230307275E-01  0.38792136471E+01  0.38881105695E+01  0.00000000000E+00 0.  1.
</event>
<event>
 5    1  0.3490044E+002  0.1503187E+01  0.7818608E-02  0.3465644E+00
         11   -1    0    0    0    0  0.00000000000E+00  0.00000000000E+00  0.39999999674E+01  0.40000000000E+01  0.51100000000E-03 0.  1.
    9000002   -1    0    0    0    0 -0.00000000000E+00 -0.00000000000E+00  0.00000000000E+00  0.93800000000E+00  0.93800000000E+00 0. -1.
         11    1    1    2    0    0  0.26714728249E+00 -0.16293151778E+00  0.31352346988E+01  0.31508112016E+01  0.51100000000E-03 0.  1.
    9000002    1    1    2    0    0 -0.60623328486E-01 -0.57030329892E-01  0.78419917442E-01  0.94494514652E+00  0.93800000000E+00 0. -1.
         22    1    1    2    0    0 -0.20652395401E+00  0.21996184767E+00  0.78634535108E+00  0.84224365191E+00  0.00000000000E+00 0.  1.
</event>
<event>
 5    1  0.3490044E+002  0.1599677E+01  0.7818608E-02  0.3353714E+00
         11   -1    0    0    0    0  0.00000000000E+00  0.00000000000E+00  0.39999999674E+01  0.40000000000E+01  0.51100000000E-03 0.  1.
    9000002   -1    0    0    0    0 -0.00000000000E+00 -0.00000000000E+00  0.00000000000E+00  0.93800000000E+00  0.93800000000E+00 0.  1.
         11    1    1    2    0    0  0.64536169580E+00  0.30203805261E-01  0.25850016796E+01  0.26645145774E+01  0.51100000000E-03 0.  1.
    9000002    1    1    2    0    0 -0.85957203537E+00 -0.39905192796E-01  0.55760489705E+00  0.13896847591E+01  0.93800000000E+00 0.  1.
         22    1    1    2    0    0  0.21421033957E+00  0.97013875347E-02  0.85739339070E+00  0.88380066356E+00  0.00000000000E+00 0. -1.
</event>
<event>
 5    1  0.3490044E+002  0.1594840E+01  0.7818608E-02  0.3358983E+00
         11   -1    0    0    0    0  0.00000000000E+00  0.00000000000E+00  0.39999999674E+01  0.40000000000E+01  0.51100000000E-03 0. -1.
    9000002   -1    0    0    0    0 -0.00000000000E+00 -0.00000000000E+00  0.00000000000E+00  0.93800000000E+00  0.93800000000E+00 0. -1.
         11    1    1    2    0    0  0.11005611152E-01  0.20237037790E-01  0.64643866880E-01  0.68627631619E-01  0.51100000000E-03 0. -1.
    9000002    1    1    2    0    0 -0.43007215670E+00  0.69609873287E-01  0.13279036608E+00  0.10427295314E+01  0.93800000000E+00 0. -1.
         22    1    1    2    0    0  0.41906654555E+00 -0.89846911077E-01  0.38025657344E+01  0.38266428369E+01  0.00000000000E+00 0. -1.
</event>
<event>
 5    1  0.3490044E+002  0.1599671E+01  0.7818608E-02  0.3353720E+00
         11   -1    0    0    0    0  0.00000000000E+00  0.00000000000E+00  0.39999999674E+01  0.40000000000E+01  0.51100000000E-03 0. -1.
    9000002   -1    0    0    0    0 -0.00000000000E+00 -0.00000000000E+00  0.00000000000E+00  0.93800000000E+00  0.93800000000E+00 0.  1.
         11    1    1    2    0    0 -0.47089846199E-02  0.14620929595E-01  0.20183834978E+00  0.20242264370E+00  0.51100000000E-03 0. -1.
    9000002    1    1    2    0    0  0.69280159544E-01 -0.28195270434E+00  0.56190356458E-01  0.98351330655E+00  0.93800000000E+00 0.  1.
         22    1    1    2    0    0 -0.64571174924E-01  0.26733177475E+00  0.37419712611E+01  0.37520640498E+01  0.00000000000E+00 0. -1.
</event>
<event>
 5    1  0.3490044E+002  0.1599596E+01  0.7818608E-02  0.3353802E+00
         11   -1    0    0    0    0  0.00000000000E+00  0.00000000000E+00  0.39999999674E+01  0.40000000000E+01  0.51100000000E-03 0.  1.
    9000002   -1    0    0    0    0 -0.00000000000E+00 -0.00000000000E+00  0.00000000000E+00  0.93800000000E+00  0.93800000000E+00 0.  1.
         11    1    1    2    0    0 -0.14287210591E-01 -0.39804698680E-01  0.69721635404E+00  0.69849799132E+00  0.51100000000E-03 0.  1.
    9000002    1    1    2    0    0  0.39342118586E-01  0.24705323611E+00  0.41635711515E-01  0.97167928672E+00  0.93800000000E+00 0.  1.
         22    1    1    2    0    0 -0.25054907995E-01 -0.20724853743E+00  0.32611479018E+01  0.32678227220E+01  0.00000000000E+00 0.  1.
</event>
<event>
 5    1  0.3490044E+002  0.1599676E+01  0.7818608E-02  0.3353715E+00
         11   -1    0    0    0    0  0.00000000000E+00  0.00000000000E+00  0.39999999674E+01  0.40000000000E+01  0.51100000000E-03 0.  1.
    9000002   -1    0    0    0    0 -0.00000000000E+00 -0.00000000000E+00  0.00000000000E+00  0.93800000000E+00  0.93800000000E+00 0. -1.
         11    1    1    2    0    0 -0.34713389015E-01  0.56122891084E-01  0.95751249255E+00  0.95978395110E+00  0.51100000000E-03 0.  1.
    9000002    1    1    2    0    0  0.14013129240E+00 -0.23499516165E+00  0.49823888463E-01  0.97835879153E+00  0.93800000000E+00 0. -1.
         22    1    1    2    0    0 -0.10541790338E+00  0.17887227057E+00  0.29926635863E+01  0.29998572574E+01  0.00000000000E+00 0.  1.
</event>
<event>
 5    1  0.3490044E+002  0.1599637E+01  0.7818608E-02  0.3353758E+00
         11   -1    0    0    0    0  0.00000000000E+00  0.00000000000E+00  0.39999999674E+01  0.40000000000E+01  0.51100000000E-03 0.  1.
    9000002   -1    0    0    0    0 -0.00000000000E+00 -0.00000000000E+00  0.00000000000E+00  0.93800000000E+00  0.93800000000E+00 0. -1.
         11    1    1    2    0    0  0.15037650525E-01 -0.34762625742E-01  0.50953304978E+00  0.51093909717E+00  0.51100000000E-03 0.  1.
    9000002    1    1    2    0    0 -0.14936012398E+00  0.28930255392E+00  0.70925328148E-01  0.99542896106E+00  0.93800000000E+00 0. -1.
         22    1    1    2    0    0  0.13432247346E+00 -0.25453992818E+00  0.34195415894E+01  0.34316319418E+01  0.00000000000E+00 0.  1.
</event>
<event>
 5    1  0.3490044E+002  0.1599676E+01  0.7818608E-02  0.3353716E+00
         11   -1    0    0    0    0  0.00000000000E+00  0.00000000000E+00  0.39999999674E+01  0.40000000000E+01  0.51100000000E-03 0. -1.
    9000002   -1    0    0    0    0 -0.00000000000E+00 -0.00000000000E+00  0.00000000000E+00  0.93800000000E+00  0.93800000000E+00 0.  1.
         11    1    1    2    0    0 -0.37318755615E-01  0.63013780664E-01  0.10321089915E+01  0.10347041400E+01  0.51100000000E-03 0. -1.
    9000002    1    1    2    0    0  0.14445437538E+00 -0.23663167095E+00  0.51172327904E-01  0.97945097958E+00  0.93800000000E+00 0.  1.
         22    1    1    2    0    0 -0.10713561976E+00  0.17361789029E+00  0.29167186480E+01  0.29238448804E+01  0.00000000000E+00 0. -1.
</event>
<event>
 5    1  0.3490044E+002  0.1511401E+01  0.7818608E-02  0.3455521E+00
         11   -1    0    0    0    0  0.00000000000E+00  0.00000000000E+00  0.39999999674E+01  0.40000000000E+01  0.51100000000E-03 0.  1.
    9000002   -1    0    0    0    0 -0.00000000000E+00 -0.00000000000E+00  0.00000000000E+00  0.93800000000E+00  0.93800000000E+00 0.  1.
         11    1    1    2    0    0  0.48378238169E+00 -0.34254369764E-01  0.14598081812E+01  0.15382649128E+01  0.51100000000E-03 0.  1.
    9000002    1    1    2    0    0 -0.37883089285E+00  0.35081743377E+00  0.26873336862E+00  0.11039236118E+01  0.93800000000E+00 0.  1.
         22    1    1    2    0    0 -0.10495148885E+00 -0.31656306400E+00  0.22714584175E+01  0.22958114755E+01  0.00000000000E+00 0. -1.
</event>
<event>
 5    1  0.3490044E+002  0.1599649E+01  0.7818608E-02  0.3353744E+00
         11   -1    0    0    0    0  0.00000000000E+00  0.00000000000E+00  0.39999999674E+01  0.40000000000E+01  0.51100000000E-03 0.  1.
    9000002   -1    0    0    0    0 -0.00000000000E+00 -0.00000000000E+00  0.00000000000E+00  0.93800000000E+00  0.93800000000E+00 0.  1.
         11    1    1    2    0    0 -0.82718436114E-03  0.58631431765E-03  0.10741857890E-01  0.10801695718E-01  0.51100000000E-03 0. -1.
    9000002    1    1    2    0    0  0.15308119333E+00 -0.18071909312E+00  0.37246865444E-01  0.96815524135E+00  0.93800000000E+00 0.  1.
         22    1    1    2    0    0 -0.15225400896E+00  0.18013277880E+00  0.39520112440E+01  0.39590430629E+01  0.00000000000E+00 0.  1.
</event>
<event>
 5    1  0.3490044E+002  0.1544440E+01  0.7818608E-02  0.3415966E+00
         11   -1    0    0    0    0  0.00000000000E+00  0.00000000000E+00  0.39999999674E+01  0.40000000000E+01  0.51100000000E-03 0. -1.
    9000002   -1    0    0    0    0 -0.00000000000E+00 -0.00000000000E+00  0.00000000000E+00  0.93800000000E+00  0.93800000000E+00 0.  1.
         11    1    1    2    0    0  0.34142704757E-01  0.98841982049E-01  0.92424536627E-01  0.13956366932E+00  0.51100000000E-03 0. -1.
    9000002    1    1    2    0    0 -0.24732934061E+00 -0.22474265661E+00  0.12020591166E+00  0.10029828142E+01  0.93800000000E+00 0.  1.
         22    1    1    2    0    0  0.21318663586E+00  0.12590067456E+00  0.37873695191E+01  0.37954535165E+01  0.00000000000E+00 0. -1.
</event>
<event>
 5    1  0.3490044E+002  0.1599673E+01  0.7818608E-02  0.3353719E+00
         11   -1    0    0    0    0  0.00000000000E+00  0.00000000000E+00  0.39999999674E+01  0.40000000000E+01  0.51100000000E-03 0.  1.
    9000002   -1    0    0    0    0 -0.00000000000E+00 -0.00000000000E+00  0.00000000000E+00  0.93800000000E+00  0.93800000000E+00 0. -1.
         11    1    1    2    0    0 -0.53700427063E-01  0.32087038945E-01  0.72419652113E+00  0.72689351096E+00  0.51100000000E-03 0.  1.
    9000002    1    1    2    0    0  0.28126216373E+00 -0.17769035532E+00  0.74079484815E-01  0.99800502864E+00  0.93800000000E+00 0. -1.
         22    1    1    2    0    0 -0.22756173667E+00  0.14560331637E+00  0.32017239614E+01  0.32131014604E+01  0.00000000000E+00 0.  1.
</event>
<event>
 5    1  0.3490044E+002  0.1599537E+01  0.7818608E-02  0.3353867E+00
         11   -1    0    0    0    0  0.00000000000E+00  0.00000000000E+00  0.39999999674E+01  0.40000000000E+01  0.51100000000E-03 0. -1.
    9000002   -1    0    0    0    0 -0.00000000000E+00 -0.00000000000E+00  0.00000000000E+00  0.93800000000E+00  0.93800000000E+00 0. -1.
         11    1    1    2    0    0  0.18092040901E-01  0.26093152711E-01  0.65910368092E+00  0.65986824282E+00  0.51100000000E-03 0. -1.
    9000002    1    1    2    0    0 -0.16549395450E+00 -0.18585415704E+00  0.41243179297E-01  0.97132642119E+00  0.93800000000E+00 0. -1.
         22    1    1    2    0    0  0.14740191360E+00  0.15976100433E+00  0.32996531071E+01  0.33068053360E+01  0.00000000000E+00 0. -1.
</event>
<event>
 5    1  0.3490044E+002  0.1596066E+01  0.7818608E-02  0.3357645E+00
         11   -1    0    0    0    0  0.00000000000E+00  0.00000000000E+00  0.39999999674E+01  0.40000000000E+01  0.51100000000E-03 0. -1.
    9000002   -1    0    0    0    0 -0.00000000000E+00 -0.00000000000E+00  0.00000000000E+00  0.93800000000E+00  0.93800000000E+00 0.  1.
         11    1    1    2    0    0 -0.62201233941E-02  0.26054455122E-02  0.12581352380E+01  0.12581534153E+01  0.51100000000E-03 0. -1.
    9000002    1    1    2    0    0  0.20477950349E+00  0.95510726351E-01  0.36594959024E-01  0.96552583338E+00  0.93800000000E+00 0.  1.
         22    1    1    2    0    0 -0.19855938010E+00 -0.98116171864E-01  0.27052697703E+01  0.27143207513E+01  0.00000000000E+00 0. -1.
</event>
<event>
 5    1  0.3490044E+002  0.1599676E+01  0.7818608E-02  0.3353715E+00
         11   -1    0    0    0    0  0.00000000000E+00  0.00000000000E+00  0.39999999674E+01  0.40000000000E+01  0.51100000000E-03 0. -1.
    9000002   -1    0    0    0    0 -0.00000000000E+00 -0.00000000000E+00  0.00000000000E+00  0.93800000000E+00  0.93800000000E+00 0.  1.
         11    1    1    2    0    0  0.86479842826E-01  0.54513513220E-01  0.10037575027E+01  0.10089498856E+01  0.51100000000E-03 0. -1.
    9000002    1    1    2    0    0 -0.33299500773E+00 -0.21326641163E+00  0.10541263641E+00  0.10233885193E+01  0.93800000000E+00 0.  1.
         22    1    1    2    0    0  0.24651516491E+00  0.15875289841E+00  0.28908298282E+01  0.29056615951E+01  0.00000000000E+00 0. -1.
</event>
<event>
 5    1  0.3490044E+002  0.1599676E+01  0.7818608E-02  0.3353715E+00
         11   -1    0    0    0    0  0.00000000000E+00  0.00000000000E+00  0.39999999674E+01  0.40000000000E+01  0.51100000000E-03 0.  1.
    9000002   -1    0    0    0    0 -0.00000000000E+00 -0.00000000000E+00  0.00000000000E+00  0.93800000000E+00  0.93800000000E+00 0.  1.
         11    1    1    2    0    0 -0.28735523462E-01  0.11221734882E-01  0.34231148172E+00  0.34369909700E+00  0.51100000000E-03 0.  1.
    9000002    1    1    2    0    0  0.32363122167E+00 -0.13176657447E+00  0.81864712521E-01  0.10043134117E+01  0.93800000000E+00 0.  1.
         22    1    1    2    0    0 -0.29489569821E+00  0.12054483959E+00  0.35758237731E+01  0.35899874913E+01  0.00000000000E+00 0.  1.
</event>
<event>
 5    1  0.3490044E+002  0.1599639E+01  0.7818608E-02  0.3353756E+00
         11   -1    0    0    0    0  0.00000000000E+00  0.00000000000E+00  0.39999999674E+01  0.40000000000E+01  0.51100000000E-03 0.  1.
    9000002   -1    0    0    0    0 -0.00000000000E+00 -0.00000000000E+00  0.00000000000E+00  0.93800000000E+00  0.93800000000E+00 0.  1.
         11    1    1    2    0    0 -0.28804350270E-01  0.19804771019E+00  0.19418452343E+01  0.19521310820E+01  0.51100000000E-03 0.  1.
    9000002    1    1    2    0    0  0.45289755100E-01 -0.40485691392E+00  0.11208278333E+00  0.10287695723E+01  0.93800000000E+00 0.  1.
         22    1    1    2    0    0 -0.16485404829E-01  0.20680920373E+00  0.19460719497E+01  0.19570993457E+01  0.00000000000E+00 0.  1.
</event>
<event>
 5    1  0.3490044E+002  0.1599647E+01  0.7818608E-02  0.3353746E+00
         11   -1    0    0    0    0  0.00000000000E+00  0.00000000000E+00  0.39999999674E+01  0.40000000000E+01  0.51100000000E-03 0. -1.
    9000002   -1    0    0    0    0 -0.00000000000E+00 -0.00000000000E+00  0.00000000000E+00  0.93800000000E+00  0.93800000000E+00 0. -1.
         11    1    1    2    0    0  0.48690946622E-01  0.18028750776E+00  0.16247942525E+01  0.16354910632E+01  0.51100000000E-03 0. -1.
    9000002    1    1    2    0    0 -0.11747129704E+00 -0.41439259433E+00  0.12567955403E+00  0.10397884776E+01  0.93800000000E+00 0. -1.
         22    1    1    2    0    0  0.68780350414E-01  0.23410508657E+00  0.22495261608E+01  0.22627204591E+01  0.00000000000E+00 0. -1.
</event>
<event>
 5    1  0.3490044E+002  0.1599675E+01  0.7818608E-02  0.3353716E+00
         11   -1    0    0    0    0  0.00000000000E+00  0.00000000000E+00  0.39999999674E+01  0.40000000000E+01  0.51100000000E-03 0. -1.
    9000002   -1    0    0    0    0 -0.00000000000E+00 -0.00000000000E+00  0.00000000000E+00  0.93800000000E+00  0.93800000000E+00 0. -1.
         11    1    1    2    0    0  0.15072225338E-01 -0.76702051118E-03  0.25117431642E+00  0.25162781771E+00  0.51100000000E-03 0.  1.
    9000002    1    1    2    0    0 -0.24061187046E+00  0.22609810107E-01  0.38775254465E-01  0.96940847741E+00  0.93800000000E+00 0. -1.
         22    1    1    2    0    0  0.22553964512E+00 -0.21842789596E-01  0.37100503965E+01  0.37169637049E+01  0.00000000000E+00 0. -1.
</event>
<event>
 5    1  0.3490044E+002  0.1599575E+01  0.7818608E-02  0.3353824E+00
         11   -1    0    0    0    0  0.00000000000E+00  0.00000000000E+00  0.39999999674E+01  0.40000000000E+01  0.51100000000E-03 0.  1.
    9000002   -1    0    0    0    0 -0.00000000000E+00 -0.00000000000E+00  0.00000000000E+00  0.93800000000E+00  0.93800000000E+00 0.  1.
         11    1    1    2    0    0 -0.14997596170E+00  0.10956581700E-02  0.12375607379E+01  0.12466157510E+01  0.51100000000E-03 0.  1.
    9000002    1    1    2    0    0  0.43406813968E+00 -0.89245359528E-02  0.12781693427E+00  0.10414777798E+01  0.93800000000E+00 0.  1.
         22    1    1    2    0    0 -0.28409217798E+00  0.78288777828E-02  0.26346222952E+01  0.26499064691E+01  0.00000000000E+00 0.  1.
</event>
<event>
 5    1  0.3490044E+002  0.1599675E+01  0.7818608E-02  0.3353716E+00
         11   -1    0    0    0    0  0.00000000000E+00  0.00000000000E+00  0.39999999674E+01  0.40000000000E+01  0.51100000000E-03 0.  1.
    9000002   -1    0    0    0    0 -0.00000000000E+00 -0.00000000000E+00  0.00000000000E+00  0.93800000000E+00  0.93800000000E+00 0. -1.
         11    1    1    2    0    0  0.14593335936E+00 -0.31372141155E-01  0.13762872590E+01  0.13843582041E+01  0.51100000000E-03 0.  1.
    9000002    1    1    2    0    0 -0.40737008351E+00  0.87666648396E-01  0.11737975304E+00  0.10330817163E+01  0.93800000000E+00 0. -1.
         22    1    1    2    0    0  0.26143672415E+00 -0.56294507241E-01  0.25063329553E+01  0.25205600796E+01  0.00000000000E+00 0.  1.
</event>
<event>
 5    1  0.3490044E+002  0.1599659E+01  0.7818608E-02  0.3353734E+00
         11   -1    0    0    0    0  0.00000000000E+00  0.00000000000E+00  0.39999999674E+01  0.40000000000E+01  0.51100000000E-03 0. -1.
    9000002   -1    0    0    0    0 -0.00000000000E+00 -0.00000000000E+00  0.00000000000E+00  0.93800000000E+00  0.93800000000E+00 0.  1.
         11    1    1    2    0    0 -0.36595363363E-02  0.36409033598E-01  0.46183026956E+00  0.46327796078E+00  0.51100000000E-03 0. -1.
    9000002    1    1    2    0    0  0.31081530716E-02 -0.31025267025E+00  0.64297464995E-01  0.99007299934E+00  0.93800000000E+00 0.  1.
         22    1    1    2    0    0  0.55138326467E-03  0.27384363665E+00  0.34738722328E+01  0.34846490399E+01  0.00000000000E+00 0. -1.
</event>
<event>
 5    1  0.3490044E+002  0.1598696E+01  0.7818608E-02  0.3354780E+00
         11   -1    0    0    0    0  0.00000000000E+00  0.00000000000E+00  0.39999999674E+01  0.40000000000E+01  0.51100000000E-03 0.  1.
    9000002   -1    0    0    0    0 -0.00000000000E+00 -0.00000000000E+00  0.00000000000E+00  0.93800000000E+00  0.93800000000E+00 0. -1.
         11    1    1    2    0    0 -0.37612311412E-02 -0.12016043121E-02  0.12990481827E-01  0.13586922084E-01  0.51100000000E-03 0.  1.
    9000002    1    1    2    0    0 -0.16784420394E+00  0.25755173093E+00  0.63860791081E-01  0.98915457414E+00  0.93800000000E+00 0. -1.
         22    1    1    2    0    0  0.17160543508E+00 -0.25635012662E+00  0.39231486945E+01  0.39352585038E+01  0.00000000000E+00 0.  1.
</event>
<event>
 5    1  0.3490044E+002  0.1599562E+01  0.7818608E-02  0.3353839E+00
         11   -1    0    0    0    0  0.00000000000E+00  0.00000000000E+00  0.39999999674E+01  0.40000000000E+01  0.51100000000E-03 0.  1.
    9000002   -1    0    0    0    0 -0.00000000000E+00 -0.00000000000E+00  0.00000000000E+00  0.93800000000E+00  0.93800000000E+00 0.  1.
         11    1    1    2    0    0 -0.12247648141E-01  0.50743515433E-02  0.34903715835E+00  0.34928921106E+00  0.51100000000E-03 0.  1.
    9000002    1    1    2    0    0  0.22200028421E+00 -0.55248572669E-01  0.34799568758E-01  0.96612190792E+00  0.93800000000E+00 0.  1.
         22    1    1    2    0    0 -0.20975263607E+00  0.50174221125E-01  0.36161632402E+01  0.36225888810E+01  0.00000000000E+00 0.  1.
</event>
<event>
 5    1  0.3490044E+002  0.1566024E+01  0.7818608E-02  0.3391086E+00
         11   -1    0    0    0    0  0.00000000000E+00  0.00000000000E+00  0.39999999674E+01  0.40000000000E+01  0.51100000000E-03 0. -1.
    9000002   -1    0    0    0    0 -0.00000000000E+00 -0.00000000000E+00  0.00000000000E+00  0.93800000000E+00  0.93800000000E+00 0. -1.
         11    1    1    2    0    0 -0.12944869701E-01  0.12384673663E+00  0.28554788632E+01  0.28581926778E+01  0.51100000000E-03 0. -1.
    9000002    1    1    2    0    0 -0.33835426461E-01  0.99413375792E-01  0.32275809328E-01  0.94441176572E+00  0.93800000000E+00 0. -1.
         22    1    1    2    0    0  0.46780296162E-01 -0.22326011242E+00  0.11122452948E+01  0.11353955565E+01  0.00000000000E+00 0. -1.
</event>
<event>
 5    1  0.3490044E+002  0.1597784E+01  0.7818608E-02  0.3355773E+00
         11   -1    0    0    0    0  0.00000000000E+00  0.00000000000E+00  0.39999999674E+01  0.40000000000E+01  0.51100000000E-03 0.  1.
    9000002   -1    0    0    0    0 -0.00000000000E+00 -0.00000000000E+00  0.00000000000E+00  0.93800000000E+00  0.93800000000E+00 0.  1.
         11    1    1    2    0    0  0.91040638409E-02  0.32647981727E-02  0.67080219682E+00  0.67087211246E+00  0.51100000000E-03 0.  1.
    9000002    1    1    2    0    0 -0.21360073443E+00  0.14857741846E+00  0.46463554926E-01  0.97452726230E+00  0.93800000000E+00 0.  1.
         22    1    1    2    0    0  0.20449667059E+00 -0.15184221664E+00  0.32827342156E+01  0.32926006252E+01  0.00000000000E+00 0.  1.
</event>
<event>
 5    1  0.3490044E+002  0.1595788E+01  0.7818608E-02  0.3357947E+00
         11   -1    0    0    0    0  0.00000000000E+00  0.00000000000E+00  0.39999999674E+01  0.40000000000E+01  0.51100000000E-03 0. -1.
    9000002   -1    0    0    0    0 -0.00000000000E+00 -0.00000000000E+00  0.00000000000E+00  0.93800000000E+00  0.93800000000E+00 0.  1.
         11    1    1    2    0    0  0.13799548385E+00  0.47158867113E-01  0.14711071213E+01  0.14783176708E+01  0.51100000000E-03 0. -1.
    9000002    1    1    2    0    0 -0.44880667064E+00 -0.28797626580E+00  0.19941495398E+00  0.10972547932E+01  0.93800000000E+00 0.  1.
         22    1    1    2    0    0  0.31081118679E+00  0.24081739868E+00  0.23294778921E+01  0.23624275360E+01  0.00000000000E+00 0.  1.
</event>
<event>
 5    1  0.3490044E+002  0.1547724E+01  0.7818608E-02  0.3412132E+00
         11   -1    0    0    0    0  0.00000000000E+00  0.00000000000E+00  0.39999999674E+01  0.40000000000E+01  0.51100000000E-03 0.  1.
    9000002   -1    0    0    0    0 -0.00000000000E+00 -0.00000000000E+00  0.00000000000E+00  0.93800000000E+00  0.93800000000E+00 0.  1.
         11    1    1    2    0    0 -0.15026642104E+00  0.13377443105E+00  0.10923650571E+01  0.11107372663E+01  0.51100000000E-03 0.  1.
    9000002    1    1    2    0    0 -0.13317700203E+00  0.90991286757E-01  0.56683711089E-01  0.95345297275E+00  0.93800000000E+00 0.  1.
         22    1    1    2    0    0  0.28344342307E+00 -0.22476571781E+00  0.28509511992E+01  0.28738097609E+01  0.00000000000E+00 0.  1.
</event>
<event>
 5    1  0.3490044E+002  0.1579664E+01  0.7818608E-02  0.3375736E+00
         11   -1    0    0    0    0  0.00000000000E+00  0.00000000000E+00  0.39999999674E+01  0.40000000000E+01  0.51100000000E-03 0.  1.
    9000002   -1    0    0    0    0 -0.00000000000E+00 -0.00000000000E+00  0.00000000000E+00  0.93800000000E+00  0.93800000000E+00 0. -1.
         11    1    1    2    0    0  0.10216288525E+00 -0.34870429905E-01  0.68972881235E+00  0.69812556013E+00  0.51100000000E-03 0.  1.
    9000002    1    1    2    0    0  0.44625105153E-01 -0.18962008502E+00  0.40237388274E-01  0.95885881342E+00  0.93800000000E+00 0. -1.
         22    1    1    2    0    0 -0.14678799040E+00  0.22449051492E+00  0.32700337667E+01  0.32810156264E+01  0.00000000000E+00 0.  1.
</event>
<event>
 5    1  0.3490044E+002  0.1579136E+01  0.7818608E-02  0.3376324E+00
         11   -1    0    0    0    0  0.00000000000E+00  0.00000000000E+00  0.39999999674E+01  0.40000000000E+01  0.51100000000E-03 0.  1.
    9000002   -1    0    0    0    0 -0.00000000000E+00 -0.00000000000E+00  0.00000000000E+00  0.93800000000E+00  0.93800000000E+00 0.  1.
         11    1    1    2    0    0 -0.49356396448E-01  0.83878156403E-01  0.10495341352E+01  0.10540368879E+01  0.51100000000E-03 0.  1.
    9000002    1    1    2    0    0 -0.20079198611E+00  0.10778907535E+00  0.50163218073E-01  0.96659001386E+00  0.93800000000E+00 0.  1.
         22    1    1    2    0    0  0.25014838256E+00 -0.19166723175E+00  0.29003026141E+01  0.29173730982E+01  0.00000000000E+00 0.  1.
</event>
<event>
 5    1  0.3490044E+002  0.1586686E+01  0.7818608E-02  0.3367942E+00
         11   -1    0    0    0    0  0.00000000000E+00  0.00000000000E+00  0.39999999674E+01  0.40000000000E+01  0.51100000000E-03 0.  1.
    9000002   -1    0    0    0    0 -0.00000000000E+00 -0.00000000000E+00  0.00000000000E+00  0.93800000000E+00  0.93800000000E+00 0. -1.
         11    1    1    2    0    0  0.43401379831E-01  0.93664318050E-01  0.17139980315E+01  0.17171040147E+01  0.51100000000E-03 0.  1.
    9000002    1    1    2    0    0 -0.26294322283E+00  0.51631169053E-01  0.57843456131E-01  0.97723834425E+00  0.93800000000E+00 0. -1.
         22    1    1    2    0    0  0.21954184300E+00 -0.14529548710E+00  0.22281584797E+01  0.22436576410E+01  0.00000000000E+00 0.  1.
</event>
<event>
 5    1  0.3490044E+002  0.1599677E+01  0.7818608E-02  0.3353715E+00
         11   -1    0    0    0    0  0.00000000000E+00  0.00000000000E+00  0.39999999674E+01  0.40000000000E+01  0.51100000000E-03 0. -1.
    9000002   -1    0    0    0    0 -0.00000000000E+00 -0.00000000000E+00  0.00000000000E+00  0.93800000000E+00  0.93800000000E+00 0.  1.
         11    1    1    2    0    0 -0.42441504975E+00  0.48344707712E+00  0.22457580410E+01  0.23360819016E+01  0.51100000000E-03 0. -1.
    9000002    1    1    2    0    0  0.62478869680E+00 -0.70991115453E+00  0.69909574500E+00  0.15042983825E+01  0.93800000000E+00 0.  1.
         22    1    1    2    0    0 -0.20037364705E+00  0.22646407742E+00  0.10551461813E+01  0.10976197159E+01  0.00000000000E+00 0. -1.
</event>
<event>
 5    1  0.3490044E+002  0.1567473E+01  0.7818608E-02  0.3389442E+00
         11   -1    0    0    0    0  0.00000000000E+00  0.00000000000E+00  0.39999999674E+01  0.40000000000E+01  0.51100000000E-03 0.  1.
    9000002   -1    0    0    0    0 -0.00000000000E+00 -0.00000000000E+00  0.00000000000E+00  0.93800000000E+00  0.93800000000E+00 0.  1.
         11    1    1    2    0    0  0.10320991801E+00 -0.21712090735E+00  0.19625447983E+01  0.19772142327E+01  0.51100000000E-03 0.  1.
    9000002    1    1    2    0    0 -0.32292697500E+00  0.18724613263E-01  0.95944850335E-01  0.99683592262E+00  0.93800000000E+00 0.  1.
         22    1    1    2    0    0  0.21971705699E+00  0.19839629408E+00  0.19415103187E+01  0.19639498446E+01  0.00000000000E+00 0.  1.
</event>
<event>
 5    1  0.3490044E+002  0.1599601E+01  0.7818608E-02  0.3353796E+00
         11   -1    0    0    0    0  0.00000000000E+00  0.00000000000E+00  0.39999999674E+01  0.40000000000E+01  0.51100000000E-03 0. -1.
    9000002   -1    0    0    0    0 -0.00000000000E+00 -0.00000000000E+00  0.00000000000E+00  0.93800000000E+00  0.93800000000E+00 0.  1.
         11    1    1    2    0    0 -0.83645360684E-01  0.67730031467E-01  0.13157094723E+01  0.13201043823E+01  0.51100000000E-03 0. -1.
    9000002    1    1    2    0    0  0.27519594378E+00 -0.18737183273E+00  0.74244526678E-01  0.99809681941E+00  0.93800000000E+00 0.  1.
         22    1    1    2    0    0 -0.19155058310E+00  0.11964180126E+00  0.26100459684E+01  0.26197987983E+01  0.00000000000E+00 0. -1.
</event>
<event>
 5    1  0.3490044E+002  0.1599206E+01  0.7818608E-02  0.3354226E+00
         11   -1    0    0    0    0  0.00000000000E+00  0.00000000000E+00  0.39999999674E+01  0.40000000000E+01  0.51100000000E-03 0.  1.
    9000002   -1    0    0    0    0 -0.00000000000E+00 -0.00000000000E+00  0.00000000000E+00  0.93800000000E+00  0.93800000000E+00 0.  1.
         11    1    1    2    0    0  0.43035833207E-01  0.10065500684E-01  0.10017255609E+01  0.10027002332E+01  0.51100000000E-03 0.  1.
    9000002    1    1    2    0    0 -0.24720783331E+00 -0.85379752831E-01  0.45841361815E-01  0.97485734623E+00  0.93800000000E+00 0.  1.
         22    1    1    2    0    0  0.20417200011E+00  0.75314252147E-01  0.29524330446E+01  0.29604424205E+01  0.00000000000E+00 0.  1.
</event>
<event>
 5    1  0.3490044E+002  0.1599670E+01  0.7818608E-02  0.3353722E+00
         11   -1    0    0    0    0  0.00000000000E+00  0.00000000000E+00  0.39999999674E+01  0.40000000000E+01  0.51100000000E-03 0.  1.
    9000002   -1    0    0    0    0 -0.00000000000E+00 -0.00000000000E+00  0.00000000000E+00  0.93800000000E+00  0.93800000000E+00 0.  1.
         11    1    1    2    0    0 -0.40516730408E-01 -0.56014454314E-01  0.91865526024E+00  0.92125293640E+00  0.51100000000E-03 0.  1.
    9000002    1    1    2    0    0  0.17538178613E+00  0.25184666659E+00  0.62879027062E-01  0.98893037491E+00  0.93800000000E+00 0.  1.
         22    1    1    2    0    0 -0.13486505572E+00 -0.19583221228E+00  0.30184656801E+01  0.30278166887E+01  0.00000000000E+00 0.  1.
</event>
<event>
 5    1  0.3490044E+002  0.1574187E+01  0.7818608E-02  0.3381866E+00
         11   -1    0    0    0    0  0.00000000000E+00  0.00000000000E+00  0.39999999674E+01  0.40000000000E+01  0.51100000000E-03 0.  1.
    9000002   -1    0    0    0    0 -0.00000000000E+00 -0.00000000000E+00  0.00000000000E+00  0.93800000000E+00  0.93800000000E+00 0. -1.
         11    1    1    2    0    0 -0.32113791845E-01 -0.16634942351E-01  0.21445756980E-01  0.42049952998E-01  0.51100000000E-03 0.  1.
    9000002    1    1    2    0    0  0.27422688723E+00 -0.27565310292E-01  0.70540199505E-01  0.98019393579E+00  0.93800000000E+00 0. -1.
         22    1    1    2    0    0 -0.24211309539E+00  0.44200252644E-01  0.39080140109E+01  0.39157561112E+01  0.00000000000E+00 0.  1.
</event>
<event>
 5    1  0.3490044E+002  0.1592283E+01  0.7818608E-02  0.3361782E+00
         11   -1    0    0    0    0  0.00000000000E+00  0.00000000000E+00  0.39999999674E+01  0.40000000000E+01  0.51100000000E-03 0.  1.
    9000002   -1    0    0    0    0 -0.00000000000E+00 -0.00000000000E+00  0.00000000000E+00  0.93800000000E+00  0.93800000000E+00 0.  1.
         11    1    1    2    0    0 -0.36020323964E-01  0.12738562237E+00  0.13578105586E+01  0.13642486338E+01  0.51100000000E-03 0.  1.
    9000002    1    1    2    0    0  0.33656340710E+00 -0.20549774452E+00  0.11096827886E+00  0.10235537157E+01  0.93800000000E+00 0.  1.
         22    1    1    2    0    0 -0.30054308314E+00  0.78112122143E-01  0.25312211299E+01  0.25501976505E+01  0.00000000000E+00 0.  1.
</event>
<event>
 5    1  0.3490044E+002  0.1599517E+01  0.7818608E-02  0.3353888E+00
         11   -1    0    0    0    0  0.00000000000E+00  0.00000000000E+00  0.39999999674E+01  0.40000000000E+01  0.51100000000E-03 0.  1.
    9000002   -1    0    0    0    0 -0.00000000000E+00 -0.00000000000E+00  0.00000000000E+00  0.93800000000E+00  0.93800000000E+00 0.  1.
         11    1    1    2    0    0  0.17352526676E-01 -0.17171874368E-01  0.60750941871E+00  0.60799994934E+00  0.51100000000E-03 0.  1.
    9000002    1    1    2    0    0 -0.15248312618E+00  0.17204709733E+00  0.35178343824E-01  0.96640199883E+00  0.93800000000E+00 0.  1.
         22    1    1    2    0    0  0.13513059951E+00 -0.15487522297E+00  0.33573122048E+01  0.33635980518E+01  0.00000000000E+00 0.  1.
</event>
<event>
 5    1  0.3490044E+002  0.1599622E+01  0.7818608E-02  0.3353773E+00
         11   -1    0    0    0    0  0.00000000000E+00  0.00000000000E+00  0.39999999674E+01  0.40000000000E+01  0.51100000000E-03 0. -1.
    9000002   -1    0    0    0    0 -0.00000000000E+00 -0.00000000000E+00  0.00000000000E+00  0.93800000000E+00  0.93800000000E+00 0.  1.
         11    1    1    2    0    0  0.20635652177E-01  0.11923350219E-01  0.35535055236E+00  0.35614922800E+00  0.51100000000E-03 0. -1.
    9000002    1    1    2    0    0 -0.21360949597E+00 -0.79035533807E-01  0.34445939620E-01  0.96587067205E+00  0.93800000000E+00 0.  1.
         22    1    1    2    0    0  0.19297384379E+00  0.67112183588E-01  0.36102034754E+01  0.36159800999E+01  0.00000000000E+00 0. -1.
</event>
<event>
 5    1  0.3490044E+002  0.1599676E+01  0.7818608E-02  0.3353715E+00
         11   -1    0    0    0    0  0.00000000000E+00  0.00000000000E+00  0.39999999674E+01  0.40000000000E+01  0.51100000000E-03 0.  1.
    9000002   -1    0    0    0    0 -0.00000000000E+00 -0.00000000000E+00  0.00000000000E+00  0.93800000000E+00  0.93800000000E+00 0.  1.
         11    1    1    2    0    0  0.14699634360E+00 -0.26865867532E+00  0.22196542691E+01  0.22406808663E+01  0.51100000000E-03 0.  1.
    9000002    1    1    2    0    0 -0.25053711126E+00  0.46188790070E+00  0.18984908566E+00  0.10917856714E+01  0.93800000000E+00 0.  1.
         22    1    1    2    0    0  0.10354076766E+00 -0.19322922537E+00  0.15904966126E+01  0.16055334623E+01  0.00000000000E+00 0. -1.
</event>
<event>
 5    1  0.3490044E+002  0.1598817E+01  0.7818608E-02  0.3354648E+00
         11   -1    0    0    0    0  0.00000000000E+00  0.00000000000E+00  0.39999999674E+01  0.40000000000E+01  0.51100000000E-03 0. -1.
    9000002   -1    0    0    0    0 -0.00000000000E+00 -0.00000000000E+00  0.00000000000E+00  0.93800000000E+00  0.93800000000E+00 0.  1.
         11    1    1    2    0    0  0.35972122300E-01 -0.17780394896E-01  0.79440382371E+00  0.79541676640E+00  0.51100000000E-03 0. -1.
    9000002    1    1    2    0    0 -0.22608720345E+00  0.22007123825E+00  0.67186510572E-01  0.99191975516E+00  0.93800000000E+00 0.  1.
         22    1    1    2    0    0  0.19011508115E+00 -0.20229084336E+00  0.31384096331E+01  0.31506634784E+01  0.00000000000E+00 0. -1.
</event>
<event>
 5    1  0.3490044E+002  0.1595230E+01  0.7818608E-02  0.3358556E+00
         11   -1    0    0    0    0  0.00000000000E+00  0.00000000000E+00  0.39999999674E+01  0.40000000000E+01  0.51100000000E-03 0.  1.
    9000002   -1    0    0    0    0 -0.00000000000E+00 -0.00000000000E+00  0.00000000000E+00  0.93800000000E+00  0.93800000000E+00 0. -1.
         11    1    1    2    0    0  0.18172917906E-01  0.48200135611E-01  0.26189562877E+00  0.26691401145E+00  0.51100000000E-03 0.  1.
    9000002    1    1    2    0    0  0.97343775133E-01 -0.24869805994E+00  0.50877793493E-01  0.97660590079E+00  0.93800000000E+00 0. -1.
         22    1    1    2    0    0 -0.11551669304E+00  0.20049792433E+00  0.36872265451E+01  0.36944800878E+01  0.00000000000E+00 0.  1.
</event>
<event>
 5    1  0.3490044E+002  0.1583147E+01  0.7818608E-02  0.3371861E+00
         11   -1    0    0    0    0  0.00000000000E+00  0.00000000000E+00  0.39999999674E+01  0.40000000000E+01  0.51100000000E-03 0. -1.
    9000002   -1    0    0    0    0 -0.00000000000E+00 -0.00000000000E+00  0.00000000000E+00  0.93800000000E+00  0.93800000000E+00 0. -1.
         11    1    1    2    0    0 -0.37962890539E-01  0.43085866264E-01  0.22327954403E+01  0.22335338171E+01  0.51100000000E-03 0. -1.
    9000002    1    1    2    0    0 -0.10414417847E+00  0.13593699633E+00  0.31757743753E-01  0.95403219609E+00  0.93800000000E+00 0. -1.
         22    1    1    2    0    0  0.14210706901E+00 -0.17902286259E+00  0.17354467833E+01  0.17504339868E+01  0.00000000000E+00 0.  1.
</event>
<event>
 5    1  0.3490044E+002  0.1599662E+01  0.7818608E-02  0.3353730E+00
         11   -1    0    0    0    0  0.00000000000E+00  0.00000000000E+00  0.39999999674E+01  0.40000000000E+01  0.51100000000E-03 0.  1.
    9000002   -1    0    0    0    0 -0.00000000000E+00 -0.00000000000E+00  0.00000000000E+00  0.93800000000E+00  0.93800000000E+00 0.  1.
         11    1    1    2    0    0  0.26154782496E-01 -0.52580208516E-01  0.63842116914E+00  0.64111668306E+00  0.51100000000E-03 0.  1.
    9000002    1    1    2    0    0 -0.15086021338E+00  0.34047958382E+00  0.93240254901E-01  0.10135200522E+01  0.93800000000E+00 0.  1.
         22    1    1    2    0    0  0.12470543089E+00 -0.28789937530E+00  0.32683385433E+01  0.32833632648E+01  0.00000000000E+00 0.  1.
</event>
<event>
 5    1  0.3490044E+002  0.1599666E+01  0.7818608E-02  0.3353726E+00
         11   -1    0    0    0    0  0.00000000000E+00  0.00000000000E+00  0.39999999674E+01  0.40000000000E+01  0.51100000000E-03 0.  1.
    9000002   -1    0    0    0    0 -0.00000000000E+00 -0.00000000000E+00  0.00000000000E+00  0.93800000000E+00  0.93800000000E+00 0. -1.
         11    1    1    2    0    0 -0.74602918635E-01  0.50643977801E+00  0.24364839054E+01  0.24896788802E+01  0.51100000000E-03 0.  1.
    9000002    1    1    2    0    0  0.11075160813E+00 -0.74117207016E+00  0.40706344055E+00  0.12677328587E+01  0.93800000000E+00 0. -1.
         22    1    1    2    0    0 -0.36148689500E-01  0.23473229215E+00  0.11564526214E+01  0.11805882612E+01  0.00000000000E+00 0.  1.
</event>
<event>
 5    1  0.3490044E+002  0.1453297E+01  0.7818608E-02  0.3529796E+00
         11   -1    0    0    0    0  0.00000000000E+00  0.00000000000E+00  0.39999999674E+01  0.40000000000E+01  0.51100000000E-03 0.  1.
    9000002   -1    0    0    0    0 -0.00000000000E+00 -0.00000000000E+00  0.00000000000E+00  0.93800000000E+00  0.93800000000E+00 0.  1.
         11    1    1    2    0    0  0.23136842710E+00 -0.16112137201E+00  0.25619004614E+00  0.38095281393E+00  0.51100000000E-03 0.  1.
    9000002    1    1    2    0    0 -0.75278555610E-01  0.31062713017E+00  0.20537511410E+00  0.10120172985E+01  0.93800000000E+00 0.  1.
         22    1    1    2    0    0 -0.15608987149E+00 -0.14950575815E+00  0.35384348071E+01  0.35450298876E+01  0.00000000000E+00 0.  1.
</event>
<event>
 5    1  0.3490044E+002  0.1599661E+01  0.7818608E-02  0.3353732E+00
         11   -1    0    0    0    0  0.00000000000E+00  0.00000000000E+00  0.39999999674E+01  0.40000000000E+01  0.51100000000E-03 0.  1.
    9000002   -1    0    0    0    0 -0.00000000000E+00 -0.00000000000E+00  0.00000000000E+00  0.93800000000E+00  0.93800000000E+00 0. -1.
         11    1    1    2    0    0 -0.22705172518E+00 -0.51104061764E+00  0.20520272458E+01  0.21268594400E+01  0.51100000000E-03 0.  1.
    9000002    1    1    2    0    0  0.36447930667E+00  0.83480173225E+00  0.63817341553E+00  0.14549393133E+01  0.93800000000E+00 0. -1.
         22    1    1    2    0    0 -0.13742758149E+00 -0.32376111461E+00  0.13097993060E+01  0.13562012467E+01  0.00000000000E+00 0.  1.
</event>
<event>
 5    1  0.3490044E+002  0.1599496E+01  0.7818608E-02  0.3353911E+00
         11   -1    0    0    0    0  0.00000000000E+00  0.00000000000E+00  0.39999999674E+01  0.40000000000E+01  0.51100000000E-03 0. -1.
    9000002   -1    0    0    0    0 -0.00000000000E+00 -0.00000000000E+00  0.00000000000E+00  0.93800000000E+00  0.93800000000E+00 0. -1.
         11    1    1    2    0    0 -0.10541903303E-02  0.34872999218E-02  0.25385353575E-01  0.25650533623E-01  0.51100000000E-03 0. -1.
    9000002    1    1    2    0    0 -0.35363971631E-01 -0.20225578514E+00  0.28054381114E-01  0.96061910319E+00  0.93800000000E+00 0. -1.
         22    1    1    2    0    0  0.36418161961E-01  0.19876848522E+00  0.39465602327E+01  0.39517303632E+01  0.00000000000E+00 0. -1.
</event>
<event>
 5    1  0.3490044E+002  0.1599668E+01  0.7818608E-02  0.3353724E+00
         11   -1    0    0    0    0  0.00000000000E+00  0.00000000000E+00  0.39999999674E+01  0.40000000000E+01  0.51100000000E-03 0.  1.
    9000002   -1    0    0    0    0 -0.00000000000E+00 -0.00000000000E+00  0.00000000000E+00  0.93800000000E+00  0.93800000000E+00 0.  1.
         11    1    1    2    0    0  0.10704998757E-01  0.36065911621E-01  0.59766745647E+00  0.59885056285E+00  0.51100000000E-03 0.  1.
    9000002    1    1    2    0    0 -0.53983656486E-01 -0.24197336297E+00  0.40831425380E-01  0.97106979608E+00  0.93800000000E+00 0.  1.
         22    1    1    2    0    0  0.43278657730E-01  0.20590745135E+00  0.33615010855E+01  0.33680796411E+01  0.00000000000E+00 0.  1.
</event>
<event>
 5    1  0.3490044E+002  0.1598511E+01  0.7818608E-02  0.3354981E+00
         11   -1    0    0    0    0  0.00000000000E+00  0.00000000000E+00  0.39999999674E+01  0.40000000000E+01  0.51100000000E-03 0.  1.
    9000002   -1    0    0    0    0 -0.00000000000E+00 -0.00000000000E+00  0.00000000000E+00  0.93800000000E+00  0.93800000000E+00 0. -1.
         11    1    1    2    0    0  0.58067945551E-02  0.17123111841E-01  0.11333301721E+00  0.11476738968E+00  0.51100000000E-03 0.  1.
    9000002    1    1    2    0    0 -0.19503200332E+00 -0.11854212188E+00  0.35430863417E-01  0.96601711323E+00  0.93800000000E+00 0. -1.
         22    1    1    2    0    0  0.18922520877E+00  0.10141901004E+00  0.38512360867E+01  0.38572154971E+01  0.00000000000E+00 0.  1.
</event>
<event>
 5    1  0.3490044E+002  0.1599414E+01  0.7818608E-02  0.3354000E+00
         11   -1    0    0    0    0  0.00000000000E+00  0.00000000000E+00  0.39999999674E+01  0.40000000000E+01  0.51100000000E-03 0. -1.
    9000002   -1    0    0    0    0 -0.00000000000E+00 -0.00000000000E+00  0.00000000000E+00  0.93800000000E+00  0.93800000000E+00 0.  1.
         11    1    1    2    0    0  0.72249874006E-01 -0.29464094241E-01  0.53563846609E+00  0.54129197723E+00  0.51100000000E-03 0. -1.
    9000002    1    1    2    0    0 -0.46145001514E+00  0.29081378558E+00  0.20556042141E+00  0.11043585746E+01  0.93800000000E+00 0.  1.
         22    1    1    2    0    0  0.38920014113E+00 -0.26134969134E+00  0.32588010799E+01  0.32923494482E+01  0.00000000000E+00 0. -1.
</event>
<event>
 5    1  0.3490044E+002  0.1599677E+01  0.7818608E-02  0.3353715E+00
         11   -1    0    0    0    0  0.00000000000E+00  0.00000000000E+00  0.39999999674E+01  0.40000000000E+01  0.51100000000E-03 0. -1.
    9000002   -1    0    0    0    0 -0.00000000000E+00 -0.00000000000E+00  0.00000000000E+00  0.93800000000E+00  0.93800000000E+00 0.  1.
         11    1    1    2    0    0  0.90340804326E-01 -0.39771888507E-01  0.12087949158E+01  0.12128184834E+01  0.51100000000E-03 0. -1.
    9000002    1    1    2    0    0 -0.29303171341E+00  0.12713109868E+00  0.68193249025E-01  0.99323925644E+00  0.93800000000E+00 0.  1.
         22    1    1    2    0    0  0.20269090908E+00 -0.87359210174E-01  0.27230118025E+01  0.27319422602E+01  0.00000000000E+00 0. -1.
</event>
<event>
 5    1  0.3490044E+002  0.1599665E+01  0.7818608E-02  0.3353727E+00
         11   -1    0    0    0    0  0.00000000000E+00  0.00000000000E+00  0.39999999674E+01  0.40000000000E+01  0.51100000000E-03 0.  1.
    9000002   -1    0    0    0    0 -0.00000000000E+00 -0.00000000000E+00  0.00000000000E+00  0.93800000000E+00  0.93800000000E+00 0.  1.
         11    1    1    2    0    0  0.81703956087E-02 -0.14133370605E-01  0.26576534937E+00  0.26626676393E+00  0.51100000000E-03 0.  1.
    9000002    1    1    2    0    0 -0.10378461476E+00  0.23421629849E+00  0.43626141060E-01  0.97333229728E+00  0.93800000000E+00 0.  1.
         22    1    1    2    0    0  0.95614219156E-01 -0.22008292788E+00  0.36906084769E+01  0.36984009388E+01  0.00000000000E+00 0.  1.
</event>
<event>
 5    1  0.3490044E+002  0.1599666E+01  0.7818608E-02  0.3353726E+00
         11   -1    0    0    0    0  0.00000000000E+00  0.00000000000E+00  0.39999999674E+01  0.40000000000E+01  0.51100000000E-03 0. -1.
    9000002   -1    0    0    0    0 -0.00000000000E+00 -0.00000000000E+00  0.00000000000E+00  0.93800000000E+00  0.93800000000E+00 0.  1.
         11    1    1    2    0    0  0.40190914142E+00 -0.92710209123E-01  0.16775103805E+01  0.17274743062E+01  0.51100000000E-03 0. -1.
    9000002    1    1    2    0    0 -0.83413828387E+00  0.19361972566E+00  0.55131215358E+00  0.13845809350E+01  0.93800000000E+00 0.  1.
         22    1    1    2    0    0  0.43222914245E+00 -0.10090951654E+00  0.17711774333E+01  0.18259447588E+01  0.00000000000E+00 0. -1.
</event>
<event>
 5    1  0.3490044E+002  0.1599675E+01  0.7818608E-02  0.3353716E+00
         11   -1    0    0    0    0  0.00000000000E+00  0.00000000000E+00  0.39999999674E+01  0.40000000000E+01  0.51100000000E-03 0.  1.
    9000002   -1    0    0    0    0 -0.00000000000E+00 -0.00000000000E+00  0.00000000000E+00  0.93800000000E+00  0.93800000000E+00 0.  1.
         11    1    1    2    0    0 -0.51727877567E-01  0.26976495004E-01  0.70960966229E+00  0.71200395964E+00  0.51100000000E-03 0.  1.
    9000002    1    1    2    0    0  0.28687274686E+00 -0.14268378511E+00  0.68618607397E-01  0.99358298531E+00  0.93800000000E+00 0.  1.
         22    1    1    2    0    0 -0.23514486930E+00  0.11570729010E+00  0.32217716977E+01  0.32324130551E+01  0.00000000000E+00 0.  1.
</event>
<event>
 5    1  0.3490044E+002  0.1599669E+01  0.7818608E-02  0.3353722E+00
         11   -1    0    0    0    0  0.00000000000E+00  0.00000000000E+00  0.39999999674E+01  0.40000000000E+01  0.51100000000E-03 0.  1.
    9000002   -1    0    0    0    0 -0.00000000000E+00 -0.00000000000E+00  0.00000000000E+00  0.93800000000E+00  0.93800000000E+00 0. -1.
         11    1    1    2    0    0  0.71895271189E+00 -0.45446275802E+00  0.20072872550E+01  0.21800531612E+01  0.51100000000E-03 0.  1.
    9000002    1    1    2    0    0 -0.98842699332E+00  0.62016458994E+00  0.12489191731E+01  0.19496756502E+01  0.93800000000E+00 0. -1.
         22    1    1    2    0    0  0.26947428143E+00 -0.16570183193E+00  0.74379353919E+00  0.80827118865E+00  0.00000000000E+00 0.  1.
</event>
<event>
 5    1  0.3490044E+002  0.1586278E+01  0.7818608E-02  0.3368393E+00
         11   -1    0    0    0    0  0.00000000000E+00  0.00000000000E+00  0.39999999674E+01  0.40000000000E+01  0.51100000000E-03 0. -1.
    9000002   -1    0    0    0    0 -0.00000000000E+00 -0.00000000000E+00  0.00000000000E+00  0.93800000000E+00  0.93800000000E+00 0.  1.
         11    1    1    2    0    0  0.85875294295E-01  0.89750237823E-02  0.41258123894E+00  0.42151946226E+00  0.51100000000E-03 0. -1.
    9000002    1    1    2    0    0 -0.20878605858E-01 -0.25403320120E+00  0.53507414194E-01  0.97348642870E+00  0.93800000000E+00 0.  1.
         22    1    1    2    0    0 -0.64996688437E-01  0.24505817742E+00  0.35339113142E+01  0.35429941090E+01  0.00000000000E+00 0. -1.
</event>
<event>
 5    1  0.3490044E+002  0.1596998E+01  0.7818608E-02  0.3356629E+00
         11   -1    0    0    0    0  0.00000000000E+00  0.00000000000E+00  0.39999999674E+01  0.40000000000E+01  0.51100000000E-03 0. -1.
    9000002   -1    0    0    0    0 -0.00000000000E+00 -0.00000000000E+00  0.00000000000E+00  0.93800000000E+00  0.93800000000E+00 0. -1.
         11    1    1    2    0    0  0.29540139711E-01 -0.84772150918E-01  0.17129477979E+01  0.17152986204E+01  0.51100000000E-03 0. -1.
    9000002    1    1    2    0    0 -0.66044548485E-01  0.33580186192E+00  0.80617393641E-01  0.10017324678E+01  0.93800000000E+00 0. -1.
         22    1    1    2    0    0  0.36504408774E-01 -0.25102971100E+00  0.22064347758E+01  0.22209689118E+01  0.00000000000E+00 0.  1.
</event>
<event>
 5    1  0.3490044E+002  0.1470455E+01  0.7818608E-02  0.3507202E+00
         11   -1    0    0    0    0  0.00000000000E+00  0.00000000000E+00  0.39999999674E+01  0.40000000000E+01  0.51100000000E-03 0.  1.
    9000002   -1    0    0    0    0 -0.00000000000E+00 -0.00000000000E+00  0.00000000000E+00  0.93800000000E+00  0.93800000000E+00 0.  1.
         11    1    1    2    0    0 -0.37049568405E+00 -0.85909947285E-01  0.13696930909E+01  0.14215157386E+01  0.51100000000E-03 0.  1.
    9000002    1    1    2    0    0 -0.26470291120E+00 -0.11345241076E+00  0.20623677551E+00  0.10026548201E+01  0.93800000000E+00 0.  1.
         22    1    1    2    0    0  0.63519859525E+00  0.19936235805E+00  0.24240701010E+01  0.25138294412E+01  0.00000000000E+00 0.  1.
</event>
<event>
 5    1  0.3490044E+002  0.1599672E+01  0.7818608E-02  0.3353719E+00
         11   -1    0    0    0    0  0.00000000000E+00  0.00000000000E+00  0.39999999674E+01  0.40000000000E+01  0.51100000000E-03 0.  1.
    9000002   -1    0    0    0    0 -0.00000000000E+00 -0.00000000000E+00  0.00000000000E+00  0.93800000000E+00  0.93800000000E+00 0. -1.
         11    1    1    2    0    0 -0.14754349376E-01  0.17207960884E+00  0.18280996156E+01  0.18362400574E+01  0.51100000000E-03 0.  1.
    9000002    1    1    2    0    0  0.29763204786E-01 -0.37298057891E+00  0.94135825743E-01  0.10142514059E+01  0.93800000000E+00 0. -1.
         22    1    1    2    0    0 -0.15008855410E-01  0.20090097007E+00  0.20777645260E+01  0.20875085368E+01  0.00000000000E+00 0.  1.
</event>
<event>
 5    1  0.3490044E+002  0.1599675E+01  0.7818608E-02  0.3353716E+00
         11   -1    0    0    0    0  0.00000000000E+00  0.00000000000E+00  0.39999999674E+01  0.40000000000E+01  0.51100000000E-03 0.  1.
    9000002   -1    0    0    0    0 -0.00000000000E+00 -0.00000000000E+00  0.00000000000E+00  0.93800000000E+00  0.93800000000E+00 0.  1.
         11    1    1    2    0    0  0.31387670052E-01  0.11369244018E+00  0.96793526969E+00  0.97509492062E+00  0.51100000000E-03 0.  1.
    9000002    1    1    2    0    0 -0.13031181785E+00 -0.45448604513E+00  0.15235303862E+00  0.10614114110E+01  0.93800000000E+00 0.  1.
         22    1    1    2    0    0  0.98924147796E-01  0.34079360495E+00  0.28797116591E+01  0.29014936684E+01  0.00000000000E+00 0.  1.
</event>
<event>
 5    1  0.3490044E+002  0.1599675E+01  0.7818608E-02  0.3353717E+00
         11   -1    0    0    0    0  0.00000000000E+00  0.00000000000E+00  0.39999999674E+01  0.40000000000E+01  0.51100000000E-03 0.  1.
    9000002   -1    0    0    0    0 -0.00000000000E+00 -0.00000000000E+00  0.00000000000E+00  0.93800000000E+00  0.93800000000E+00 0.  1.
         11    1    1    2    0    0  0.11348568406E+00  0.13270540340E-02  0.10926381144E+01  0.10985167598E+01  0.51100000000E-03 0.  1.
    9000002    1    1    2    0    0 -0.40904782496E+00 -0.18658572364E-02  0.11299813619E+00  0.10295320215E+01  0.93800000000E+00 0.  1.
         22    1    1    2    0    0  0.29556214090E+00  0.53880320245E-03  0.27943637168E+01  0.28099512187E+01  0.00000000000E+00 0.  1.
</event>
<event>
 5    1  0.3490044E+002  0.1598534E+01  0.7818608E-02  0.3354956E+00
         11   -1    0    0    0    0  0.00000000000E+00  0.00000000000E+00  0.39999999674E+01  0.40000000000E+01  0.51100000000E-03 0.  1.
    9000002   -1    0    0    0    0 -0.00000000000E+00 -0.00000000000E+00  0.00000000000E+00  0.93800000000E+00  0.93800000000E+00 0.  1.
         11    1    1    2    0    0  0.98311779546E-02 -0.11717759414E-02  0.66726719951E-01  0.67459183179E-01  0.51100000000E-03 0.  1.
    9000002    1    1    2    0    0 -0.41505663724E-01 -0.23516257128E+00  0.38718783522E-01  0.96869360442E+00  0.93800000000E+00 0.  1.
         22    1    1    2    0    0  0.31674485769E-01  0.23633434722E+00  0.38945544639E+01  0.39018472124E+01  0.00000000000E+00 0.  1.
</event>
<event>
 5    1  0.3490044E+002  0.1599677E+01  0.7818608E-02  0.3353714E+00
         11   -1    0    0    0    0  0.00000000000E+00  0.00000000000E+00  0.39999999674E+01  0.40000000000E+01  0.51100000000E-03 0.  1.
    9000002   -1    0    0    0    0 -0.00000000000E+00 -0.00000000000E+00  0.00000000000E+00  0.93800000000E+00  0.93800000000E+00 0. -1.
         11    1    1    2    0    0  0.63795975726E-01 -0.10680620055E-01  0.94014213377E+00  0.94236484176E+00  0.51100000000E-03 0. -1.
    9000002    1    1    2    0    0 -0.26810741288E+00  0.46167522548E-01  0.49253245975E-01  0.97789718643E+00  0.93800000000E+00 0. -1.
         22    1    1    2    0    0  0.20431143715E+00 -0.35486902493E-01  0.30106045876E+01  0.30177379718E+01  0.00000000000E+00 0.  1.
</event>
<event>
 5    1  0.3490044E+002  0.1498271E+01  0.7818608E-02  0.3471762E+00
         11   -1    0    0    0    0  0.00000000000E+00  0.00000000000E+00  0.39999999674E+01  0.40000000000E+01  0.51100000000E-03 0.  1.
    9000002   -1    0    0    0    0 -0.00000000000E+00 -0.00000000000E+00  0.00000000000E+00  0.93800000000E+00  0.93800000000E+00 0.  1.
         11    1    1    2    0    0  0.22735675962E+00  0.41762394582E+00  0.34185697342E+01  0.34514808626E+01  0.51100000000E-03 0.  1.
    9000002    1    1    2    0    0 -0.30759268061E+00 -0.20321271036E+00  0.17912841617E+00  0.10236403921E+01  0.93800000000E+00 0.  1.
         22    1    1    2    0    0  0.80235920989E-01 -0.21441123546E+00  0.40230181698E+00  0.46287874530E+00  0.00000000000E+00 0. -1.
</event>
<event>
 5    1  0.3490044E+002  0.1559595E+01  0.7818608E-02  0.3398419E+00
         11   -1    0    0    0    0  0.00000000000E+00  0.00000000000E+00  0.39999999674E+01  0.40000000000E+01  0.51100000000E-03 0. -1.
    9000002   -1    0    0    0    0 -0.00000000000E+00 -0.00000000000E+00  0.00000000000E+00  0.93800000000E+00  0.93800000000E+00 0.  1.
         11    1    1    2    0    0 -0.23424664801E+00 -0.11655438646E+00  0.93651863052E+00  0.97238049319E+00  0.51100000000E-03 0. -1.
    9000002    1    1    2    0    0  0.12171006484E+00  0.34196947631E+00  0.12175764642E+00  0.10131265405E+01  0.93800000000E+00 0.  1.
         22    1    1    2    0    0  0.11253658318E+00 -0.22541508986E+00  0.29417236904E+01  0.29524929663E+01  0.00000000000E+00 0. -1.
</event>
<event>
 5    1  0.3490044E+002  0.1568199E+01  0.7818608E-02  0.3388619E+00
         11   -1    0    0    0    0  0.00000000000E+00  0.00000000000E+00  0.39999999674E+01  0.40000000000E+01  0.51100000000E-03 0.  1.
    9000002   -1    0    0    0    0 -0.00000000000E+00 -0.00000000000E+00  0.00000000000E+00  0.93800000000E+00  0.93800000000E+00 0.  1.
         11    1    1    2    0    0  0.98699635680E-01  0.21135324402E-01  0.19123763643E+00  0.21624156568E+00  0.51100000000E-03 0.  1.
    9000002    1    1    2    0    0 -0.81604035812E-01 -0.29384180300E+00  0.87197885919E-01  0.99017659797E+00  0.93800000000E+00 0.  1.
         22    1    1    2    0    0 -0.17095599868E-01  0.27270647860E+00  0.37215644450E+01  0.37315818363E+01  0.00000000000E+00 0.  1.
</event>
<event>
 5    1  0.3490044E+002  0.1599662E+01  0.7818608E-02  0.3353731E+00
         11   -1    0    0    0    0  0.00000000000E+00  0.00000000000E+00  0.39999999674E+01  0.40000000000E+01  0.51100000000E-03 0. -1.
    9000002   -1    0    0    0    0 -0.00000000000E+00 -0.00000000000E+00  0.00000000000E+00  0.93800000000E+00  0.93800000000E+00 0. -1.
         11    1    1    2    0    0  0.22066059744E-01 -0.31332850904E-01  0.59524869157E+00  0.59648128594E+00  0.51100000000E-03 0. -1.
    9000002    1    1    2    0    0 -0.16571060887E+00  0.19676060082E+00  0.43995736561E-01  0.97362948022E+00  0.93800000000E+00 0. -1.
         22    1    1    2    0    0  0.14364454912E+00 -0.16542774992E+00  0.33607555392E+01  0.33678892338E+01  0.00000000000E+00 0. -1.
</event>
<event>
 5    1  0.3490044E+002  0.1599498E+01  0.7818608E-02  0.3353908E+00
         11   -1    0    0    0    0  0.00000000000E+00  0.00000000000E+00  0.39999999674E+01  0.40000000000E+01  0.51100000000E-03 0.  1.
    9000002   -1    0    0    0    0 -0.00000000000E+00 -0.00000000000E+00  0.00000000000E+00  0.93800000000E+00  0.93800000000E+00 0. -1.
         11    1    1    2    0    0 -0.12610649234E+00  0.41107427926E-01  0.11275935864E+01  0.11353678810E+01  0.51100000000E-03 0.  1.
    9000002    1    1    2    0    0  0.38959435687E+00 -0.16570702554E+00  0.12142986742E+00  0.10362585555E+01  0.93800000000E+00 0. -1.
         22    1    1    2    0    0 -0.26348786453E+00  0.12459959761E+00  0.27509765135E+01  0.27663735634E+01  0.00000000000E+00 0.  1.
</event>
<event>
 5    1  0.3490044E+002  0.1598985E+01  0.7818608E-02  0.3354465E+00
         11   -1    0    0    0    0  0.00000000000E+00  0.00000000000E+00  0.39999999674E+01  0.40000000000E+01  0.51100000000E-03 0. -1.
    9000002   -1    0    0    0    0 -0.00000000000E+00 -0.00000000000E+00  0.00000000000E+00  0.93800000000E+00  0.93800000000E+00 0.  1.
         11    1    1    2    0    0  0.11843317196E+00  0.60793220144E-01  0.87389676694E+00  0.88397853606E+00  0.51100000000E-03 0. -1.
    9000002    1    1    2    0    0 -0.55815229608E+00 -0.35565855479E+00  0.31072291246E+00  0.11892937911E+01  0.93800000000E+00 0.  1.
         22    1    1    2    0    0  0.43971912412E+00  0.29486533465E+00  0.28153802880E+01  0.28647276728E+01  0.00000000000E+00 0. -1.
</event>
<event>
 5    1  0.3490044E+002  0.1599674E+01  0.7818608E-02  0.3353717E+00
         11   -1    0    0    0    0  0.00000000000E+00  0.00000000000E+00  0.39999999674E+01  0.40000000000E+01  0.51100000000E-03 0.  1.
    9000002   -1    0    0    0    0 -0.00000000000E+00 -0.00000000000E+00  0.00000000000E+00  0.93800000000E+00  0.93800000000E+00 0. -1.
         11    1    1    2    0    0 -0.55555772376E-02  0.23953067691E-02  0.11397427464E+00  0.11413587663E+00  0.51100000000E-03 0. -1.
    9000002    1    1    2    0    0  0.19547634706E+00 -0.68154626531E-01  0.28385723974E-01  0.96099209399E+00  0.93800000000E+00 0. -1.
         22    1    1    2    0    0 -0.18992076982E+00  0.65759319762E-01  0.38576399687E+01  0.38628720294E+01  0.00000000000E+00 0.  1.
</event>
<event>
 5    1  0.3490044E+002  0.1557139E+01  0.7818608E-02  0.3401239E+00
         11   -1    0    0    0    0  0.00000000000E+00  0.00000000000E+00  0.39999999674E+01  0.40000000000E+01  0.51100000000E-03 0. -1.
    9000002   -1    0    0    0    0 -0.00000000000E+00 -0.00000000000E+00  0.00000000000E+00  0.93800000000E+00  0.93800000000E+00 0. -1.
         11    1    1    2    0    0  0.75047945432E-01  0.24895984570E+00  0.15010696725E+01  0.15234249643E+01  0.51100000000E-03 0. -1.
    9000002    1    1    2    0    0  0.19057017126E+00 -0.15251444349E+00  0.72718202502E-01  0.97196171870E+00  0.93800000000E+00 0. -1.
         22    1    1    2    0    0 -0.26561811669E+00 -0.96445402211E-01  0.24262120923E+01  0.24426133170E+01  0.00000000000E+00 0. -1.
</event>
<event>
 5    1  0.3490044E+002  0.1594692E+01  0.7818608E-02  0.3359145E+00
         11   -1    0    0    0    0  0.00000000000E+00  0.00000000000E+00  0.39999999674E+01  0.40000000000E+01  0.51100000000E-03 0. -1.
    9000002   -1    0    0    0    0 -0.00000000000E+00 -0.00000000000E+00  0.00000000000E+00  0.93800000000E+00  0.93800000000E+00 0.  1.
         11    1    1    2    0    0 -0.83321361725E-02  0.74155264085E-02  0.39719272942E+00  0.39734964446E+00  0.51100000000E-03 0. -1.
    9000002    1    1    2    0    0 -0.25123929273E+00  0.30629227601E+00  0.10995296967E+00  0.10241434451E+01  0.93800000000E+00 0.  1.
         22    1    1    2    0    0  0.25957142891E+00 -0.31370780242E+00  0.34928542683E+01  0.35165069105E+01  0.00000000000E+00 0. -1.
</event>
<event>
 5    1  0.3490044E+002  0.1599676E+01  0.7818608E-02  0.3353715E+00
         11   -1    0    0    0    0  0.00000000000E+00  0.00000000000E+00  0.39999999674E+01  0.40000000000E+01  0.51100000000E-03 0. -1.
    9000002   -1    0    0    0    0 -0.00000000000E+00 -0.00000000000E+00  0.00000000000E+00  0.93800000000E+00  0.93800000000E+00 0. -1.
         11    1    1    2    0    0  0.48170080470E-01 -0.83937096532E-01  0.11444858056E+01  0.11485703344E+01  0.51100000000E-03 0.  1.
    9000002    1    1    2    0    0 -0.16836294738E+00  0.29021039618E+00  0.75361288978E-01  0.99904528425E+00  0.93800000000E+00 0. -1.
         22    1    1    2    0    0  0.12019286691E+00 -0.20627329965E+00  0.27801528728E+01  0.27903843813E+01  0.00000000000E+00 0. -1.
</event>
<event>
 5    1  0.3490044E+002  0.1599101E+01  0.7818608E-02  0.3354339E+00
         11   -1    0    0    0    0  0.00000000000E+00  0.00000000000E+00  0.39999999674E+01  0.40000000000E+01  0.51100000000E-03 0.  1.
    9000002   -1    0    0    0    0 -0.00000000000E+00 -0.00000000000E+00  0.00000000000E+00  0.93800000000E+00  0.93800000000E+00 0.  1.
         11    1    1    2    0    0 -0.10752166829E+00  0.48448629816E-01  0.12027408043E+01  0.12085089500E+01  0.51100000000E-03 0.  1.
    9000002    1    1    2    0    0  0.31324513802E+00 -0.79967209470E-01  0.70338841560E-01  0.99464004731E+00  0.93800000000E+00 0.  1.
         22    1    1    2    0    0 -0.20572346973E+00  0.31518579655E-01  0.27269203215E+01  0.27348510027E+01  0.00000000000E+00 0.  1.
</event>
<event>
 5    1  0.3490044E+002  0.1598995E+01  0.7818608E-02  0.3354455E+00
         11   -1    0    0    0    0  0.00000000000E+00  0.00000000000E+00  0.39999999674E+01  0.40000000000E+01  0.51100000000E-03 0.  1.
    9000002   -1    0    0    0    0 -0.00000000000E+00 -0.00000000000E+00  0.00000000000E+00  0.93800000000E+00  0.93800000000E+00 0. -1.
         11    1    1    2    0    0 -0.39420226493E-02  0.19193451472E-02  0.85396885693E-01  0.85510891911E-01  0.51100000000E-03 0.  1.
    9000002    1    1    2    0    0 -0.23672946262E+00 -0.37651776124E-01  0.38658622513E-01  0.96891536463E+00  0.93800000000E+00 0. -1.
         22    1    1    2    0    0  0.24067148527E+00  0.35732430977E-01  0.38759444592E+01  0.38835737435E+01  0.00000000000E+00 0.  1.
</event>
<event>
 5    1  0.3490044E+002  0.1599662E+01  0.7818608E-02  0.3353731E+00
         11   -1    0    0    0    0  0.00000000000E+00  0.00000000000E+00  0.39999999674E+01  0.40000000000E+01  0.51100000000E-03 0.  1.
    9000002   -1    0    0    0    0 -0.00000000000E+00 -0.00000000000E+00  0.00000000000E+00  0.93800000000E+00  0.93800000000E+00 0.  1.
         11    1    1    2    0    0 -0.57919506976E-02 -0.12031172839E-01  0.21236853079E+00  0.21278850956E+00  0.51100000000E-03 0.  1.
    9000002    1    1    2    0    0  0.10932006146E+00  0.26205734759E+00  0.53719687725E-01  0.98150635969E+00  0.93800000000E+00 0.  1.
         22    1    1    2    0    0 -0.10352811076E+00 -0.25002617475E+00  0.37339117488E+01  0.37437051307E+01  0.00000000000E+00 0.  1.
</event>
<event>
 5    1  0.3490044E+002  0.1599677E+01  0.7818608E-02  0.3353714E+00
         11   -1    0    0    0    0  0.00000000000E+00  0.00000000000E+00  0.39999999674E+01  0.40000000000E+01  0.51100000000E-03 0.  1.
    9000002   -1    0    0    0    0 -0.00000000000E+00 -0.00000000000E+00  0.00000000000E+00  0.93800000000E+00  0.93800000000E+00 0. -1.
         11    1    1    2    0    0  0.13252087726E+00  0.27637878228E+00  0.21471376458E+01  0.21689046419E+01  0.51100000000E-03 0.  1.
    9000002    1    1    2    0    0 -0.23423906589E+00 -0.48854234164E+00  0.20243690308E+00  0.11019828761E+01  0.93800000000E+00 0. -1.
         22    1    1    2    0    0  0.10171818863E+00  0.21216355936E+00  0.16504254184E+01  0.16671124820E+01  0.00000000000E+00 0.  1.
</event>
<event>
 5    1  0.3490044E+002  0.1599677E+01  0.7818608E-02  0.3353714E+00
         11   -1    0    0    0    0  0.00000000000E+00  0.00000000000E+00  0.39999999674E+01  0.40000000000E+01  0.51100000000E-03 0. -1.
    9000002   -1    0    0    0    0 -0.00000000000E+00 -0.00000000000E+00  0.00000000000E+00  0.93800000000E+00  0.93800000000E+00 0.  1.
         11    1    1    2    0    0 -0.11567490266E+00  0.56819412290E-01  0.11337401712E+01  0.11410417020E+01  0.51100000000E-03 0.  1.
    9000002    1    1    2    0    0  0.39381252464E+00 -0.19366977914E+00  0.13059686058E+00  0.10437891683E+01  0.93800000000E+00 0.  1.
         22    1    1    2    0    0 -0.27813762198E+00  0.13685036685E+00  0.27356629356E+01  0.27531691297E+01  0.00000000000E+00 0. -1.
</event>
<event>
 5    1  0.3490044E+002  0.1599651E+01  0.7818608E-02  0.3353742E+00
         11   -1    0    0    0    0  0.00000000000E+00  0.00000000000E+00  0.39999999674E+01  0.40000000000E+01  0.51100000000E-03 0. -1.
    9000002   -1    0    0    0    0 -0.00000000000E+00 -0.00000000000E+00  0.00000000000E+00  0.93800000000E+00  0.93800000000E+00 0.  1.
         11    1    1    2    0    0 -0.31817672435E-01 -0.11181515218E-01  0.47993872760E+00  0.48112247291E+00  0.51100000000E-03 0. -1.
    9000002    1    1    2    0    0  0.23122136633E+00  0.81754571946E-01  0.39960671928E-01  0.97035456694E+00  0.93800000000E+00 0.  1.
         22    1    1    2    0    0 -0.19940369389E+00 -0.70573056727E-01  0.34801005678E+01  0.34865229602E+01  0.00000000000E+00 0. -1.
</event>
<event>
 5    1  0.3490044E+002  0.1599491E+01  0.7818608E-02  0.3353916E+00
         11   -1    0    0    0    0  0.00000000000E+00  0.00000000000E+00  0.39999999674E+01  0.40000000000E+01  0.51100000000E-03 0.  1.
    9000002   -1    0    0    0    0 -0.00000000000E+00 -0.00000000000E+00  0.00000000000E+00  0.93800000000E+00  0.93800000000E+00 0. -1.
         11    1    1    2    0    0  0.90991401821E-02  0.49282864667E-02  0.88920791474E-01  0.89522347137E-01  0.51100000000E-03 0.  1.
    9000002    1    1    2    0    0 -0.28493209290E+00 -0.38515177969E-01  0.55232191013E-01  0.98263132019E+00  0.93800000000E+00 0. -1.
         22    1    1    2    0    0  0.27583295271E+00  0.33586891502E-01  0.38558469849E+01  0.38658463327E+01  0.00000000000E+00 0.  1.
</event>
<event>
 5    1  0.3490044E+002  0.1599647E+01  0.7818608E-02  0.3353746E+00
         11   -1    0    0    0    0  0.00000000000E+00  0.00000000000E+00  0.39999999674E+01  0.40000000000E+01  0.51100000000E-03 0.  1.
    9000002   -1    0    0    0    0 -0.00000000000E+00 -0.00000000000E+00  0.00000000000E+00  0.93800000000E+00  0.93800000000E+00 0.  1.
         11    1    1    2    0    0  0.27207591805E-02 -0.19509040448E-02  0.41665681491E-01  0.41803094290E-01  0.51100000000E-03 0.  1.
    9000002    1    1    2    0    0 -0.18714334959E+00  0.92053080111E-01  0.28832988505E-01  0.96133851690E+00  0.93800000000E+00 0.  1.
         22    1    1    2    0    0  0.18442259041E+00 -0.90102176066E-01  0.39295012974E+01  0.39348583888E+01  0.00000000000E+00 0.  1.
</event>
<event>
 5    1  0.3490044E+002  0.1599677E+01  0.7818608E-02  0.3353714E+00
         11   -1    0    0    0    0  0.00000000000E+00  0.00000000000E+00  0.39999999674E+01  0.40000000000E+01  0.51100000000E-03 0. -1.
    9000002   -1    0    0    0    0 -0.00000000000E+00 -0.00000000000E+00  0.00000000000E+00  0.93800000000E+00  0.93800000000E+00 0.  1.
         11    1    1    2    0    0 -0.25027417160E-01  0.12934141902E+00  0.11971932434E+01  0.12044199838E+01  0.51100000000E-03 0. -1.
    9000002    1    1    2    0    0  0.81567194939E-01 -0.41750752571E+00  0.12247861384E+00  0.10372129734E+01  0.93800000000E+00 0.  1.
         22    1    1    2    0    0 -0.56539777779E-01  0.28816610669E+00  0.26803281101E+01  0.26963670428E+01  0.00000000000E+00 0.  1.
</event>
<event>
 5    1  0.3490044E+002  0.1520416E+01  0.7818608E-02  0.3444545E+00
         11   -1    0    0    0    0  0.00000000000E+00  0.00000000000E+00  0.39999999674E+01  0.40000000000E+01  0.51100000000E-03 0.  1.
    9000002   -1    0    0    0    0 -0.00000000000E+00 -0.00000000000E+00  0.00000000000E+00  0.93800000000E+00  0.93800000000E+00 0. -1.
         11    1    1    2    0    0 -0.15055526951E+00  0.15246718251E+00  0.12325982858E+01  0.12510843002E+01  0.51100000000E-03 0.  1.
    9000002    1    1    2    0    0 -0.17278517098E+00  0.27330058791E+00  0.13563349671E+00  0.10013932155E+01  0.93800000000E+00 0. -1.
         22    1    1    2    0    0  0.32334044049E+00 -0.42576777042E+00  0.26317681849E+01  0.26855224843E+01  0.00000000000E+00 0.  1.
</event>
<event>
 5    1  0.3490044E+002  0.1599676E+01  0.7818608E-02  0.3353715E+00
         11   -1    0    0    0    0  0.00000000000E+00  0.00000000000E+00  0.39999999674E+01  0.40000000000E+01  0.51100000000E-03 0.  1.
    9000002   -1    0    0    0    0 -0.00000000000E+00 -0.00000000000E+00  0.00000000000E+00  0.93800000000E+00  0.93800000000E+00 0. -1.
         11    1    1    2    0    0 -0.15430557107E-01 -0.19073430860E-01  0.25952415901E+00  0.26068169880E+00  0.51100000000E-03 0.  1.
    9000002    1    1    2    0    0  0.23117409734E+00  0.28033923672E+00  0.88662848059E-01  0.10098201085E+01  0.93800000000E+00 0. -1.
         22    1    1    2    0    0 -0.21574354023E+00 -0.26126580586E+00  0.36518129603E+01  0.36674981927E+01  0.00000000000E+00 0.  1.
</event>
<event>
 5    1  0.3490044E+002  0.1599310E+01  0.7818608E-02  0.3354112E+00
         11   -1    0    0    0    0  0.00000000000E+00  0.00000000000E+00  0.39999999674E+01  0.40000000000E+01  0.51100000000E-03 0.  1.
    9000002   -1    0    0    0    0 -0.00000000000E+00 -0.00000000000E+00  0.00000000000E+00  0.93800000000E+00  0.93800000000E+00 0.  1.
         11    1    1    2    0    0  0.12899558162E-02  0.20959386801E-02  0.26165275917E+00  0.26166483227E+00  0.51100000000E-03 0.  1.
    9000002    1    1    2    0    0 -0.35573401735E-01 -0.20454986410E+00  0.28826060292E-01  0.96113529514E+00  0.93800000000E+00 0.  1.
         22    1    1    2    0    0  0.34283445919E-01  0.20245392542E+00  0.37095211479E+01  0.37151998726E+01  0.00000000000E+00 0.  1.
</event>
<event>
 5    1  0.3490044E+002  0.1599591E+01  0.7818608E-02  0.3353808E+00
         11   -1    0    0    0    0  0.00000000000E+00  0.00000000000E+00  0.39999999674E+01  0.40000000000E+01  0.51100000000E-03 0. -1.
    9000002   -1    0    0    0    0 -0.00000000000E+00 -0.00000000000E+00  0.00000000000E+00  0.93800000000E+00  0.93800000000E+00 0.  1.
         11    1    1    2    0    0  0.22150506519E-01 -0.65159123844E-01  0.74527179688E+00  0.74844282928E+00  0.51100000000E-03 0. -1.
    9000002    1    1    2    0    0 -0.15135470517E+00  0.36940409052E+00  0.10755734758E+00  0.10250757103E+01  0.93800000000E+00 0.  1.
         22    1    1    2    0    0  0.12920419865E+00 -0.30424496667E+00  0.31471708229E+01  0.31644814604E+01  0.00000000000E+00 0. -1.
</event>
<event>
 5    1  0.3490044E+002  0.1599677E+01  0.7818608E-02  0.3353714E+00
         11   -1    0    0    0    0  0.00000000000E+00  0.00000000000E+00  0.39999999674E+01  0.40000000000E+01  0.51100000000E-03 0. -1.
    9000002   -1    0    0    0    0 -0.00000000000E+00 -0.00000000000E+00  0.00000000000E+00  0.93800000000E+00  0.93800000000E+00 0.  1.
         11    1    1    2    0    0  0.97554648808E-01  0.35769236786E+00  0.19723220591E+01  0.20068670373E+01  0.51100000000E-03 0. -1.
    9000002    1    1    2    0    0 -0.18008408259E+00 -0.66476175899E+00  0.33798422658E+00  0.12117820804E+01  0.93800000000E+00 0.  1.
         22    1    1    2    0    0  0.82529433784E-01  0.30706939113E+00  0.16896936817E+01  0.17193508823E+01  0.00000000000E+00 0. -1.
</event>
<event>
 5    1  0.3490044E+002  0.1589617E+01  0.7818608E-02  0.3364710E+00
         11   -1    0    0    0    0  0.00000000000E+00  0.00000000000E+00  0.39999999674E+01  0.40000000000E+01  0.51100000000E-03 0. -1.
    9000002   -1    0    0    0    0 -0.00000000000E+00 -0.00000000000E+00  0.00000000000E+00  0.93800000000E+00  0.93800000000E+00 0. -1.
         11    1    1    2    0    0  0.27522962579E-01  0.34383844929E-02  0.58223448999E+00  0.58289501491E+00  0.51100000000E-03 0. -1.
    9000002    1    1    2    0    0 -0.51635082053E+00  0.42106993756E+00  0.32537959957E+00  0.11956730096E+01  0.93800000000E+00 0. -1.
         22    1    1    2    0    0  0.48882785795E+00 -0.42450832206E+00  0.30923858778E+01  0.31594319754E+01  0.00000000000E+00 0. -1.
</event>
<event>
 5    1  0.3490044E+002  0.1599636E+01  0.7818608E-02  0.3353759E+00
         11   -1    0    0    0    0  0.00000000000E+00  0.00000000000E+00  0.39999999674E+01  0.40000000000E+01  0.51100000000E-03 0.  1.
    9000002   -1    0    0    0    0 -0.00000000000E+00 -0.00000000000E+00  0.00000000000E+00  0.93800000000E+00  0.93800000000E+00 0. -1.
         11    1    1    2    0    0  0.85122652369E-02 -0.27918880558E-01  0.52720491648E+00  0.52801250708E+00  0.51100000000E-03 0.  1.
    9000002    1    1    2    0    0 -0.10338950185E+00  0.21005040407E+00  0.36398695330E-01  0.96746029705E+00  0.93800000000E+00 0. -1.
         22    1    1    2    0    0  0.94877236616E-01 -0.18213152351E+00  0.34363963555E+01  0.34425271959E+01  0.00000000000E+00 0.  1.
</event>
<event>
 5    1  0.3490044E+002  0.1520619E+01  0.7818608E-02  0.3444300E+00
         11   -1    0    0    0    0  0.00000000000E+00  0.00000000000E+00  0.39999999674E+01  0.40000000000E+01  0.51100000000E-03 0. -1.
    9000002   -1    0    0    0    0 -0.00000000000E+00 -0.00000000000E+00  0.00000000000E+00  0.93800000000E+00  0.93800000000E+00 0.  1.
         11    1    1    2    0    0  0.21228299820E+00  0.37840001208E+00  0.16299539387E+01  0.16867129999E+01  0.51100000000E-03 0. -1.
    9000002    1    1    2    0    0 -0.43859853987E-01 -0.25122985453E+00  0.10643714431E+00  0.97786143818E+00  0.93800000000E+00 0.  1.
         22    1    1    2    0    0 -0.16842314421E+00 -0.12717015755E+00  0.22636088843E+01  0.22734255619E+01  0.00000000000E+00 0. -1.
</event>
<event>
 5    1  0.3490044E+002  0.1599677E+01  0.7818608E-02  0.3353714E+00
         11   -1    0    0    0    0  0.00000000000E+00  0.00000000000E+00  0.39999999674E+01  0.40000000000E+01  0.51100000000E-03 0. -1.
    9000002   -1    0    0    0    0 -0.00000000000E+00 -0.00000000000E+00  0.00000000000E+00  0.93800000000E+00  0.93800000000E+00 0.  1.
         11    1    1    2    0    0 -0.57416175478E-01  0.59791877744E-01  0.11329271917E+01  0.11359559712E+01  0.51100000000E-03 0. -1.
    9000002    1    1    2    0    0  0.20181506697E+00 -0.20844001879E+00  0.56104789898E-01  0.98344715676E+00  0.93800000000E+00 0.  1.
         22    1    1    2    0    0 -0.14439889149E+00  0.14864814105E+00  0.28109679858E+01  0.28185968720E+01  0.00000000000E+00 0. -1.
</event>
<event>
 5    1  0.3490044E+002  0.1558955E+01  0.7818608E-02  0.3399154E+00
         11   -1    0    0    0    0  0.00000000000E+00  0.00000000000E+00  0.39999999674E+01  0.40000000000E+01  0.51100000000E-03 0. -1.
    9000002   -1    0    0    0    0 -0.00000000000E+00 -0.00000000000E+00  0.00000000000E+00  0.93800000000E+00  0.93800000000E+00 0.  1.
         11    1    1    2    0    0 -0.72234729244E-01 -0.79453439154E-01  0.22921035087E+01  0.22946174977E+01  0.51100000000E-03 0. -1.
    9000002    1    1    2    0    0 -0.28541273572E+00  0.11395228182E+00  0.95765219075E-01  0.99169578472E+00  0.93800000000E+00 0.  1.
         22    1    1    2    0    0  0.35764746496E+00 -0.34498842670E-01  0.16121312396E+01  0.16516867175E+01  0.00000000000E+00 0. -1.
</event>
<event>
 5    1  0.3490044E+002  0.1599674E+01  0.7818608E-02  0.3353717E+00
         11   -1    0    0    0    0  0.00000000000E+00  0.00000000000E+00  0.39999999674E+01  0.40000000000E+01  0.51100000000E-03 0. -1.
    9000002   -1    0    0    0    0 -0.00000000000E+00 -0.00000000000E+00  0.00000000000E+00  0.93800000000E+00  0.93800000000E+00 0. -1.
         11    1    1    2    0    0 -0.52631764641E-01 -0.24280772563E-01  0.71034488611E+00  0.71270595403E+00  0.51100000000E-03 0. -1.
    9000002    1    1    2    0    0  0.29053799261E+00  0.12558408047E+00  0.66942147593E-01  0.99222423753E+00  0.93800000000E+00 0. -1.
         22    1    1    2    0    0 -0.23790622796E+00 -0.10130330791E+00  0.32227129337E+01  0.32330698084E+01  0.00000000000E+00 0. -1.
</event>
<event>
 5    1  0.3490044E+002  0.1599660E+01  0.7818608E-02  0.3353733E+00
         11   -1    0    0    0    0  0.00000000000E+00  0.00000000000E+00  0.39999999674E+01  0.40000000000E+01  0.51100000000E-03 0. -1.
    9000002   -1    0    0    0    0 -0.00000000000E+00 -0.00000000000E+00  0.00000000000E+00  0.93800000000E+00  0.93800000000E+00 0.  1.
         11    1    1    2    0    0  0.40449847263E-01  0.35718916973E-01  0.42739963597E+00  0.43079315352E+00  0.51100000000E-03 0. -1.
    9000002    1    1    2    0    0 -0.38847384589E+00 -0.30923227604E+00  0.16868564138E+00  0.10746326698E+01  0.93800000000E+00 0.  1.
         22    1    1    2    0    0  0.34802399863E+00  0.27351335907E+00  0.34039146900E+01  0.34325741766E+01  0.00000000000E+00 0. -1.
</event>
<event>
 5    1  0.3490044E+002  0.1599674E+01  0.7818608E-02  0.3353717E+00
         11   -1    0    0    0    0  0.00000000000E+00  0.00000000000E+00  0.39999999674E+01  0.40000000000E+01  0.51100000000E-03 0.  1.
    9000002   -1    0    0    0    0 -0.00000000000E+00 -0.00000000000E+00  0.00000000000E+00  0.93800000000E+00  0.93800000000E+00 0. -1.
         11    1    1    2    0    0 -0.13571582846E-01  0.14731309309E-01  0.30287931744E+00  0.30354133390E+00  0.51100000000E-03 0.  1.
    9000002    1    1    2    0    0  0.17868467666E+00 -0.20499932136E+00  0.49214892021E-01  0.97786453102E+00  0.93800000000E+00 0. -1.
         22    1    1    2    0    0 -0.16511309381E+00  0.19026801205E+00  0.36479057579E+01  0.36565941351E+01  0.00000000000E+00 0.  1.
</event>
<event>
 5    1  0.3490044E+002  0.1599638E+01  0.7818608E-02  0.3353756E+00
         11   -1    0    0    0    0  0.00000000000E+00  0.00000000000E+00  0.39999999674E+01  0.40000000000E+01  0.51100000000E-03 0.  1.
    9000002   -1    0    0    0    0 -0.00000000000E+00 -0.00000000000E+00  0.00000000000E+00  0.93800000000E+00  0.93800000000E+00 0. -1.
         11    1    1    2    0    0  0.22565955229E-02  0.83820809516E-03  0.42984123267E-01  0.43054509522E-01  0.51100000000E-03 0.  1.
    9000002    1    1    2    0    0 -0.29337030125E+00  0.26960346751E-01  0.57902086226E-01  0.98488052349E+00  0.93800000000E+00 0. -1.
         22    1    1    2    0    0  0.29111370573E+00 -0.27798554846E-01  0.38991137579E+01  0.39100649670E+01  0.00000000000E+00 0.  1.
</event>
<event>
 5    1  0.3490044E+002  0.1281562E+01  0.7818608E-02  0.3817831E+00
         11   -1    0    0    0    0  0.00000000000E+00  0.00000000000E+00  0.39999999674E+01  0.40000000000E+01  0.51100000000E-03 0.  1.
    9000002   -1    0    0    0    0 -0.00000000000E+00 -0.00000000000E+00  0.00000000000E+00  0.93800000000E+00  0.93800000000E+00 0. -1.
         11    1    1    2    0    0  0.79628855338E+00 -0.11195947404E+00  0.22041638551E+01  0.23462627614E+01  0.51100000000E-03 0.  1.
    9000002    1    1    2    0    0 -0.23708337556E+00  0.35891016255E+00  0.47438943432E+00  0.11357439708E+01  0.93800000000E+00 0. -1.
         22    1    1    2    0    0 -0.55920517782E+00 -0.24695068851E+00  0.13214466779E+01  0.14559932679E+01  0.00000000000E+00 0. -1.
</event>
<event>
 5    1  0.3490044E+002  0.1574635E+01  0.7818608E-02  0.3381362E+00
         11   -1    0    0    0    0  0.00000000000E+00  0.00000000000E+00  0.39999999674E+01  0.40000000000E+01  0.51100000000E-03 0. -1.
    9000002   -1    0    0    0    0 -0.00000000000E+00 -0.00000000000E+00  0.00000000000E+00  0.93800000000E+00  0.93800000000E+00 0.  1.
         11    1    1    2    0    0 -0.70243398535E-01 -0.50762400047E-01  0.21635175986E+01  0.21652527836E+01  0.51100000000E-03 0. -1.
    9000002    1    1    2    0    0 -0.19493113278E+00  0.21372125888E+00  0.75520209608E-01  0.98449084561E+00  0.93800000000E+00 0.  1.
         22    1    1    2    0    0  0.26517453132E+00 -0.16295885884E+00  0.17609621592E+01  0.17882563708E+01  0.00000000000E+00 0.  1.
</event>
<event>
 5    1  0.3490044E+002  0.1599518E+01  0.7818608E-02  0.3353887E+00
         11   -1    0    0    0    0  0.00000000000E+00  0.00000000000E+00  0.39999999674E+01  0.40000000000E+01  0.51100000000E-03 0.  1.
    9000002   -1    0    0    0    0 -0.00000000000E+00 -0.00000000000E+00  0.00000000000E+00  0.93800000000E+00  0.93800000000E+00 0. -1.
         11    1    1    2    0    0 -0.16703480408E-01 -0.21595642428E+00  0.17533805131E+01  0.17667087107E+01  0.51100000000E-03 0.  1.
    9000002    1    1    2    0    0  0.69741202669E-01  0.47259052701E+00  0.15579258837E+00  0.10641057147E+01  0.93800000000E+00 0. -1.
         22    1    1    2    0    0 -0.53037722261E-01 -0.25663410273E+00  0.20908268659E+01  0.21071855746E+01  0.00000000000E+00 0. -1.
</event>
<event>
 5    1  0.3490044E+002  0.1599362E+01  0.7818608E-02  0.3354056E+00
         11   -1    0    0    0    0  0.00000000000E+00  0.00000000000E+00  0.39999999674E+01  0.40000000000E+01  0.51100000000E-03 0.  1.
    9000002   -1    0    0    0    0 -0.00000000000E+00 -0.00000000000E+00  0.00000000000E+00  0.93800000000E+00  0.93800000000E+00 0. -1.
         11    1    1    2    0    0 -0.11676248321E+00  0.15992113661E-01  0.10314902319E+01  0.10382011293E+01  0.51100000000E-03 0.  1.
    9000002    1    1    2    0    0  0.38796835942E+00 -0.10856300569E+00  0.10978141056E+00  0.10267430702E+01  0.93800000000E+00 0. -1.
         22    1    1    2    0    0 -0.27120587620E+00  0.92570892026E-01  0.28587283249E+01  0.28730558005E+01  0.00000000000E+00 0.  1.
</event>
<event>
 5    1  0.3490044E+002  0.1599674E+01  0.7818608E-02  0.3353717E+00
         11   -1    0    0    0    0  0.00000000000E+00  0.00000000000E+00  0.39999999674E+01  0.40000000000E+01  0.51100000000E-03 0.  1.
    9000002   -1    0    0    0    0 -0.00000000000E+00 -0.00000000000E+00  0.00000000000E+00  0.93800000000E+00  0.93800000000E+00 0. -1.
         11    1    1    2    0    0 -0.44123823134E-01  0.37252413799E-01  0.56435587954E+00  0.56730280626E+00  0.51100000000E-03 0.  1.
    9000002    1    1    2    0    0  0.30793340768E+00 -0.24859457511E+00  0.10558983367E+00  0.10235308785E+01  0.93800000000E+00 0. -1.
         22    1    1    2    0    0 -0.26380958455E+00  0.21134216131E+00  0.33300542541E+01  0.33471663152E+01  0.00000000000E+00 0.  1.
</event>
<event>
 5    1  0.3490044E+002  0.1599666E+01  0.7818608E-02  0.3353726E+00
         11   -1    0    0    0    0  0.00000000000E+00  0.00000000000E+00  0.39999999674E+01  0.40000000000E+01  0.51100000000E-03 0.  1.
    9000002   -1    0    0    0    0 -0.00000000000E+00 -0.00000000000E+00  0.00000000000E+00  0.93800000000E+00  0.93800000000E+00 0.  1.
         11    1    1    2    0    0 -0.35603815723E-01  0.46856251358E-01  0.51455974294E+00  0.51791421120E+00  0.51100000000E-03 0.  1.
    9000002    1    1    2    0    0  0.25585706459E+00 -0.36860359870E+00  0.13672461467E+00  0.10487464282E+01  0.93800000000E+00 0.  1.
         22    1    1    2    0    0 -0.22025324886E+00  0.32174734734E+00  0.33487156097E+01  0.33713393606E+01  0.00000000000E+00 0.  1.
</event>
<event>
 5    1  0.3490044E+002  0.1534710E+01  0.7818608E-02  0.3427426E+00
         11   -1    0    0    0    0  0.00000000000E+00  0.00000000000E+00  0.39999999674E+01  0.40000000000E+01  0.51100000000E-03 0.  1.
    9000002   -1    0    0    0    0 -0.00000000000E+00 -0.00000000000E+00  0.00000000000E+00  0.93800000000E+00  0.93800000000E+00 0. -1.
         11    1    1    2    0    0  0.28862759884E-03 -0.26693090507E-01 -0.18148360743E-01  0.32283564013E-01  0.51100000000E-03 0.  1.
    9000002    1    1    2    0    0  0.69016675648E-01  0.33620032522E+00  0.13298983080E+00  0.10076329963E+01  0.93800000000E+00 0. -1.
         22    1    1    2    0    0 -0.69305303247E-01 -0.30950723471E+00  0.38851584973E+01  0.38980834397E+01  0.00000000000E+00 0.  1.
</event>
<event>
 5    1  0.3490044E+002  0.1599654E+01  0.7818608E-02  0.3353739E+00
         11   -1    0    0    0    0  0.00000000000E+00  0.00000000000E+00  0.39999999674E+01  0.40000000000E+01  0.51100000000E-03 0. -1.
    9000002   -1    0    0    0    0 -0.00000000000E+00 -0.00000000000E+00  0.00000000000E+00  0.93800000000E+00  0.93800000000E+00 0.  1.
         11    1    1    2    0    0  0.78872884063E-01  0.96682127776E-01  0.13120279322E+01  0.13179476172E+01  0.51100000000E-03 0. -1.
    9000002    1    1    2    0    0 -0.22368468713E+00 -0.27693160650E+00  0.85046534118E-01  0.10068777815E+01  0.93800000000E+00 0.  1.
         22    1    1    2    0    0  0.14481180306E+00  0.18024947872E+00  0.26029255010E+01  0.26131746013E+01  0.00000000000E+00 0. -1.
</event>
<event>
 5    1  0.3490044E+002  0.1597295E+01  0.7818608E-02  0.3356304E+00
         11   -1    0    0    0    0  0.00000000000E+00  0.00000000000E+00  0.39999999674E+01  0.40000000000E+01  0.51100000000E-03 0.  1.
    9000002   -1    0    0    0    0 -0.00000000000E+00 -0.00000000000E+00  0.00000000000E+00  0.93800000000E+00  0.93800000000E+00 0.  1.
         11    1    1    2    0    0  0.35114989021E+00  0.53464858540E+00  0.22326807688E+01  0.23225027517E+01  0.51100000000E-03 0.  1.
    9000002    1    1    2    0    0 -0.44722549944E+00 -0.78653218471E+00  0.63163998855E+00  0.14482598524E+01  0.93800000000E+00 0.  1.
         22    1    1    2    0    0  0.96075609233E-01  0.25188359931E+00  0.11356792100E+01  0.11672373959E+01  0.00000000000E+00 0. -1.
</event>
<event>
 5    1  0.3490044E+002  0.1599674E+01  0.7818608E-02  0.3353718E+00
         11   -1    0    0    0    0  0.00000000000E+00  0.00000000000E+00  0.39999999674E+01  0.40000000000E+01  0.51100000000E-03 0. -1.
    9000002   -1    0    0    0    0 -0.00000000000E+00 -0.00000000000E+00  0.00000000000E+00  0.93800000000E+00  0.93800000000E+00 0. -1.
         11    1    1    2    0    0 -0.19612378496E-01  0.77507286475E-01  0.71899018413E+00  0.72342184847E+00  0.51100000000E-03 0. -1.
    9000002    1    1    2    0    0  0.96816910048E-01 -0.41963759769E+00  0.12562107404E+00  0.10397566454E+01  0.93800000000E+00 0. -1.
         22    1    1    2    0    0 -0.77204531551E-01  0.34213031122E+00  0.31553887092E+01  0.31748215061E+01  0.00000000000E+00 0. -1.
</event>
<event>
 5    1  0.3490044E+002  0.1599671E+01  0.7818608E-02  0.3353721E+00
         11   -1    0    0    0    0  0.00000000000E+00  0.00000000000E+00  0.39999999674E+01  0.40000000000E+01  0.51100000000E-03 0. -1.
    9000002   -1    0    0    0    0 -0.00000000000E+00 -0.00000000000E+00  0.00000000000E+00  0.93800000000E+00  0.93800000000E+00 0.  1.
         11    1    1    2    0    0 -0.12236980523E-02  0.13507792545E-01  0.19210732306E+00  0.19258619522E+00  0.51100000000E-03 0. -1.
    9000002    1    1    2    0    0  0.43214587160E-02 -0.29181279409E+00  0.56782763003E-01  0.98399271541E+00  0.93800000000E+00 0.  1.
         22    1    1    2    0    0 -0.30977606637E-02  0.27830500154E+00  0.37511098813E+01  0.37614210894E+01  0.00000000000E+00 0. -1.
</event>
<event>
 5    1  0.3490044E+002  0.1595590E+01  0.7818608E-02  0.3358163E+00
         11   -1    0    0    0    0  0.00000000000E+00  0.00000000000E+00  0.39999999674E+01  0.40000000000E+01  0.51100000000E-03 0.  1.
    9000002   -1    0    0    0    0 -0.00000000000E+00 -0.00000000000E+00  0.00000000000E+00  0.93800000000E+00  0.93800000000E+00 0.  1.
         11    1    1    2    0    0 -0.61403676896E-01 -0.13495639112E+00  0.12161459827E+01  0.12251509912E+01  0.51100000000E-03 0.  1.
    9000002    1    1    2    0    0 -0.13034938004E-01  0.34396058276E+00  0.82677043201E-01  0.10025758253E+01  0.93800000000E+00 0.  1.
         22    1    1    2    0    0  0.74438614901E-01 -0.20900419164E+00  0.27011769415E+01  0.27102731834E+01  0.00000000000E+00 0.  1.
</event>
<event>
 5    1  0.3490044E+002  0.1598768E+01  0.7818608E-02  0.3354701E+00
         11   -1    0    0    0    0  0.00000000000E+00  0.00000000000E+00  0.39999999674E+01  0.40000000000E+01  0.51100000000E-03 0.  1.
    9000002   -1    0    0    0    0 -0.00000000000E+00 -0.00000000000E+00  0.00000000000E+00  0.93800000000E+00  0.93800000000E+00 0.  1.
         11    1    1    2    0    0 -0.10928679928E+00  0.20603988509E-01  0.99524968118E+00  0.10014441162E+01  0.51100000000E-03 0.  1.
    9000002    1    1    2    0    0  0.36350193469E+00  0.24494538142E-01  0.89881802605E-01  0.10102753968E+01  0.93800000000E+00 0.  1.
         22    1    1    2    0    0 -0.25421513541E+00 -0.45098526650E-01  0.29148684836E+01  0.29262804870E+01  0.00000000000E+00 0.  1.
</event>
<event>
 5    1  0.3490044E+002  0.1598832E+01  0.7818608E-02  0.3354632E+00
         11   -1    0    0    0    0  0.00000000000E+00  0.00000000000E+00  0.39999999674E+01  0.40000000000E+01  0.51100000000E-03 0.  1.
    9000002   -1    0    0    0    0 -0.00000000000E+00 -0.00000000000E+00  0.00000000000E+00  0.93800000000E+00  0.93800000000E+00 0. -1.
         11    1    1    2    0    0  0.47392871063E-01  0.47984870223E-01  0.11951308977E+01  0.11970324789E+01  0.51100000000E-03 0.  1.
    9000002    1    1    2    0    0 -0.25882212870E+00 -0.13041170260E+00  0.56640804771E-01  0.98338613334E+00  0.93800000000E+00 0. -1.
         22    1    1    2    0    0  0.21142925764E+00  0.82426832382E-01  0.27482282649E+01  0.27575813877E+01  0.00000000000E+00 0.  1.
</event>
<event>
 5    1  0.3490044E+002  0.1599677E+01  0.7818608E-02  0.3353714E+00
         11   -1    0    0    0    0  0.00000000000E+00  0.00000000000E+00  0.39999999674E+01  0.40000000000E+01  0.51100000000E-03 0.  1.
    9000002   -1    0    0    0    0 -0.00000000000E+00 -0.00000000000E+00  0.00000000000E+00  0.93800000000E+00  0.93800000000E+00 0. -1.
         11    1    1    2    0    0 -0.29554225961E-01  0.24199070265E+00  0.19791701310E+01  0.19941282860E+01  0.51100000000E-03 0.  1.
    9000002    1    1    2    0    0  0.56961362895E-01 -0.47114614539E+00  0.15354216339E+00  0.10623758672E+01  0.93800000000E+00 0. -1.
         22    1    1    2    0    0 -0.27407136935E-01  0.22915544274E+00  0.18672876730E+01  0.18814958469E+01  0.00000000000E+00 0.  1.
</event>
<event>
 5    1  0.3490044E+002  0.1563245E+01  0.7818608E-02  0.3394248E+00
         11   -1    0    0    0    0  0.00000000000E+00  0.00000000000E+00  0.39999999674E+01  0.40000000000E+01  0.51100000000E-03 0. -1.
    9000002   -1    0    0    0    0 -0.00000000000E+00 -0.00000000000E+00  0.00000000000E+00  0.93800000000E+00  0.93800000000E+00 0.  1.
         11    1    1    2    0    0 -0.10646519809E+00 -0.17131695005E+00  0.11013660965E+01  0.11196838283E+01  0.51100000000E-03 0. -1.
    9000002    1    1    2    0    0 -0.91783619956E-01  0.47321325415E-01  0.34129889793E-01  0.94428406219E+00  0.93800000000E+00 0.  1.
         22    1    1    2    0    0  0.19824881804E+00  0.12399562463E+00  0.28645039811E+01  0.28740321095E+01  0.00000000000E+00 0. -1.
</event>
<event>
 5    1  0.3490044E+002  0.1595847E+01  0.7818608E-02  0.3357883E+00
         11   -1    0    0    0    0  0.00000000000E+00  0.00000000000E+00  0.39999999674E+01  0.40000000000E+01  0.51100000000E-03 0.  1.
    9000002   -1    0    0    0    0 -0.00000000000E+00 -0.00000000000E+00  0.00000000000E+00  0.93800000000E+00  0.93800000000E+00 0. -1.
         11    1    1    2    0    0  0.16105678481E-01  0.66506340763E-01  0.96434826408E+00  0.96677314909E+00  0.51100000000E-03 0.  1.
    9000002    1    1    2    0    0 -0.32072545917E+00 -0.30391284359E+00  0.13573204686E+00  0.10457031248E+01  0.93800000000E+00 0. -1.
         22    1    1    2    0    0  0.30461978069E+00  0.23740650283E+00  0.28999196564E+01  0.29255237261E+01  0.00000000000E+00 0.  1.
</event>
<event>
 5    1  0.3490044E+002  0.1572492E+01  0.7818608E-02  0.3383772E+00
         11   -1    0    0    0    0  0.00000000000E+00  0.00000000000E+00  0.39999999674E+01  0.40000000000E+01  0.51100000000E-03 0.  1.
    9000002   -1    0    0    0    0 -0.00000000000E+00 -0.00000000000E+00  0.00000000000E+00  0.93800000000E+00  0.93800000000E+00 0.  1.
         11    1    1    2    0    0  0.13986607021E+00 -0.12877521422E-02  0.27225682178E+01  0.27261588614E+01  0.51100000000E-03 0.  1.
    9000002    1    1    2    0    0 -0.17990888569E-01 -0.19136097149E+00  0.45046035920E-01  0.95854881922E+00  0.93800000000E+00 0.  1.
         22    1    1    2    0    0 -0.12187518165E+00  0.19264872364E+00  0.12323857136E+01  0.12532923194E+01  0.00000000000E+00 0.  1.
</event>
<event>
 5    1  0.3490044E+002  0.1588688E+01  0.7818608E-02  0.3365733E+00
         11   -1    0    0    0    0  0.00000000000E+00  0.00000000000E+00  0.39999999674E+01  0.40000000000E+01  0.51100000000E-03 0.  1.
    9000002   -1    0    0    0    0 -0.00000000000E+00 -0.00000000000E+00  0.00000000000E+00  0.93800000000E+00  0.93800000000E+00 0.  1.
         11    1    1    2    0    0 -0.87393432677E-01 -0.15602899051E-01  0.20718690557E+01  0.20737701675E+01  0.51100000000E-03 0.  1.
    9000002    1    1    2    0    0  0.15135778490E+00 -0.21012730485E+00  0.53059106041E-01  0.97453677818E+00  0.93800000000E+00 0.  1.
         22    1    1    2    0    0 -0.63964352226E-01  0.22573020390E+00  0.18750718056E+01  0.18896930543E+01  0.00000000000E+00 0.  1.
</event>
<event>
 5    1  0.3490044E+002  0.1592182E+01  0.7818608E-02  0.3361893E+00
         11   -1    0    0    0    0  0.00000000000E+00  0.00000000000E+00  0.39999999674E+01  0.40000000000E+01  0.51100000000E-03 0.  1.
    9000002   -1    0    0    0    0 -0.00000000000E+00 -0.00000000000E+00  0.00000000000E+00  0.93800000000E+00  0.93800000000E+00 0.  1.
         11    1    1    2    0    0  0.17305737552E-01  0.37833070970E-01  0.16197310978E+01  0.16202653857E+01  0.51100000000E-03 0.  1.
    9000002    1    1    2    0    0 -0.11045680283E+00  0.14903413401E+00  0.28372577128E-01  0.95658814624E+00  0.93800000000E+00 0.  1.
         22    1    1    2    0    0  0.93151065279E-01 -0.18686720498E+00  0.23518962924E+01  0.23611464680E+01  0.00000000000E+00 0.  1.
</event>
<event>
 5    1  0.3490044E+002  0.1599191E+01  0.7818608E-02  0.3354242E+00
         11   -1    0    0    0    0  0.00000000000E+00  0.00000000000E+00  0.39999999674E+01  0.40000000000E+01  0.51100000000E-03 0.  1.
    9000002   -1    0    0    0    0 -0.00000000000E+00 -0.00000000000E+00  0.00000000000E+00  0.93800000000E+00  0.93800000000E+00 0. -1.
         11    1    1    2    0    0  0.17569649637E+00 -0.24675164531E-01  0.13466977371E+01  0.13583347079E+01  0.51100000000E-03 0.  1.
    9000002    1    1    2    0    0 -0.45056462019E+00  0.21054595470E-01  0.13862297901E+00  0.10500057634E+01  0.93800000000E+00 0. -1.
         22    1    1    2    0    0  0.27486812382E+00  0.36205690607E-02  0.25146792513E+01  0.25296595286E+01  0.00000000000E+00 0.  1.
</event>
<event>
 5    1  0.3490044E+002  0.1599066E+01  0.7818608E-02  0.3354378E+00
         11   -1    0    0    0    0  0.00000000000E+00  0.00000000000E+00  0.39999999674E+01  0.40000000000E+01  0.51100000000E-03 0.  1.
    9000002   -1    0    0    0    0 -0.00000000000E+00 -0.00000000000E+00  0.00000000000E+00  0.93800000000E+00  0.93800000000E+00 0. -1.
         11    1    1    2    0    0  0.37857494118E-02 -0.35520782573E-01  0.48082669681E+00  0.48215208324E+00  0.51100000000E-03 0.  1.
    9000002    1    1    2    0    0  0.11309068852E+00  0.22329590850E+00  0.42086227160E-01  0.97173340845E+00  0.93800000000E+00 0. -1.
         22    1    1    2    0    0 -0.11687643793E+00 -0.18777512592E+00  0.34770870434E+01  0.34841145083E+01  0.00000000000E+00 0.  1.
</event>
<event>
 5    1  0.3490044E+002  0.1599664E+01  0.7818608E-02  0.3353728E+00
         11   -1    0    0    0    0  0.00000000000E+00  0.00000000000E+00  0.39999999674E+01  0.40000000000E+01  0.51100000000E-03 0. -1.
    9000002   -1    0    0    0    0 -0.00000000000E+00 -0.00000000000E+00  0.00000000000E+00  0.93800000000E+00  0.93800000000E+00 0.  1.
         11    1    1    2    0    0  0.21068597779E-02  0.48949251988E-01  0.51677399898E+00  0.51909160585E+00  0.51100000000E-03 0. -1.
    9000002    1    1    2    0    0  0.14151457279E-02 -0.35697259171E+00  0.85521190592E-01  0.10072682403E+01  0.93800000000E+00 0.  1.
         22    1    1    2    0    0 -0.35220055058E-02  0.30802333972E+00  0.33977047778E+01  0.34116401539E+01  0.00000000000E+00 0. -1.
</event>
<event>
 5    1  0.3490044E+002  0.1559461E+01  0.7818608E-02  0.3398574E+00
         11   -1    0    0    0    0  0.00000000000E+00  0.00000000000E+00  0.39999999674E+01  0.40000000000E+01  0.51100000000E-03 0.  1.
    9000002   -1    0    0    0    0 -0.00000000000E+00 -0.00000000000E+00  0.00000000000E+00  0.93800000000E+00  0.93800000000E+00 0. -1.
         11    1    1    2    0    0  0.11756610488E+00 -0.96351829584E-01  0.38333782980E+00  0.41237557755E+00  0.51100000000E-03 0.  1.
    9000002    1    1    2    0    0 -0.25377042455E+00 -0.16412637376E+00  0.93155210933E-01  0.98987816839E+00  0.93800000000E+00 0. -1.
         22    1    1    2    0    0  0.13620431967E+00  0.26047820334E+00  0.35235069266E+01  0.35357462541E+01  0.00000000000E+00 0.  1.
</event>
<event>
 5    1  0.3490044E+002  0.1599654E+01  0.7818608E-02  0.3353739E+00
         11   -1    0    0    0    0  0.00000000000E+00  0.00000000000E+00  0.39999999674E+01  0.40000000000E+01  0.51100000000E-03 0.  1.
    9000002   -1    0    0    0    0 -0.00000000000E+00 -0.00000000000E+00  0.00000000000E+00  0.93800000000E+00  0.93800000000E+00 0.  1.
         11    1    1    2    0    0 -0.68443321404E-02  0.45709837387E-01  0.55971082415E+00  0.56161615175E+00  0.51100000000E-03 0.  1.
    9000002    1    1    2    0    0  0.41829778659E-01 -0.34753312532E+00  0.82175854305E-01  0.10045525743E+01  0.93800000000E+00 0.  1.
         22    1    1    2    0    0 -0.34985446519E-01  0.30182328793E+00  0.33581132889E+01  0.33718312739E+01  0.00000000000E+00 0.  1.
</event>
<event>
 5    1  0.3490044E+002  0.1596057E+01  0.7818608E-02  0.3357654E+00
         11   -1    0    0    0    0  0.00000000000E+00  0.00000000000E+00  0.39999999674E+01  0.40000000000E+01  0.51100000000E-03 0. -1.
    9000002   -1    0    0    0    0 -0.00000000000E+00 -0.00000000000E+00  0.00000000000E+00  0.93800000000E+00  0.93800000000E+00 0. -1.
         11    1    1    2    0    0 -0.47474072811E+00 -0.23121127036E+00  0.24140709375E+01  0.24711487537E+01  0.51100000000E-03 0. -1.
    9000002    1    1    2    0    0  0.69011093751E+00  0.24529305531E+00  0.39110275074E+00  0.12526879702E+01  0.93800000000E+00 0. -1.
         22    1    1    2    0    0 -0.21537020940E+00 -0.14081784946E-01  0.11948262791E+01  0.12141632761E+01  0.00000000000E+00 0.  1.
</event>
<event>
 5    1  0.3490044E+002  0.1599672E+01  0.7818608E-02  0.3353719E+00
         11   -1    0    0    0    0  0.00000000000E+00  0.00000000000E+00  0.39999999674E+01  0.40000000000E+01  0.51100000000E-03 0. -1.
    9000002   -1    0    0    0    0 -0.00000000000E+00 -0.00000000000E+00  0.00000000000E+00  0.93800000000E+00  0.93800000000E+00 0. -1.
         11    1    1    2    0    0 -0.19611493153E-02  0.21552978581E-01  0.34993057685E+00  0.35059955324E+00  0.51100000000E-03 0. -1.
    9000002    1    1    2    0    0  0.14621633219E-01 -0.22948352430E+00  0.35077468497E-01  0.96641135594E+00  0.93800000000E+00 0. -1.
         22    1    1    2    0    0 -0.12660483904E-01  0.20793054572E+00  0.36149919220E+01  0.36209890908E+01  0.00000000000E+00 0. -1.
</event>
<event>
 5    1  0.3490044E+002  0.1581331E+01  0.7818608E-02  0.3373879E+00
         11   -1    0    0    0    0  0.00000000000E+00  0.00000000000E+00  0.39999999674E+01  0.40000000000E+01  0.51100000000E-03 0. -1.
    9000002   -1    0    0    0    0 -0.00000000000E+00 -0.00000000000E+00  0.00000000000E+00  0.93800000000E+00  0.93800000000E+00 0.  1.
         11    1    1    2    0    0  0.41692893835E-01 -0.51648264882E-01  0.25937486442E+01  0.25945978747E+01  0.51100000000E-03 0. -1.
    9000002    1    1    2    0    0  0.12624858270E+00 -0.64304354555E-01  0.26885611472E-01  0.94902085897E+00  0.93800000000E+00 0.  1.
         22    1    1    2    0    0 -0.16794147654E+00  0.11595261944E+00  0.13793657116E+01  0.13943812664E+01  0.00000000000E+00 0. -1.
</event>
<event>
 5    1  0.3490044E+002  0.1590479E+01  0.7818608E-02  0.3363763E+00
         11   -1    0    0    0    0  0.00000000000E+00  0.00000000000E+00  0.39999999674E+01  0.40000000000E+01  0.51100000000E-03 0. -1.
    9000002   -1    0    0    0    0 -0.00000000000E+00 -0.00000000000E+00  0.00000000000E+00  0.93800000000E+00  0.93800000000E+00 0.  1.
         11    1    1    2    0    0 -0.62527611908E-01 -0.13797160631E-01  0.54622284572E+00  0.54996338260E+00  0.51100000000E-03 0. -1.
    9000002    1    1    2    0    0 -0.26094295110E-01 -0.22132464036E+00  0.39911519574E-01  0.96493649431E+00  0.93800000000E+00 0.  1.
         22    1    1    2    0    0  0.88621907018E-01  0.23512180099E+00  0.34138656021E+01  0.34231001231E+01  0.00000000000E+00 0. -1.
</event>
<event>
 5    1  0.3490044E+002  0.1598861E+01  0.7818608E-02  0.3354601E+00
         11   -1    0    0    0    0  0.00000000000E+00  0.00000000000E+00  0.39999999674E+01  0.40000000000E+01  0.51100000000E-03 0. -1.
    9000002   -1    0    0    0    0 -0.00000000000E+00 -0.00000000000E+00  0.00000000000E+00  0.93800000000E+00  0.93800000000E+00 0. -1.
         11    1    1    2    0    0  0.98884906071E-01 -0.18553644807E+00  0.15047045297E+01  0.15193215529E+01  0.51100000000E-03 0. -1.
    9000002    1    1    2    0    0 -0.16914910682E+00  0.45224796587E+00  0.15987239283E+00  0.10670252223E+01  0.93800000000E+00 0. -1.
         22    1    1    2    0    0  0.70264200750E-01 -0.26671151780E+00  0.23354230448E+01  0.23516532248E+01  0.00000000000E+00 0. -1.
</event>
<event>
 5    1  0.3490044E+002  0.1598874E+01  0.7818608E-02  0.3354587E+00
         11   -1    0    0    0    0  0.00000000000E+00  0.00000000000E+00  0.39999999674E+01  0.40000000000E+01  0.51100000000E-03 0. -1.
    9000002   -1    0    0    0    0 -0.00000000000E+00 -0.00000000000E+00  0.00000000000E+00  0.93800000000E+00  0.93800000000E+00 0.  1.
         11    1    1    2    0    0  0.31361213233E-01 -0.46661701039E-01  0.10007980503E+01  0.10023760964E+01  0.51100000000E-03 0. -1.
    9000002    1    1    2    0    0 -0.59153662202E-01  0.28164031524E+00  0.55814290638E-01  0.98274089055E+00  0.93800000000E+00 0.  1.
         22    1    1    2    0    0  0.27792448970E-01 -0.23497861420E+00  0.29433876264E+01  0.29528830130E+01  0.00000000000E+00 0. -1.
</event>
<event>
 5    1  0.3490044E+002  0.1599674E+01  0.7818608E-02  0.3353718E+00
         11   -1    0    0    0    0  0.00000000000E+00  0.00000000000E+00  0.39999999674E+01  0.40000000000E+01  0.51100000000E-03 0. -1.
    9000002   -1    0    0    0    0 -0.00000000000E+00 -0.00000000000E+00  0.00000000000E+00  0.93800000000E+00  0.93800000000E+00 0. -1.
         11    1    1    2    0    0 -0.33695181101E-01  0.38891141151E-01  0.78023320767E+00  0.78192838902E+00  0.51100000000E-03 0. -1.
    9000002    1    1    2    0    0  0.16584847630E+00 -0.20408877191E+00  0.45990347500E-01  0.97525230375E+00  0.93800000000E+00 0. -1.
         22    1    1    2    0    0 -0.13215329519E+00  0.16519763076E+00  0.31737764122E+01  0.31808193072E+01  0.00000000000E+00 0. -1.
</event>
<event>
 5    1  0.3490044E+002  0.1599626E+01  0.7818608E-02  0.3353769E+00
         11   -1    0    0    0    0  0.00000000000E+00  0.00000000000E+00  0.39999999674E+01  0.40000000000E+01  0.51100000000E-03 0. -1.
    9000002   -1    0    0    0    0 -0.00000000000E+00 -0.00000000000E+00  0.00000000000E+00  0.93800000000E+00  0.93800000000E+00 0. -1.
         11    1    1    2    0    0  0.33029867030E-01 -0.39785381345E-01  0.63448626100E+00  0.63659007627E+00  0.51100000000E-03 0. -1.
    9000002    1    1    2    0    0 -0.17213473990E+00  0.26803610367E+00  0.67855359038E-01  0.99293608621E+00  0.93800000000E+00 0. -1.
         22    1    1    2    0    0  0.13910487287E+00 -0.22825072233E+00  0.32976583473E+01  0.33084738375E+01  0.00000000000E+00 0. -1.
</event>
<event>
 5    1  0.3490044E+002  0.1591392E+01  0.7818608E-02  0.3362760E+00
         11   -1    0    0    0    0  0.00000000000E+00  0.00000000000E+00  0.39999999674E+01  0.40000000000E+01  0.51100000000E-03 0. -1.
    9000002   -1    0    0    0    0 -0.00000000000E+00 -0.00000000000E+00  0.00000000000E+00  0.93800000000E+00  0.93800000000E+00 0. -1.
         11    1    1    2    0    0 -0.93966027232E-01 -0.41394813812E-03  0.47353483581E+00  0.48276835798E+00  0.51100000000E-03 0. -1.
    9000002    1    1    2    0    0  0.22545923965E+00  0.21909891270E+00  0.72589043900E-01  0.99194222190E+00  0.93800000000E+00 0. -1.
         22    1    1    2    0    0 -0.13149321241E+00 -0.21868496457E+00  0.34538760877E+01  0.34632894201E+01  0.00000000000E+00 0. -1.
</event>
<event>
 5    1  0.3490044E+002  0.1596621E+01  0.7818608E-02  0.3357039E+00
         11   -1    0    0    0    0  0.00000000000E+00  0.00000000000E+00  0.39999999674E+01  0.40000000000E+01  0.51100000000E-03 0. -1.
    9000002   -1    0    0    0    0 -0.00000000000E+00 -0.00000000000E+00  0.00000000000E+00  0.93800000000E+00  0.93800000000E+00 0. -1.
         11    1    1    2    0    0  0.28161432064E+00  0.12771572052E+00  0.14034108210E+01  0.14370734583E+01  0.51100000000E-03 0. -1.
    9000002    1    1    2    0    0 -0.58806807694E+00 -0.26083381645E+00  0.29477160351E+00  0.11749862302E+01  0.93800000000E+00 0. -1.
         22    1    1    2    0    0  0.30645375630E+00  0.13311809593E+00  0.23018175428E+01  0.23259403115E+01  0.00000000000E+00 0. -1.
</event>
<event>
 5    1  0.3490044E+002  0.1599675E+01  0.7818608E-02  0.3353716E+00
         11   -1    0    0    0    0  0.00000000000E+00  0.00000000000E+00  0.39999999674E+01  0.40000000000E+01  0.51100000000E-03 0. -1.
    9000002   -1    0    0    0    0 -0.00000000000E+00 -0.00000000000E+00  0.00000000000E+00  0.93800000000E+00  0.93800000000E+00 0.  1.
         11    1    1    2    0    0 -0.15657225643E-01 -0.46646981982E-01  0.69416715761E+00  0.69590904109E+00  0.51100000000E-03 0. -1.
    9000002    1    1    2    0    0  0.92424890079E-01  0.27165964104E+00  0.54867439298E-01  0.98244376774E+00  0.93800000000E+00 0.  1.
         22    1    1    2    0    0 -0.76767664437E-01 -0.22501265906E+00  0.32509653705E+01  0.32596471912E+01  0.00000000000E+00 0. -1.
</event>
<event>
 5    1  0.3490044E+002  0.1444010E+01  0.7818608E-02  0.3542270E+00
         11   -1    0    0    0    0  0.00000000000E+00  0.00000000000E+00  0.39999999674E+01  0.40000000000E+01  0.51100000000E-03 0. -1.
    9000002   -1    0    0    0    0 -0.00000000000E+00 -0.00000000000E+00  0.00000000000E+00  0.93800000000E+00  0.93800000000E+00 0. -1.
         11    1    1    2    0    0  0.44208961064E+00 -0.16897320172E-01  0.23556631118E+01  0.23968474505E+01  0.51100000000E-03 0. -1.
    9000002    1    1    2    0    0  0.34218941988E-02 -0.19036735718E+00  0.15089015566E+00  0.96894957512E+00  0.93800000000E+00 0. -1.
         22    1    1    2    0    0 -0.44551150484E+00  0.20726467736E+00  0.14934466999E+01  0.15722029744E+01  0.00000000000E+00 0. -1.
</event>
<event>
 5    1  0.3490044E+002  0.1599653E+01  0.7818608E-02  0.3353740E+00
         11   -1    0    0    0    0  0.00000000000E+00  0.00000000000E+00  0.39999999674E+01  0.40000000000E+01  0.51100000000E-03 0. -1.
    9000002   -1    0    0    0    0 -0.00000000000E+00 -0.00000000000E+00  0.00000000000E+00  0.93800000000E+00  0.93800000000E+00 0.  1.
         11    1    1    2    0    0  0.43707616103E-01  0.42490599881E-01  0.68444839151E+00  0.68715767371E+00  0.51100000000E-03 0. -1.
    9000002    1    1    2    0    0 -0.23007688932E+00 -0.25920511063E+00  0.80532851809E-01  0.10032209152E+01  0.93800000000E+00 0.  1.
         22    1    1    2    0    0  0.18636927321E+00  0.21671451075E+00  0.32350187240E+01  0.32476214111E+01  0.00000000000E+00 0. -1.
</event>
<event>
 5    1  0.3490044E+002  0.1599675E+01  0.7818608E-02  0.3353716E+00
         11   -1    0    0    0    0  0.00000000000E+00  0.00000000000E+00  0.39999999674E+01  0.40000000000E+01  0.51100000000E-03 0. -1.
    9000002   -1    0    0    0    0 -0.00000000000E+00 -0.00000000000E+00  0.00000000000E+00  0.93800000000E+00  0.93800000000E+00 0.  1.
         11    1    1    2    0    0 -0.57445902761E-01  0.44971288329E-01  0.93603469487E+00  0.93887361218E+00  0.51100000000E-03 0. -1.
    9000002    1    1    2    0    0  0.24703491407E+00 -0.18869058996E+00  0.64531083706E-01  0.99027200721E+00  0.93800000000E+00 0.  1.
         22    1    1    2    0    0 -0.18958901131E+00  0.14371930163E+00  0.29994341888E+01  0.30088543806E+01  0.00000000000E+00 0. -1.
</event>
<event>
 5    1  0.3490044E+002  0.1599673E+01  0.7818608E-02  0.3353718E+00
         11   -1    0    0    0    0  0.00000000000E+00  0.00000000000E+00  0.39999999674E+01  0.40000000000E+01  0.51100000000E-03 0. -1.
    9000002   -1    0    0    0    0 -0.00000000000E+00 -0.00000000000E+00  0.00000000000E+00  0.93800000000E+00  0.93800000000E+00 0. -1.
         11    1    1    2    0    0  0.12176150368E+00  0.84328879993E-01  0.16501180380E+01  0.16567519502E+01  0.51100000000E-03 0. -1.
    9000002    1    1    2    0    0 -0.29078051238E+00 -0.19511655844E+00  0.82225022306E-01  0.10046037687E+01  0.93800000000E+00 0. -1.
         22    1    1    2    0    0  0.16901900870E+00  0.11078767845E+00  0.22676569070E+01  0.22766442812E+01  0.00000000000E+00 0.  1.
</event>
<event>
 5    1  0.3490044E+002  0.1599675E+01  0.7818608E-02  0.3353716E+00
         11   -1    0    0    0    0  0.00000000000E+00  0.00000000000E+00  0.39999999674E+01  0.40000000000E+01  0.51100000000E-03 0. -1.
    9000002   -1    0    0    0    0 -0.00000000000E+00 -0.00000000000E+00  0.00000000000E+00  0.93800000000E+00  0.93800000000E+00 0. -1.
         11    1    1    2    0    0 -0.29632660346E-01 -0.30543901359E-01  0.58830502400E+00  0.58984242544E+00  0.51100000000E-03 0. -1.
    9000002    1    1    2    0    0  0.20639839135E+00  0.20376021929E+00  0.56066942113E-01  0.98341548946E+00  0.93800000000E+00 0. -1.
         22    1    1    2    0    0 -0.17676573100E+00 -0.17321631793E+00  0.33556280012E+01  0.33647420851E+01  0.00000000000E+00 0. -1.
</event>
<event>
 5    1  0.3490044E+002  0.1598634E+01  0.7818608E-02  0.3354847E+00
         11   -1    0    0    0    0  0.00000000000E+00  0.00000000000E+00  0.39999999674E+01  0.40000000000E+01  0.51100000000E-03 0. -1.
    9000002   -1    0    0    0    0 -0.00000000000E+00 -0.00000000000E+00  0.00000000000E+00  0.93800000000E+00  0.93800000000E+00 0. -1.
         11    1    1    2    0    0  0.48791550123E-01 -0.40729718071E-01  0.12248388438E+01  0.12264868445E+01  0.51100000000E-03 0. -1.
    9000002    1    1    2    0    0 -0.13465138934E+00  0.24501087611E+00  0.52855215621E-01  0.98020355023E+00  0.93800000000E+00 0. -1.
         22    1    1    2    0    0  0.85859839219E-01 -0.20428115804E+00  0.27223059079E+01  0.27313096053E+01  0.00000000000E+00 0. -1.
</event>
<event>
 5    1  0.3490044E+002  0.1547227E+01  0.7818608E-02  0.3412712E+00
         11   -1    0    0    0    0  0.00000000000E+00  0.00000000000E+00  0.39999999674E+01  0.40000000000E+01  0.51100000000E-03 0. -1.
    9000002   -1    0    0    0    0 -0.00000000000E+00 -0.00000000000E+00  0.00000000000E+00  0.93800000000E+00  0.93800000000E+00 0. -1.
         11    1    1    2    0    0 -0.58055078750E-01 -0.27887178997E+00  0.13683730250E+01  0.13977070022E+01  0.51100000000E-03 0. -1.
    9000002    1    1    2    0    0 -0.82627448493E-01  0.89212920786E-01  0.49237732551E-01  0.94712966102E+00  0.93800000000E+00 0. -1.
         22    1    1    2    0    0  0.14068252724E+00  0.18965886918E+00  0.25823892098E+01  0.25931633368E+01  0.00000000000E+00 0. -1.
</event>
<event>
 5    1  0.3490044E+002  0.1599667E+01  0.7818608E-02  0.3353725E+00
         11   -1    0    0    0    0  0.00000000000E+00  0.00000000000E+00  0.39999999674E+01  0.40000000000E+01  0.51100000000E-03 0. -1.
    9000002   -1    0    0    0    0 -0.00000000000E+00 -0.00000000000E+00  0.00000000000E+00  0.93800000000E+00  0.93800000000E+00 0. -1.
         11    1    1    2    0    0 -0.84368081335E-01 -0.33508482114E-01  0.76627787537E+00  0.77163646552E+00  0.51100000000E-03 0. -1.
    9000002    1    1    2    0    0  0.43814009681E+00  0.16225259259E+00  0.14865555818E+00  0.10584116039E+01  0.93800000000E+00 0. -1.
         22    1    1    2    0    0 -0.35377201547E+00 -0.12874411048E+00  0.30850665338E+01  0.31079519306E+01  0.00000000000E+00 0. -1.
</event>
<event>
 5    1  0.3490044E+002  0.1599675E+01  0.7818608E-02  0.3353716E+00
         11   -1    0    0    0    0  0.00000000000E+00  0.00000000000E+00  0.39999999674E+01  0.40000000000E+01  0.51100000000E-03 0.  1.
    9000002   -1    0    0    0    0 -0.00000000000E+00 -0.00000000000E+00  0.00000000000E+00  0.93800000000E+00  0.93800000000E+00 0. -1.
         11    1    1    2    0    0 -0.60772387578E-02 -0.20778825254E-01  0.32440554984E+00  0.32512753544E+00  0.51100000000E-03 0.  1.
    9000002    1    1    2    0    0  0.84168141617E-01  0.25303419112E+00  0.47302062720E-01  0.97631555507E+00  0.93800000000E+00 0. -1.
         22    1    1    2    0    0 -0.78090902859E-01 -0.23225536586E+00  0.36282923548E+01  0.36365569095E+01  0.00000000000E+00 0.  1.
</event>
<event>
 5    1  0.3490044E+002  0.1599582E+01  0.7818608E-02  0.3353818E+00
         11   -1    0    0    0    0  0.00000000000E+00  0.00000000000E+00  0.39999999674E+01  0.40000000000E+01  0.51100000000E-03 0. -1.
    9000002   -1    0    0    0    0 -0.00000000000E+00 -0.00000000000E+00  0.00000000000E+00  0.93800000000E+00  0.93800000000E+00 0.  1.
         11    1    1    2    0    0 -0.47551337950E-01  0.24719392669E+00  0.20038894047E+01  0.20196383276E+01  0.51100000000E-03 0. -1.
    9000002    1    1    2    0    0  0.11287683719E+00 -0.47835638493E+00  0.16521733876E+00  0.10717773931E+01  0.93800000000E+00 0.  1.
         22    1    1    2    0    0 -0.65325499242E-01  0.23116245825E+00  0.18308932239E+01  0.18465842792E+01  0.00000000000E+00 0. -1.
</event>
<event>
 5    1  0.3490044E+002  0.1537861E+01  0.7818608E-02  0.3423698E+00
         11   -1    0    0    0    0  0.00000000000E+00  0.00000000000E+00  0.39999999674E+01  0.40000000000E+01  0.51100000000E-03 0.  1.
    9000002   -1    0    0    0    0 -0.00000000000E+00 -0.00000000000E+00  0.00000000000E+00  0.93800000000E+00  0.93800000000E+00 0.  1.
         11    1    1    2    0    0  0.23126941972E+00  0.17610517337E+00  0.11234759611E+01  0.11604727799E+01  0.51100000000E-03 0.  1.
    9000002    1    1    2    0    0 -0.10501388104E+00  0.18713992508E-01  0.54124291763E-01  0.94559587969E+00  0.93800000000E+00 0.  1.
         22    1    1    2    0    0 -0.12625553869E+00 -0.19481916588E+00  0.28223997145E+01  0.28319313404E+01  0.00000000000E+00 0.  1.
</event>
<event>
 5    1  0.3490044E+002  0.1598870E+01  0.7818608E-02  0.3354591E+00
         11   -1    0    0    0    0  0.00000000000E+00  0.00000000000E+00  0.39999999674E+01  0.40000000000E+01  0.51100000000E-03 0. -1.
    9000002   -1    0    0    0    0 -0.00000000000E+00 -0.00000000000E+00  0.00000000000E+00  0.93800000000E+00  0.93800000000E+00 0. -1.
         11    1    1    2    0    0  0.44975417142E-01 -0.17648841234E+00  0.15747128207E+01  0.15852102942E+01  0.51100000000E-03 0. -1.
    9000002    1    1    2    0    0 -0.48650178453E-01  0.48510102963E+00  0.16309623511E+00  0.10696421040E+01  0.93800000000E+00 0. -1.
         22    1    1    2    0    0  0.36747613112E-02 -0.30861261729E+00  0.22621909115E+01  0.22831476018E+01  0.00000000000E+00 0.  1.
</event>
<event>
 5    1  0.3490044E+002  0.1599664E+01  0.7818608E-02  0.3353728E+00
         11   -1    0    0    0    0  0.00000000000E+00  0.00000000000E+00  0.39999999674E+01  0.40000000000E+01  0.51100000000E-03 0. -1.
    9000002   -1    0    0    0    0 -0.00000000000E+00 -0.00000000000E+00  0.00000000000E+00  0.93800000000E+00  0.93800000000E+00 0.  1.
         11    1    1    2    0    0  0.48894774157E-02  0.59404538681E-01  0.63155271773E+00  0.63435944275E+00  0.51100000000E-03 0. -1.
    9000002    1    1    2    0    0 -0.49136655736E-01 -0.37282863083E+00  0.95115625543E-01  0.10150401870E+01  0.93800000000E+00 0.  1.
         22    1    1    2    0    0  0.44247178320E-01  0.31342409215E+00  0.32733316241E+01  0.32886003703E+01  0.00000000000E+00 0. -1.
</event>
<event>
 5    1  0.4001189E+002  0.1580707E+01  0.7818608E-02  0.3374573E+00
         11   -1    0    0    0    0  0.00000000000E+00  0.00000000000E+00  0.39999999674E+01  0.40000000000E+01  0.51100000000E-03 0.  1.
    9000002   -1    0    0    0    0 -0.00000000000E+00 -0.00000000000E+00  0.00000000000E+00  0.93800000000E+00  0.93800000000E+00 0.  1.
         11    1    1    2    0    0  0.79330040153E-02 -0.10979199140E+00  0.10039786865E+01  0.10099953852E+01  0.51100000000E-03 0.  1.
    9000002    1    1    2    0    0  0.33628166951E-01 -0.13181800270E+00  0.26297181383E-01  0.94817845430E+00  0.93800000000E+00 0.  1.
         22    1    1    2    0    0 -0.41561170966E-01  0.24160999410E+00  0.29697240995E+01  0.29798261605E+01  0.00000000000E+00 0.  1.
</event>
<event>
 5    1  0.3490044E+002  0.1599015E+01  0.7818608E-02  0.3354433E+00
         11   -1    0    0    0    0  0.00000000000E+00  0.00000000000E+00  0.39999999674E+01  0.40000000000E+01  0.51100000000E-03 0.  1.
    9000002   -1    0    0    0    0 -0.00000000000E+00 -0.00000000000E+00  0.00000000000E+00  0.93800000000E+00  0.93800000000E+00 0.  1.
         11    1    1    2    0    0 -0.64797264448E-01  0.51326073308E-01  0.88329532067E+00  0.88715496725E+00  0.51100000000E-03 0.  1.
    9000002    1    1    2    0    0  0.36912559041E+00 -0.29731654244E+00  0.15372005052E+00  0.10621321395E+01  0.93800000000E+00 0.  1.
         22    1    1    2    0    0 -0.30432832596E+00  0.24599046913E+00  0.29629845962E+01  0.29887128932E+01  0.00000000000E+00 0.  1.
</event>
<event>
 5    1  0.3490044E+002  0.1599046E+01  0.7818608E-02  0.3354399E+00
         11   -1    0    0    0    0  0.00000000000E+00  0.00000000000E+00  0.39999999674E+01  0.40000000000E+01  0.51100000000E-03 0. -1.
    9000002   -1    0    0    0    0 -0.00000000000E+00 -0.00000000000E+00  0.00000000000E+00  0.93800000000E+00  0.93800000000E+00 0.  1.
         11    1    1    2    0    0  0.74211592359E-01  0.27594431750E-01  0.94280763751E+00  0.94612647969E+00  0.51100000000E-03 0. -1.
    9000002    1    1    2    0    0 -0.29769818121E+00 -0.22112499625E+00  0.92942707390E-01  0.10129179720E+01  0.93800000000E+00 0.  1.
         22    1    1    2    0    0  0.22348658885E+00  0.19353056450E+00  0.29642496225E+01  0.29789555484E+01  0.00000000000E+00 0.  1.
</event>
<event>
 5    1  0.3490044E+002  0.1597712E+01  0.7818608E-02  0.3355851E+00
         11   -1    0    0    0    0  0.00000000000E+00  0.00000000000E+00  0.39999999674E+01  0.40000000000E+01  0.51100000000E-03 0.  1.
    9000002   -1    0    0    0    0 -0.00000000000E+00 -0.00000000000E+00  0.00000000000E+00  0.93800000000E+00  0.93800000000E+00 0. -1.
         11    1    1    2    0    0  0.11522911107E+00  0.13960199710E+00  0.94065079722E+00  0.95790952029E+00  0.51100000000E-03 0.  1.
    9000002    1    1    2    0    0 -0.27978204372E+00 -0.51416318102E+00  0.24025193988E+00  0.11314622236E+01  0.93800000000E+00 0. -1.
         22    1    1    2    0    0  0.16455293266E+00  0.37456118392E+00  0.28190972303E+01  0.28486282562E+01  0.00000000000E+00 0.  1.
</event>
<event>
 5    1  0.3490044E+002  0.1599676E+01  0.7818608E-02  0.3353715E+00
         11   -1    0    0    0    0  0.00000000000E+00  0.00000000000E+00  0.39999999674E+01  0.40000000000E+01  0.51100000000E-03 0. -1.
    9000002   -1    0    0    0    0 -0.00000000000E+00 -0.00000000000E+00  0.00000000000E+00  0.93800000000E+00  0.93800000000E+00 0. -1.
         11    1    1    2    0    0  0.77148083703E-01  0.23010213174E+00  0.20634712271E+01  0.20776940544E+01  0.51100000000E-03 0. -1.
    9000002    1    1    2    0    0 -0.14220845352E+00 -0.42908970745E+00  0.13882835721E+00  0.10504563456E+01  0.93800000000E+00 0. -1.
         22    1    1    2    0    0  0.65060369813E-01  0.19898757571E+00  0.17977003831E+01  0.18098495999E+01  0.00000000000E+00 0. -1.
</event>
<event>
 5    1  0.3490044E+002  0.1598181E+01  0.7818608E-02  0.3355340E+00
         11   -1    0    0    0    0  0.00000000000E+00  0.00000000000E+00  0.39999999674E+01  0.40000000000E+01  0.51100000000E-03 0. -1.
    9000002   -1    0    0    0    0 -0.00000000000E+00 -0.00000000000E+00  0.00000000000E+00  0.93800000000E+00  0.93800000000E+00 0. -1.
         11    1    1    2    0    0  0.17537613718E+00 -0.53100181869E-02  0.13743161113E+01  0.13854710465E+01  0.51100000000E-03 0. -1.
    9000002    1    1    2    0    0 -0.39120953727E+00 -0.54412898255E-01  0.10640254468E+00  0.10233138165E+01  0.93800000000E+00 0. -1.
         22    1    1    2    0    0  0.21583340009E+00  0.59722916442E-01  0.25192813114E+01  0.25292151370E+01  0.00000000000E+00 0. -1.
</event>
<event>
 5    1  0.3490044E+002  0.1579828E+01  0.7818608E-02  0.3375552E+00
         11   -1    0    0    0    0  0.00000000000E+00  0.00000000000E+00  0.39999999674E+01  0.40000000000E+01  0.51100000000E-03 0. -1.
    9000002   -1    0    0    0    0 -0.00000000000E+00 -0.00000000000E+00  0.00000000000E+00  0.93800000000E+00  0.93800000000E+00 0.  1.
         11    1    1    2    0    0  0.34404548944E-01  0.57241246905E-01  0.10235137449E+00  0.12221414941E+00  0.51100000000E-03 0. -1.
    9000002    1    1    2    0    0 -0.79903235739E-01 -0.36731908514E+00  0.11146023326E+00  0.10166490156E+01  0.93800000000E+00 0.  1.
         22    1    1    2    0    0  0.45498686796E-01  0.31007783823E+00  0.37861883596E+01  0.37991368350E+01  0.00000000000E+00 0. -1.
</event>
<event>
 5    1  0.3490044E+002  0.1553895E+01  0.7818608E-02  0.3404977E+00
         11   -1    0    0    0    0  0.00000000000E+00  0.00000000000E+00  0.39999999674E+01  0.40000000000E+01  0.51100000000E-03 0. -1.
    9000002   -1    0    0    0    0 -0.00000000000E+00 -0.00000000000E+00  0.00000000000E+00  0.93800000000E+00  0.93800000000E+00 0. -1.
         11    1    1    2    0    0  0.22440545387E-01 -0.11958922257E+00  0.22222174740E+01  0.22255462079E+01  0.51100000000E-03 0. -1.
    9000002    1    1    2    0    0  0.51136115669E-01 -0.23179132290E+00  0.73039598792E-01  0.97032000015E+00  0.93800000000E+00 0. -1.
         22    1    1    2    0    0 -0.73576661055E-01  0.35138054547E+00  0.17047428945E+01  0.17421337920E+01  0.00000000000E+00 0. -1.
</event>
<event>
 5    1  0.3490044E+002  0.1593211E+01  0.7818608E-02  0.3360765E+00
         11   -1    0    0    0    0  0.00000000000E+00  0.00000000000E+00  0.39999999674E+01  0.40000000000E+01  0.51100000000E-03 0. -1.
    9000002   -1    0    0    0    0 -0.00000000000E+00 -0.00000000000E+00  0.00000000000E+00  0.93800000000E+00  0.93800000000E+00 0. -1.
         11    1    1    2    0    0  0.42900136214E-01 -0.33818257300E-01  0.29158069087E+00  0.29665410266E+00  0.51100000000E-03 0. -1.
    9000002    1    1    2    0    0  0.80748859410E-01  0.26994830114E+00  0.57908088330E-01  0.98111661401E+00  0.93800000000E+00 0. -1.
         22    1    1    2    0    0 -0.12364899562E+00 -0.23613004384E+00  0.36505111882E+01  0.36602292833E+01  0.00000000000E+00 0. -1.
</event>
<event>
 5    1  0.3490044E+002  0.1596735E+01  0.7818608E-02  0.3356914E+00
         11   -1    0    0    0    0  0.00000000000E+00  0.00000000000E+00  0.39999999674E+01  0.40000000000E+01  0.51100000000E-03 0.  1.
    9000002   -1    0    0    0    0 -0.00000000000E+00 -0.00000000000E+00  0.00000000000E+00  0.93800000000E+00  0.93800000000E+00 0. -1.
         11    1    1    2    0    0 -0.84341951545E-01 -0.82674728765E-01  0.16638960559E+01  0.16680824385E+01  0.51100000000E-03 0.  1.
    9000002    1    1    2    0    0  0.11729382428E+00  0.32323062409E+00  0.81588566416E-01  0.10023654881E+01  0.93800000000E+00 0. -1.
         22    1    1    2    0    0 -0.32951872731E-01 -0.24055589532E+00  0.22545153450E+01  0.22675520734E+01  0.00000000000E+00 0.  1.
</event>
<event>
 5    1  0.3490044E+002  0.1598819E+01  0.7818608E-02  0.3354646E+00
         11   -1    0    0    0    0  0.00000000000E+00  0.00000000000E+00  0.39999999674E+01  0.40000000000E+01  0.51100000000E-03 0. -1.
    9000002   -1    0    0    0    0 -0.00000000000E+00 -0.00000000000E+00  0.00000000000E+00  0.93800000000E+00  0.93800000000E+00 0. -1.
         11    1    1    2    0    0  0.10947322930E-01 -0.11590199021E+00  0.11862162127E+01  0.11919153827E+01  0.51100000000E-03 0. -1.
    9000002    1    1    2    0    0 -0.13465602817E+00  0.34086312168E+00  0.90929558279E-01  0.10111538450E+01  0.93800000000E+00 0. -1.
         22    1    1    2    0    0  0.12370870524E+00 -0.22496113147E+00  0.27228541964E+01  0.27349307723E+01  0.00000000000E+00 0. -1.
</event>
<event>
 5    1  0.3490044E+002  0.1599658E+01  0.7818608E-02  0.3353734E+00
         11   -1    0    0    0    0  0.00000000000E+00  0.00000000000E+00  0.39999999674E+01  0.40000000000E+01  0.51100000000E-03 0. -1.
    9000002   -1    0    0    0    0 -0.00000000000E+00 -0.00000000000E+00  0.00000000000E+00  0.93800000000E+00  0.93800000000E+00 0.  1.
         11    1    1    2    0    0 -0.60382245385E-01 -0.15006743425E+00  0.84413025705E+00  0.85948961737E+00  0.51100000000E-03 0. -1.
    9000002    1    1    2    0    0  0.24987448569E+00  0.63706492554E+00  0.33331075116E+00  0.12079855276E+01  0.93800000000E+00 0.  1.
         22    1    1    2    0    0 -0.18949224031E+00 -0.48699749130E+00  0.28225589592E+01  0.28705248551E+01  0.00000000000E+00 0. -1.
</event>
<event>
 5    1  0.3490044E+002  0.1599460E+01  0.7818608E-02  0.3353950E+00
         11   -1    0    0    0    0  0.00000000000E+00  0.00000000000E+00  0.39999999674E+01  0.40000000000E+01  0.51100000000E-03 0.  1.
    9000002   -1    0    0    0    0 -0.00000000000E+00 -0.00000000000E+00  0.00000000000E+00  0.93800000000E+00  0.93800000000E+00 0.  1.
         11    1    1    2    0    0 -0.89883065044E-02  0.72481762805E-02  0.18554657911E+00  0.18590621252E+00  0.51100000000E-03 0.  1.
    9000002    1    1    2    0    0  0.76044690275E-01 -0.26455601749E+00  0.50605897005E-01  0.97886548520E+00  0.93800000000E+00 0.  1.
         22    1    1    2    0    0 -0.67056383771E-01  0.25730784121E+00  0.37638474912E+01  0.37732283023E+01  0.00000000000E+00 0.  1.
</event>
<event>
 5    1  0.3490044E+002  0.1599557E+01  0.7818608E-02  0.3353845E+00
         11   -1    0    0    0    0  0.00000000000E+00  0.00000000000E+00  0.39999999674E+01  0.40000000000E+01  0.51100000000E-03 0.  1.
    9000002   -1    0    0    0    0 -0.00000000000E+00 -0.00000000000E+00  0.00000000000E+00  0.93800000000E+00  0.93800000000E+00 0.  1.
         11    1    1    2    0    0  0.36719754506E-01 -0.23846347825E+00  0.16523269626E+01  0.16698496409E+01  0.51100000000E-03 0.  1.
    9000002    1    1    2    0    0 -0.59328918818E-01  0.56244708269E+00  0.22171388471E+00  0.11175274887E+01  0.93800000000E+00 0.  1.
         22    1    1    2    0    0  0.22609164312E-01 -0.32398360444E+00  0.21259591200E+01  0.21506228703E+01  0.00000000000E+00 0.  1.
</event>
<event>
 5    1  0.3490044E+002  0.1599606E+01  0.7818608E-02  0.3353791E+00
         11   -1    0    0    0    0  0.00000000000E+00  0.00000000000E+00  0.39999999674E+01  0.40000000000E+01  0.51100000000E-03 0. -1.
    9000002   -1    0    0    0    0 -0.00000000000E+00 -0.00000000000E+00  0.00000000000E+00  0.93800000000E+00  0.93800000000E+00 0. -1.
         11    1    1    2    0    0  0.98539155051E-02 -0.52300084318E-01  0.74963928082E+00  0.75152625432E+00  0.51100000000E-03 0. -1.
    9000002    1    1    2    0    0 -0.93365282043E-01  0.27931011945E+00  0.57885383148E-01  0.98484817932E+00  0.93800000000E+00 0. -1.
         22    1    1    2    0    0  0.83511366538E-01 -0.22701003514E+00  0.31924753034E+01  0.32016255664E+01  0.00000000000E+00 0. -1.
</event>
<event>
 5    1  0.3490044E+002  0.1599669E+01  0.7818608E-02  0.3353723E+00
         11   -1    0    0    0    0  0.00000000000E+00  0.00000000000E+00  0.39999999674E+01  0.40000000000E+01  0.51100000000E-03 0.  1.
    9000002   -1    0    0    0    0 -0.00000000000E+00 -0.00000000000E+00  0.00000000000E+00  0.93800000000E+00  0.93800000000E+00 0.  1.
         11    1    1    2    0    0  0.25241890234E-01  0.35445336993E-01  0.49473246952E+00  0.49664273120E+00  0.51100000000E-03 0.  1.
    9000002    1    1    2    0    0 -0.19322351305E+00 -0.26505661120E+00  0.71978228615E-01  0.99630075707E+00  0.93800000000E+00 0.  1.
         22    1    1    2    0    0  0.16798162282E+00  0.22961127421E+00  0.34332892692E+01  0.34450565117E+01  0.00000000000E+00 0.  1.
</event>
<event>
 5    1  0.3490044E+002  0.1599667E+01  0.7818608E-02  0.3353725E+00
         11   -1    0    0    0    0  0.00000000000E+00  0.00000000000E+00  0.39999999674E+01  0.40000000000E+01  0.51100000000E-03 0. -1.
    9000002   -1    0    0    0    0 -0.00000000000E+00 -0.00000000000E+00  0.00000000000E+00  0.93800000000E+00  0.93800000000E+00 0.  1.
         11    1    1    2    0    0 -0.13684227664E+00  0.13886909075E+00  0.12743094708E+01  0.12891374331E+01  0.51100000000E-03 0. -1.
    9000002    1    1    2    0    0  0.39550003678E+00 -0.40765440602E+00  0.22360999905E+00  0.11191281542E+01  0.93800000000E+00 0.  1.
         22    1    1    2    0    0 -0.25865776014E+00  0.26878531527E+00  0.25020804975E+01  0.25297344127E+01  0.00000000000E+00 0. -1.
</event>
<event>
 5    1  0.3490044E+002  0.1599677E+01  0.7818608E-02  0.3353714E+00
         11   -1    0    0    0    0  0.00000000000E+00  0.00000000000E+00  0.39999999674E+01  0.40000000000E+01  0.51100000000E-03 0. -1.
    9000002   -1    0    0    0    0 -0.00000000000E+00 -0.00000000000E+00  0.00000000000E+00  0.93800000000E+00  0.93800000000E+00 0. -1.
         11    1    1    2    0    0 -0.29210893766E+00  0.34587778031E+00  0.11863072967E+01  0.12697575885E+01  0.51100000000E-03 0. -1.
    9000002    1    1    2    0    0  0.71798962760E+00 -0.85085190579E+00  0.10790793871E+01  0.18121022032E+01  0.93800000000E+00 0. -1.
         22    1    1    2    0    0 -0.42588068993E+00  0.50497412548E+00  0.17346132835E+01  0.18561402083E+01  0.00000000000E+00 0.  1.
</event>
<event>
 5    1  0.3490044E+002  0.1597679E+01  0.7818608E-02  0.3355887E+00
         11   -1    0    0    0    0  0.00000000000E+00  0.00000000000E+00  0.39999999674E+01  0.40000000000E+01  0.51100000000E-03 0.  1.
    9000002   -1    0    0    0    0 -0.00000000000E+00 -0.00000000000E+00  0.00000000000E+00  0.93800000000E+00  0.93800000000E+00 0. -1.
         11    1    1    2    0    0  0.29934965712E-03  0.29553695577E-02  0.22454618652E-02  0.37585954062E-02  0.51100000000E-03 0.  1.
    9000002    1    1    2    0    0  0.25996429010E+00 -0.10333293448E+00  0.53662575528E-01  0.98029730158E+00  0.93800000000E+00 0. -1.
         22    1    1    2    0    0 -0.26026363976E+00  0.10037756492E+00  0.39440919300E+01  0.39539441030E+01  0.00000000000E+00 0.  1.
</event>
<event>
 5    1  0.3490044E+002  0.1599667E+01  0.7818608E-02  0.3353725E+00
         11   -1    0    0    0    0  0.00000000000E+00  0.00000000000E+00  0.39999999674E+01  0.40000000000E+01  0.51100000000E-03 0.  1.
    9000002   -1    0    0    0    0 -0.00000000000E+00 -0.00000000000E+00  0.00000000000E+00  0.93800000000E+00  0.93800000000E+00 0.  1.
         11    1    1    2    0    0  0.37190798220E-01  0.49498302675E-01  0.86594408014E+00  0.86815473765E+00  0.51100000000E-03 0.  1.
    9000002    1    1    2    0    0 -0.17527977170E+00 -0.23859808488E+00  0.58460549636E-01  0.98534952192E+00  0.93800000000E+00 0.  1.
         22    1    1    2    0    0  0.13808897348E+00  0.18909978221E+00  0.30755953376E+01  0.30844957404E+01  0.00000000000E+00 0.  1.
</event>
<event>
 5    1  0.3490044E+002  0.1597451E+01  0.7818608E-02  0.3356134E+00
         11   -1    0    0    0    0  0.00000000000E+00  0.00000000000E+00  0.39999999674E+01  0.40000000000E+01  0.51100000000E-03 0.  1.
    9000002   -1    0    0    0    0 -0.00000000000E+00 -0.00000000000E+00  0.00000000000E+00  0.93800000000E+00  0.93800000000E+00 0.  1.
         11    1    1    2    0    0 -0.82205765150E-01  0.48686509616E-01  0.35476405243E+00  0.36740435226E+00  0.51100000000E-03 0.  1.
    9000002    1    1    2    0    0  0.52934274217E+00 -0.37025808804E+00  0.29651585600E+00  0.11768859092E+01  0.93800000000E+00 0.  1.
         22    1    1    2    0    0 -0.44713697702E+00  0.32157157842E+00  0.33487200589E+01  0.33937097385E+01  0.00000000000E+00 0.  1.
</event>
<event>
 5    1  0.3490044E+002  0.1599235E+01  0.7818608E-02  0.3354194E+00
         11   -1    0    0    0    0  0.00000000000E+00  0.00000000000E+00  0.39999999674E+01  0.40000000000E+01  0.51100000000E-03 0. -1.
    9000002   -1    0    0    0    0 -0.00000000000E+00 -0.00000000000E+00  0.00000000000E+00  0.93800000000E+00  0.93800000000E+00 0.  1.
         11    1    1    2    0    0 -0.87188087633E-01 -0.49395558266E-01  0.14111736875E+01  0.14147272250E+01  0.51100000000E-03 0. -1.
    9000002    1    1    2    0    0  0.30247723101E+00  0.10545427301E+00  0.68938972657E-01  0.99358424954E+00  0.93800000000E+00 0.  1.
         22    1    1    2    0    0 -0.21528914338E+00 -0.56058714748E-01  0.25198873072E+01  0.25296885255E+01  0.00000000000E+00 0. -1.
</event>
<event>
 5    1  0.3490044E+002  0.1599628E+01  0.7818608E-02  0.3353768E+00
         11   -1    0    0    0    0  0.00000000000E+00  0.00000000000E+00  0.39999999674E+01  0.40000000000E+01  0.51100000000E-03 0. -1.
    9000002   -1    0    0    0    0 -0.00000000000E+00 -0.00000000000E+00  0.00000000000E+00  0.93800000000E+00  0.93800000000E+00 0. -1.
         11    1    1    2    0    0 -0.92131495066E-01  0.55527949802E-01  0.13494883641E+01  0.13537690614E+01  0.51100000000E-03 0. -1.
    9000002    1    1    2    0    0  0.25331042286E+00 -0.17956121314E+00  0.64418072715E-01  0.99015255779E+00  0.93800000000E+00 0. -1.
         22    1    1    2    0    0 -0.16117892780E+00  0.12403326334E+00  0.25860935306E+01  0.25940783808E+01  0.00000000000E+00 0. -1.
</event>
<event>
 5    1  0.3490044E+002  0.1598804E+01  0.7818608E-02  0.3354663E+00
         11   -1    0    0    0    0  0.00000000000E+00  0.00000000000E+00  0.39999999674E+01  0.40000000000E+01  0.51100000000E-03 0. -1.
    9000002   -1    0    0    0    0 -0.00000000000E+00 -0.00000000000E+00  0.00000000000E+00  0.93800000000E+00  0.93800000000E+00 0. -1.
         11    1    1    2    0    0  0.33962332996E-01  0.22500022921E+00  0.17487400273E+01  0.17634824886E+01  0.51100000000E-03 0. -1.
    9000002    1    1    2    0    0 -0.60695793907E-01 -0.56235514166E+00  0.22248031587E+00  0.11177069275E+01  0.93800000000E+00 0. -1.
         22    1    1    2    0    0  0.26733460912E-01  0.33735491244E+00  0.20287796242E+01  0.20568105840E+01  0.00000000000E+00 0. -1.
</event>
<event>
 5    1  0.3490044E+002  0.1599677E+01  0.7818608E-02  0.3353714E+00
         11   -1    0    0    0    0  0.00000000000E+00  0.00000000000E+00  0.39999999674E+01  0.40000000000E+01  0.51100000000E-03 0.  1.
    9000002   -1    0    0    0    0 -0.00000000000E+00 -0.00000000000E+00  0.00000000000E+00  0.93800000000E+00  0.93800000000E+00 0.  1.
         11    1    1    2    0    0 -0.13369495152E+00 -0.14723772991E-01  0.15379045889E+01  0.15437752153E+01  0.51100000000E-03 0.  1.
    9000002    1    1    2    0    0  0.34153970380E+00  0.37696667410E-01  0.79112293818E-01  0.10020844091E+01  0.93800000000E+00 0.  1.
         22    1    1    2    0    0 -0.20784475228E+00 -0.22972894419E-01  0.23829830846E+01  0.23921403756E+01  0.00000000000E+00 0.  1.
</event>
<event>
 5    1  0.3490044E+002  0.1598814E+01  0.7818608E-02  0.3354651E+00
         11   -1    0    0    0    0  0.00000000000E+00  0.00000000000E+00  0.39999999674E+01  0.40000000000E+01  0.51100000000E-03 0. -1.
    9000002   -1    0    0    0    0 -0.00000000000E+00 -0.00000000000E+00  0.00000000000E+00  0.93800000000E+00  0.93800000000E+00 0.  1.
         11    1    1    2    0    0  0.74149365360E-02  0.10310378770E-01  0.24458384138E+00  0.24491386604E+00  0.51100000000E-03 0. -1.
    9000002    1    1    2    0    0 -0.27506591065E+00  0.60452269062E-01  0.53494421033E-01  0.98082688845E+00  0.93800000000E+00 0.  1.
         22    1    1    2    0    0  0.26765097411E+00 -0.70762647832E-01  0.37019217050E+01  0.37122592455E+01  0.00000000000E+00 0. -1.
</event>
<event>
 5    1  0.3490044E+002  0.1597663E+01  0.7818608E-02  0.3355904E+00
         11   -1    0    0    0    0  0.00000000000E+00  0.00000000000E+00  0.39999999674E+01  0.40000000000E+01  0.51100000000E-03 0. -1.
    9000002   -1    0    0    0    0 -0.00000000000E+00 -0.00000000000E+00  0.00000000000E+00  0.93800000000E+00  0.93800000000E+00 0. -1.
         11    1    1    2    0    0 -0.18386801750E-01  0.13933619310E-01  0.10406993567E+00  0.10659752745E+00  0.51100000000E-03 0. -1.
    9000002    1    1    2    0    0  0.37924914067E+00  0.56357977679E-01  0.10061103282E+00  0.10183185711E+01  0.93800000000E+00 0. -1.
         22    1    1    2    0    0 -0.36086233892E+00 -0.70291596989E-01  0.37953189989E+01  0.38130839014E+01  0.00000000000E+00 0. -1.
</event>
<event>
 5    1  0.3490044E+002  0.1597469E+01  0.7818608E-02  0.3356115E+00
         11   -1    0    0    0    0  0.00000000000E+00  0.00000000000E+00  0.39999999674E+01  0.40000000000E+01  0.51100000000E-03 0.  1.
    9000002   -1    0    0    0    0 -0.00000000000E+00 -0.00000000000E+00  0.00000000000E+00  0.93800000000E+00  0.93800000000E+00 0.  1.
         11    1    1    2    0    0  0.58572326150E+00  0.48827405790E+00  0.22865304841E+01  0.24103330082E+01  0.51100000000E-03 0.  1.
    9000002    1    1    2    0    0 -0.84807529661E+00 -0.63628437192E+00  0.94440389171E+00  0.17017144947E+01  0.93800000000E+00 0.  1.
         22    1    1    2    0    0  0.26235203511E+00  0.14801031402E+00  0.76906559153E+00  0.82595249710E+00  0.00000000000E+00 0. -1.
</event>
<event>
 5    1  0.3490044E+002  0.1599626E+01  0.7818608E-02  0.3353769E+00
         11   -1    0    0    0    0  0.00000000000E+00  0.00000000000E+00  0.39999999674E+01  0.40000000000E+01  0.51100000000E-03 0.  1.
    9000002   -1    0    0    0    0 -0.00000000000E+00 -0.00000000000E+00  0.00000000000E+00  0.93800000000E+00  0.93800000000E+00 0.  1.
         11    1    1    2    0    0  0.10322004103E-01 -0.40293569830E-01  0.65886243760E+00  0.66017428634E+00  0.51100000000E-03 0.  1.
    9000002    1    1    2    0    0 -0.94576451798E-01  0.26145656980E+00  0.51508776263E-01  0.97969454278E+00  0.93800000000E+00 0.  1.
         22    1    1    2    0    0  0.84254447696E-01 -0.22116299997E+00  0.32896287535E+01  0.32981311709E+01  0.00000000000E+00 0.  1.
</event>
<event>
 5    1  0.3490044E+002  0.1599644E+01  0.7818608E-02  0.3353750E+00
         11   -1    0    0    0    0  0.00000000000E+00  0.00000000000E+00  0.39999999674E+01  0.40000000000E+01  0.51100000000E-03 0.  1.
    9000002   -1    0    0    0    0 -0.00000000000E+00 -0.00000000000E+00  0.00000000000E+00  0.93800000000E+00  0.93800000000E+00 0. -1.
         11    1    1    2    0    0  0.88052814779E-02 -0.16484606557E-01  0.25638008207E+00  0.25706085435E+00  0.51100000000E-03 0.  1.
    9000002    1    1    2    0    0 -0.12074844786E+00  0.20483423522E+00  0.37548025488E-01  0.96839615127E+00  0.93800000000E+00 0. -1.
         22    1    1    2    0    0  0.11194316638E+00 -0.18834962866E+00  0.37060718598E+01  0.37125429944E+01  0.00000000000E+00 0.  1.
</event>
<event>
 5    1  0.3490044E+002  0.1561063E+01  0.7818608E-02  0.3396740E+00
         11   -1    0    0    0    0  0.00000000000E+00  0.00000000000E+00  0.39999999674E+01  0.40000000000E+01  0.51100000000E-03 0.  1.
    9000002   -1    0    0    0    0 -0.00000000000E+00 -0.00000000000E+00  0.00000000000E+00  0.93800000000E+00  0.93800000000E+00 0. -1.
         11    1    1    2    0    0 -0.98744223632E-01  0.16003104147E+00  0.25769770067E+01  0.25838287695E+01  0.51100000000E-03 0.  1.
    9000002    1    1    2    0    0  0.18203980438E+00 -0.55148532092E+00  0.27301200171E+00  0.11365096140E+01  0.93800000000E+00 0. -1.
         22    1    1    2    0    0 -0.83295580750E-01  0.39145427945E+00  0.11500109590E+01  0.12176616166E+01  0.00000000000E+00 0.  1.
</event>
<event>
 5    1  0.3490044E+002  0.1599677E+01  0.7818608E-02  0.3353715E+00
         11   -1    0    0    0    0  0.00000000000E+00  0.00000000000E+00  0.39999999674E+01  0.40000000000E+01  0.51100000000E-03 0. -1.
    9000002   -1    0    0    0    0 -0.00000000000E+00 -0.00000000000E+00  0.00000000000E+00  0.93800000000E+00  0.93800000000E+00 0.  1.
         11    1    1    2    0    0  0.24625837779E-01  0.70145355081E-01  0.10583102478E+01  0.10609183024E+01  0.51100000000E-03 0.  1.
    9000002    1    1    2    0    0 -0.90022725995E-01 -0.26004655963E+00  0.50408256450E-01  0.97883261934E+00  0.93800000000E+00 0.  1.
         22    1    1    2    0    0  0.65396888216E-01  0.18990120455E+00  0.28912814631E+01  0.28982490783E+01  0.00000000000E+00 0. -1.
</event>
<event>
 5    1  0.3490044E+002  0.1599614E+01  0.7818608E-02  0.3353782E+00
         11   -1    0    0    0    0  0.00000000000E+00  0.00000000000E+00  0.39999999674E+01  0.40000000000E+01  0.51100000000E-03 0. -1.
    9000002   -1    0    0    0    0 -0.00000000000E+00 -0.00000000000E+00  0.00000000000E+00  0.93800000000E+00  0.93800000000E+00 0.  1.
         11    1    1    2    0    0 -0.36954252834E-01  0.24846519150E-01  0.63505371743E+00  0.63661326679E+00  0.51100000000E-03 0. -1.
    9000002    1    1    2    0    0  0.26166460428E+00 -0.18243624661E+00  0.68053510211E-01  0.99308943679E+00  0.93800000000E+00 0.  1.
         22    1    1    2    0    0 -0.22471035145E+00  0.15758972746E+00  0.32968927397E+01  0.33082972964E+01  0.00000000000E+00 0. -1.
</event>
<event>
 5    1  0.3490044E+002  0.1598537E+01  0.7818608E-02  0.3354952E+00
         11   -1    0    0    0    0  0.00000000000E+00  0.00000000000E+00  0.39999999674E+01  0.40000000000E+01  0.51100000000E-03 0. -1.
    9000002   -1    0    0    0    0 -0.00000000000E+00 -0.00000000000E+00  0.00000000000E+00  0.93800000000E+00  0.93800000000E+00 0.  1.
         11    1    1    2    0    0  0.27508566340E-02 -0.24407090682E-02  0.66266458122E-02  0.75959086815E-02  0.51100000000E-03 0. -1.
    9000002    1    1    2    0    0 -0.20506829216E+00  0.12786073548E-01  0.28813647218E-01  0.96067201187E+00  0.93800000000E+00 0.  1.
         22    1    1    2    0    0  0.20231743552E+00 -0.10345364480E-01  0.39645596743E+01  0.39697320794E+01  0.00000000000E+00 0. -1.
</event>
<event>
 5    1  0.3490044E+002  0.1598267E+01  0.7818608E-02  0.3355247E+00
         11   -1    0    0    0    0  0.00000000000E+00  0.00000000000E+00  0.39999999674E+01  0.40000000000E+01  0.51100000000E-03 0.  1.
    9000002   -1    0    0    0    0 -0.00000000000E+00 -0.00000000000E+00  0.00000000000E+00  0.93800000000E+00  0.93800000000E+00 0.  1.
         11    1    1    2    0    0 -0.77436828083E-01 -0.88337608128E-01  0.13475122424E+01  0.13526231922E+01  0.51100000000E-03 0.  1.
    9000002    1    1    2    0    0  0.21635707448E+00  0.37769531533E+00  0.12961226416E+00  0.10421648017E+01  0.93800000000E+00 0.  1.
         22    1    1    2    0    0 -0.13892024640E+00 -0.28935770720E+00  0.25228754608E+01  0.25432120061E+01  0.00000000000E+00 0.  1.
</event>
<event>
 5    1  0.3490044E+002  0.1576247E+01  0.7818608E-02  0.3379554E+00
         11   -1    0    0    0    0  0.00000000000E+00  0.00000000000E+00  0.39999999674E+01  0.40000000000E+01  0.51100000000E-03 0.  1.
    9000002   -1    0    0    0    0 -0.00000000000E+00 -0.00000000000E+00  0.00000000000E+00  0.93800000000E+00  0.93800000000E+00 0.  1.
         11    1    1    2    0    0 -0.44029734749E+00  0.16931430318E+00  0.24397710606E+01  0.24849571780E+01  0.51100000000E-03 0.  1.
    9000002    1    1    2    0    0  0.57792043003E+00 -0.87966649246E-02  0.25513460450E+00  0.11309319481E+01  0.93800000000E+00 0.  1.
         22    1    1    2    0    0 -0.13762308254E+00 -0.16051763825E+00  0.13050943023E+01  0.13221108739E+01  0.00000000000E+00 0.  1.
</event>
<event>
 5    1  0.3490044E+002  0.1599528E+01  0.7818608E-02  0.3353876E+00
         11   -1    0    0    0    0  0.00000000000E+00  0.00000000000E+00  0.39999999674E+01  0.40000000000E+01  0.51100000000E-03 0.  1.
    9000002   -1    0    0    0    0 -0.00000000000E+00 -0.00000000000E+00  0.00000000000E+00  0.93800000000E+00  0.93800000000E+00 0.  1.
         11    1    1    2    0    0 -0.10882209113E+00 -0.76392794098E-02  0.13491397230E+01  0.13535430763E+01  0.51100000000E-03 0.  1.
    9000002    1    1    2    0    0  0.34017707528E+00 -0.10719143886E-01  0.77706772738E-01  0.10008584741E+01  0.93800000000E+00 0.  1.
         22    1    1    2    0    0 -0.23135498415E+00  0.18358423296E-01  0.25731534717E+01  0.25835984497E+01  0.00000000000E+00 0.  1.
</event>
<event>
 5    1  0.3490044E+002  0.1599676E+01  0.7818608E-02  0.3353715E+00
         11   -1    0    0    0    0  0.00000000000E+00  0.00000000000E+00  0.39999999674E+01  0.40000000000E+01  0.51100000000E-03 0.  1.
    9000002   -1    0    0    0    0 -0.00000000000E+00 -0.00000000000E+00  0.00000000000E+00  0.93800000000E+00  0.93800000000E+00 0. -1.
         11    1    1    2    0    0 -0.23429959446E-02  0.18691824249E-01  0.20719453056E+00  0.20804977418E+00  0.51100000000E-03 0. -1.
    9000002    1    1    2    0    0  0.49233616407E-01 -0.35540803047E+00  0.86406555313E-01  0.10079925148E+01  0.93800000000E+00 0. -1.
         22    1    1    2    0    0 -0.46890620462E-01  0.33671620623E+00  0.37063988815E+01  0.37219577110E+01  0.00000000000E+00 0.  1.
</event>
<event>
 5    1  0.3490044E+002  0.1599510E+01  0.7818608E-02  0.3353896E+00
         11   -1    0    0    0    0  0.00000000000E+00  0.00000000000E+00  0.39999999674E+01  0.40000000000E+01  0.51100000000E-03 0. -1.
    9000002   -1    0    0    0    0 -0.00000000000E+00 -0.00000000000E+00  0.00000000000E+00  0.93800000000E+00  0.93800000000E+00 0.  1.
         11    1    1    2    0    0 -0.28376080082E-01 -0.45462592174E-02  0.43460453289E+00  0.43555393642E+00  0.51100000000E-03 0. -1.
    9000002    1    1    2    0    0  0.25486775857E+00 -0.47089475742E-01  0.44784101220E-01  0.97417894086E+00  0.93800000000E+00 0.  1.
         22    1    1    2    0    0 -0.22649167849E+00  0.51635734959E-01  0.35206113332E+01  0.35282671227E+01  0.00000000000E+00 0. -1.
</event>
<event>
 5    1  0.3490044E+002  0.1599539E+01  0.7818608E-02  0.3353863E+00
         11   -1    0    0    0    0  0.00000000000E+00  0.00000000000E+00  0.39999999674E+01  0.40000000000E+01  0.51100000000E-03 0. -1.
    9000002   -1    0    0    0    0 -0.00000000000E+00 -0.00000000000E+00  0.00000000000E+00  0.93800000000E+00  0.93800000000E+00 0.  1.
         11    1    1    2    0    0 -0.49019525225E+00 -0.57475186960E+00  0.24740011843E+01  0.25867572785E+01  0.51100000000E-03 0. -1.
    9000002    1    1    2    0    0  0.64961361319E+00  0.75260719998E+00  0.79280408074E+00  0.15801258666E+01  0.93800000000E+00 0.  1.
         22    1    1    2    0    0 -0.15941836094E+00 -0.17785533038E+00  0.73319470233E+00  0.77111685487E+00  0.00000000000E+00 0. -1.
</event>
<event>
 5    1  0.3490044E+002  0.1597191E+01  0.7818608E-02  0.3356418E+00
         11   -1    0    0    0    0  0.00000000000E+00  0.00000000000E+00  0.39999999674E+01  0.40000000000E+01  0.51100000000E-03 0.  1.
    9000002   -1    0    0    0    0 -0.00000000000E+00 -0.00000000000E+00  0.00000000000E+00  0.93800000000E+00  0.93800000000E+00 0. -1.
         11    1    1    2    0    0 -0.14834694734E-01  0.13090276775E+00  0.82930474551E+00  0.83970365297E+00  0.51100000000E-03 0.  1.
    9000002    1    1    2    0    0  0.27659336100E+00 -0.50958516675E+00  0.23598860292E+00  0.11277036624E+01  0.93800000000E+00 0. -1.
         22    1    1    2    0    0 -0.26175866627E+00  0.37868239899E+00  0.29347066189E+01  0.29705926846E+01  0.00000000000E+00 0.  1.
</event>
<event>
 5    1  0.3490044E+002  0.1590354E+01  0.7818608E-02  0.3363900E+00
         11   -1    0    0    0    0  0.00000000000E+00  0.00000000000E+00  0.39999999674E+01  0.40000000000E+01  0.51100000000E-03 0.  1.
    9000002   -1    0    0    0    0 -0.00000000000E+00 -0.00000000000E+00  0.00000000000E+00  0.93800000000E+00  0.93800000000E+00 0. -1.
         11    1    1    2    0    0  0.58379411001E-01 -0.95261277342E-01  0.22155817714E+01  0.22183971046E+01  0.51100000000E-03 0.  1.
    9000002    1    1    2    0    0 -0.26990080548E+00  0.28223892520E+00  0.11049124160E+00  0.10220359926E+01  0.93800000000E+00 0. -1.
         22    1    1    2    0    0  0.21152139448E+00 -0.18697764786E+00  0.16739269543E+01  0.16975669028E+01  0.00000000000E+00 0.  1.
</event>
<event>
 5    1  0.3490044E+002  0.1584302E+01  0.7818608E-02  0.3370580E+00
         11   -1    0    0    0    0  0.00000000000E+00  0.00000000000E+00  0.39999999674E+01  0.40000000000E+01  0.51100000000E-03 0. -1.
    9000002   -1    0    0    0    0 -0.00000000000E+00 -0.00000000000E+00  0.00000000000E+00  0.93800000000E+00  0.93800000000E+00 0. -1.
         11    1    1    2    0    0  0.68257000844E-01 -0.13182075789E+00  0.10959854788E+01  0.11059928396E+01  0.51100000000E-03 0. -1.
    9000002    1    1    2    0    0  0.17864798533E+00  0.24635708047E+00  0.73964652870E-01  0.98889922825E+00  0.93800000000E+00 0. -1.
         22    1    1    2    0    0 -0.24690498617E+00 -0.11453632258E+00  0.28300498357E+01  0.28431079322E+01  0.00000000000E+00 0. -1.
</event>
<event>
 5    1  0.3490044E+002  0.1599647E+01  0.7818608E-02  0.3353746E+00
         11   -1    0    0    0    0  0.00000000000E+00  0.00000000000E+00  0.39999999674E+01  0.40000000000E+01  0.51100000000E-03 0.  1.
    9000002   -1    0    0    0    0 -0.00000000000E+00 -0.00000000000E+00  0.00000000000E+00  0.93800000000E+00  0.93800000000E+00 0.  1.
         11    1    1    2    0    0  0.30075113219E-01  0.12517433430E-02  0.44298273400E+00  0.44400455295E+00  0.51100000000E-03 0.  1.
    9000002    1    1    2    0    0 -0.23917614097E+00 -0.32968950542E-01  0.38720673533E-01  0.96934796057E+00  0.93800000000E+00 0.  1.
         22    1    1    2    0    0  0.20910102775E+00  0.31717207199E-01  0.35182965598E+01  0.35246474865E+01  0.00000000000E+00 0.  1.
</event>
<event>
 5    1  0.3490044E+002  0.1599662E+01  0.7818608E-02  0.3353730E+00
         11   -1    0    0    0    0  0.00000000000E+00  0.00000000000E+00  0.39999999674E+01  0.40000000000E+01  0.51100000000E-03 0.  1.
    9000002   -1    0    0    0    0 -0.00000000000E+00 -0.00000000000E+00  0.00000000000E+00  0.93800000000E+00  0.93800000000E+00 0.  1.
         11    1    1    2    0    0  0.13082250551E+00 -0.24039530237E-01  0.15193154431E+01  0.15251269139E+01  0.51100000000E-03 0.  1.
    9000002    1    1    2    0    0 -0.34483938430E+00  0.52940308948E-01  0.81614423013E-01  0.10041024805E+01  0.93800000000E+00 0.  1.
         22    1    1    2    0    0  0.21401687879E+00 -0.28900778711E-01  0.23990701013E+01  0.24087706056E+01  0.00000000000E+00 0.  1.
</event>
<event>
 5    1  0.3490044E+002  0.1529091E+01  0.7818608E-02  0.3434114E+00
         11   -1    0    0    0    0  0.00000000000E+00  0.00000000000E+00  0.39999999674E+01  0.40000000000E+01  0.51100000000E-03 0.  1.
    9000002   -1    0    0    0    0 -0.00000000000E+00 -0.00000000000E+00  0.00000000000E+00  0.93800000000E+00  0.93800000000E+00 0. -1.
         11    1    1    2    0    0  0.26125542059E+00  0.20096779728E+00  0.33756664764E+01  0.33917203410E+01  0.51100000000E-03 0.  1.
    9000002    1    1    2    0    0 -0.80639606842E-01 -0.34493037645E+00  0.14353419589E+00  0.10128799416E+01  0.93800000000E+00 0. -1.
         22    1    1    2    0    0 -0.18061581374E+00  0.14396257917E+00  0.48079929508E+00  0.53339971740E+00  0.00000000000E+00 0.  1.
</event>
<event>
 5    1  0.3490044E+002  0.1599677E+01  0.7818608E-02  0.3353714E+00
         11   -1    0    0    0    0  0.00000000000E+00  0.00000000000E+00  0.39999999674E+01  0.40000000000E+01  0.51100000000E-03 0.  1.
    9000002   -1    0    0    0    0 -0.00000000000E+00 -0.00000000000E+00  0.00000000000E+00  0.93800000000E+00  0.93800000000E+00 0. -1.
         11    1    1    2    0    0 -0.10945550633E+00  0.53131881890E-01  0.13874420878E+01  0.13927667833E+01  0.51100000000E-03 0.  1.
    9000002    1    1    2    0    0  0.30968755908E+00 -0.15140230816E+00  0.79630212390E-01  0.10025038723E+01  0.93800000000E+00 0. -1.
         22    1    1    2    0    0 -0.20023205275E+00  0.98270426270E-01  0.25329276672E+01  0.25427293444E+01  0.00000000000E+00 0.  1.
</event>
<event>
 5    1  0.3490044E+002  0.1599532E+01  0.7818608E-02  0.3353871E+00
         11   -1    0    0    0    0  0.00000000000E+00  0.00000000000E+00  0.39999999674E+01  0.40000000000E+01  0.51100000000E-03 0.  1.
    9000002   -1    0    0    0    0 -0.00000000000E+00 -0.00000000000E+00  0.00000000000E+00  0.93800000000E+00  0.93800000000E+00 0. -1.
         11    1    1    2    0    0 -0.24452890682E-01 -0.90300062745E-01  0.14307364375E+01  0.14337918468E+01  0.51100000000E-03 0.  1.
    9000002    1    1    2    0    0  0.84724221788E-01  0.28312088634E+00  0.58351797445E-01  0.98518250203E+00  0.93800000000E+00 0. -1.
         22    1    1    2    0    0 -0.60271331106E-01 -0.19282082359E+00  0.25109117324E+01  0.25190256512E+01  0.00000000000E+00 0.  1.
</event>
<event>
 5    1  0.3490044E+002  0.1580732E+01  0.7818608E-02  0.3374546E+00
         11   -1    0    0    0    0  0.00000000000E+00  0.00000000000E+00  0.39999999674E+01  0.40000000000E+01  0.51100000000E-03 0. -1.
    9000002   -1    0    0    0    0 -0.00000000000E+00 -0.00000000000E+00  0.00000000000E+00  0.93800000000E+00  0.93800000000E+00 0.  1.
         11    1    1    2    0    0  0.39112794264E+00 -0.16846510118E+00  0.15131247524E+01  0.15719123180E+01  0.51100000000E-03 0. -1.
    9000002    1    1    2    0    0 -0.54386211567E+00  0.42169895147E+00  0.35864555154E+00  0.12174098070E+01  0.93800000000E+00 0.  1.
         22    1    1    2    0    0  0.15273417304E+00 -0.25323385028E+00  0.21282296634E+01  0.21486778750E+01  0.00000000000E+00 0. -1.
</event>
<event>
 5    1  0.3490044E+002  0.1599677E+01  0.7818608E-02  0.3353714E+00
         11   -1    0    0    0    0  0.00000000000E+00  0.00000000000E+00  0.39999999674E+01  0.40000000000E+01  0.51100000000E-03 0.  1.
    9000002   -1    0    0    0    0 -0.00000000000E+00 -0.00000000000E+00  0.00000000000E+00  0.93800000000E+00  0.93800000000E+00 0. -1.
         11    1    1    2    0    0 -0.44975268309E+00 -0.41629063644E+00  0.15289334998E+01  0.16471834379E+01  0.51100000000E-03 0.  1.
    9000002    1    1    2    0    0  0.83573011299E+00  0.77507747500E+00  0.11586975370E+01  0.18765963594E+01  0.93800000000E+00 0. -1.
         22    1    1    2    0    0 -0.38597742990E+00 -0.35878683855E+00  0.13123689305E+01  0.14142202027E+01  0.00000000000E+00 0.  1.
</event>
<event>
 5    1  0.3490044E+002  0.1599675E+01  0.7818608E-02  0.3353716E+00
         11   -1    0    0    0    0  0.00000000000E+00  0.00000000000E+00  0.39999999674E+01  0.40000000000E+01  0.51100000000E-03 0. -1.
    9000002   -1    0    0    0    0 -0.00000000000E+00 -0.00000000000E+00  0.00000000000E+00  0.93800000000E+00  0.93800000000E+00 0.  1.
         11    1    1    2    0    0 -0.63617215629E-01  0.65358487853E-01  0.10514630597E+01  0.10554116301E+01  0.51100000000E-03 0. -1.
    9000002    1    1    2    0    0  0.23279117896E+00 -0.24625988661E+00  0.76907130240E-01  0.10002971416E+01  0.93800000000E+00 0.  1.
         22    1    1    2    0    0 -0.16917396333E+00  0.18090139876E+00  0.28716297774E+01  0.28822912283E+01  0.00000000000E+00 0. -1.
</event>
<event>
 5    1  0.3490044E+002  0.1599590E+01  0.7818608E-02  0.3353808E+00
         11   -1    0    0    0    0  0.00000000000E+00  0.00000000000E+00  0.39999999674E+01  0.40000000000E+01  0.51100000000E-03 0. -1.
    9000002   -1    0    0    0    0 -0.00000000000E+00 -0.00000000000E+00  0.00000000000E+00  0.93800000000E+00  0.93800000000E+00 0. -1.
         11    1    1    2    0    0  0.10657601950E+00  0.63731508539E-01  0.10775959807E+01  0.10847273906E+01  0.51100000000E-03 0. -1.
    9000002    1    1    2    0    0 -0.40581049167E+00 -0.25290229611E+00  0.15603780440E+00  0.10643465239E+01  0.93800000000E+00 0. -1.
         22    1    1    2    0    0  0.29923447217E+00  0.18917078757E+00  0.27663661822E+01  0.27889260855E+01  0.00000000000E+00 0. -1.
</event>
<event>
 5    1  0.3490044E+002  0.1599676E+01  0.7818608E-02  0.3353715E+00
         11   -1    0    0    0    0  0.00000000000E+00  0.00000000000E+00  0.39999999674E+01  0.40000000000E+01  0.51100000000E-03 0. -1.
    9000002   -1    0    0    0    0 -0.00000000000E+00 -0.00000000000E+00  0.00000000000E+00  0.93800000000E+00  0.93800000000E+00 0. -1.
         11    1    1    2    0    0  0.33428162739E-01 -0.10627999859E-02  0.53998538526E+00  0.54102037764E+00  0.51100000000E-03 0. -1.
    9000002    1    1    2    0    0 -0.24056925091E+00  0.44401666143E-02  0.38431682531E-01  0.96913067942E+00  0.93800000000E+00 0. -1.
         22    1    1    2    0    0  0.20714108817E+00 -0.33773666283E-02  0.34215828996E+01  0.34278489429E+01  0.00000000000E+00 0. -1.
</event>
<event>
 5    1  0.3490044E+002  0.1599431E+01  0.7818608E-02  0.3353981E+00
         11   -1    0    0    0    0  0.00000000000E+00  0.00000000000E+00  0.39999999674E+01  0.40000000000E+01  0.51100000000E-03 0.  1.
    9000002   -1    0    0    0    0 -0.00000000000E+00 -0.00000000000E+00  0.00000000000E+00  0.93800000000E+00  0.93800000000E+00 0. -1.
         11    1    1    2    0    0 -0.56922013030E-01 -0.97843525819E-01  0.92332421443E+00  0.93023724779E+00  0.51100000000E-03 0.  1.
    9000002    1    1    2    0    0  0.17197094130E+00  0.42235923341E+00  0.14158388156E+00  0.10525451640E+01  0.93800000000E+00 0. -1.
         22    1    1    2    0    0 -0.11504892827E+00 -0.32451570759E+00  0.29350918714E+01  0.29552175882E+01  0.00000000000E+00 0.  1.
</event>
<event>
 5    1  0.3490044E+002  0.1599677E+01  0.7818608E-02  0.3353714E+00
         11   -1    0    0    0    0  0.00000000000E+00  0.00000000000E+00  0.39999999674E+01  0.40000000000E+01  0.51100000000E-03 0.  1.
    9000002   -1    0    0    0    0 -0.00000000000E+00 -0.00000000000E+00  0.00000000000E+00  0.93800000000E+00  0.93800000000E+00 0.  1.
         11    1    1    2    0    0 -0.14974778005E+00 -0.17924217052E+00  0.19060927308E+01  0.19203494247E+01  0.51100000000E-03 0.  1.
    9000002    1    1    2    0    0  0.30301509373E+00  0.36148018529E+00  0.15160730449E+00  0.10608085813E+01  0.93800000000E+00 0.  1.
         22    1    1    2    0    0 -0.15326731368E+00 -0.18223801477E+00  0.19422999321E+01  0.19568419940E+01  0.00000000000E+00 0.  1.
</event>
<event>
 5    1  0.3490044E+002  0.1598860E+01  0.7818608E-02  0.3354601E+00
         11   -1    0    0    0    0  0.00000000000E+00  0.00000000000E+00  0.39999999674E+01  0.40000000000E+01  0.51100000000E-03 0.  1.
    9000002   -1    0    0    0    0 -0.00000000000E+00 -0.00000000000E+00  0.00000000000E+00  0.93800000000E+00  0.93800000000E+00 0. -1.
         11    1    1    2    0    0 -0.59459651544E-01 -0.43416482963E-02  0.54441985464E+00  0.54767466558E+00  0.51100000000E-03 0.  1.
    9000002    1    1    2    0    0  0.28163993522E+00  0.11842477666E+00  0.62945452251E-01  0.98850979297E+00  0.93800000000E+00 0. -1.
         22    1    1    2    0    0 -0.22218028367E+00 -0.11408312837E+00  0.33926346605E+01  0.34018155415E+01  0.00000000000E+00 0.  1.
</event>
<event>
 5    1  0.3490044E+002  0.1599412E+01  0.7818608E-02  0.3354002E+00
         11   -1    0    0    0    0  0.00000000000E+00  0.00000000000E+00  0.39999999674E+01  0.40000000000E+01  0.51100000000E-03 0.  1.
    9000002   -1    0    0    0    0 -0.00000000000E+00 -0.00000000000E+00  0.00000000000E+00  0.93800000000E+00  0.93800000000E+00 0.  1.
         11    1    1    2    0    0 -0.43461907854E-01 -0.35417052610E-02  0.60737462043E+00  0.60893815102E+00  0.51100000000E-03 0.  1.
    9000002    1    1    2    0    0  0.31957976108E+00  0.10591018383E+00  0.76103675454E-01  0.99949185097E+00  0.93800000000E+00 0.  1.
         22    1    1    2    0    0 -0.27611785322E+00 -0.10236847857E+00  0.33165216715E+01  0.33295699980E+01  0.00000000000E+00 0.  1.
</event>
<event>
 5    1  0.3490044E+002  0.1599677E+01  0.7818608E-02  0.3353714E+00
         11   -1    0    0    0    0  0.00000000000E+00  0.00000000000E+00  0.39999999674E+01  0.40000000000E+01  0.51100000000E-03 0.  1.
    9000002   -1    0    0    0    0 -0.00000000000E+00 -0.00000000000E+00  0.00000000000E+00  0.93800000000E+00  0.93800000000E+00 0. -1.
         11    1    1    2    0    0 -0.44596066054E+00 -0.70595118639E-01  0.23196441120E+01  0.23631787172E+01  0.51100000000E-03 0.  1.
    9000002    1    1    2    0    0  0.70057753080E+00  0.11114906151E+00  0.36051246874E+00  0.12300309877E+01  0.93800000000E+00 0. -1.
         22    1    1    2    0    0 -0.25461687026E+00 -0.40553942875E-01  0.13198433866E+01  0.13447902952E+01  0.00000000000E+00 0.  1.
</event>
<event>
 5    1  0.3490044E+002  0.1599212E+01  0.7818608E-02  0.3354219E+00
         11   -1    0    0    0    0  0.00000000000E+00  0.00000000000E+00  0.39999999674E+01  0.40000000000E+01  0.51100000000E-03 0.  1.
    9000002   -1    0    0    0    0 -0.00000000000E+00 -0.00000000000E+00  0.00000000000E+00  0.93800000000E+00  0.93800000000E+00 0.  1.
         11    1    1    2    0    0 -0.35716567427E-01  0.23558844829E-02  0.55334117272E+00  0.55449791517E+00  0.51100000000E-03 0.  1.
    9000002    1    1    2    0    0  0.22070545790E+00  0.10702654291E+00  0.40307711987E-01  0.97037842705E+00  0.93800000000E+00 0.  1.
         22    1    1    2    0    0 -0.18498889047E+00 -0.10938242740E+00  0.34063510827E+01  0.34131236578E+01  0.00000000000E+00 0.  1.
</event>
<event>
 5    1  0.3490044E+002  0.1588894E+01  0.7818608E-02  0.3365506E+00
         11   -1    0    0    0    0  0.00000000000E+00  0.00000000000E+00  0.39999999674E+01  0.40000000000E+01  0.51100000000E-03 0.  1.
    9000002   -1    0    0    0    0 -0.00000000000E+00 -0.00000000000E+00  0.00000000000E+00  0.93800000000E+00  0.93800000000E+00 0. -1.
         11    1    1    2    0    0  0.19979687814E+00  0.32514480417E+00  0.24666232583E+01  0.24959704516E+01  0.51100000000E-03 0.  1.
    9000002    1    1    2    0    0 -0.23233227444E+00 -0.64531540753E+00  0.34689732872E+00  0.12126796847E+01  0.93800000000E+00 0. -1.
         22    1    1    2    0    0  0.32535396297E-01  0.32017060336E+00  0.11864793804E+01  0.12293498637E+01  0.00000000000E+00 0.  1.
</event>
<event>
 5    1  0.3490044E+002  0.1599669E+01  0.7818608E-02  0.3353723E+00
         11   -1    0    0    0    0  0.00000000000E+00  0.00000000000E+00  0.39999999674E+01  0.40000000000E+01  0.51100000000E-03 0.  1.
    9000002   -1    0    0    0    0 -0.00000000000E+00 -0.00000000000E+00  0.00000000000E+00  0.93800000000E+00  0.93800000000E+00 0.  1.
         11    1    1    2    0    0 -0.29669614255E-01  0.29690780829E-01  0.64449251254E+00  0.64585810231E+00  0.51100000000E-03 0.  1.
    9000002    1    1    2    0    0  0.17716019201E+00 -0.16771158613E+00  0.39522107737E-01  0.97000974570E+00  0.93800000000E+00 0.  1.
         22    1    1    2    0    0 -0.14749057776E+00  0.13802080530E+00  0.33159853471E+01  0.33221321520E+01  0.00000000000E+00 0.  1.
</event>
<event>
 5    1  0.3490044E+002  0.1521821E+01  0.7818608E-02  0.3442847E+00
         11   -1    0    0    0    0  0.00000000000E+00  0.00000000000E+00  0.39999999674E+01  0.40000000000E+01  0.51100000000E-03 0.  1.
    9000002   -1    0    0    0    0 -0.00000000000E+00 -0.00000000000E+00  0.00000000000E+00  0.93800000000E+00  0.93800000000E+00 0. -1.
         11    1    1    2    0    0  0.55244803248E-01 -0.22548631682E+00  0.83037003386E+00  0.86221268931E+00  0.51100000000E-03 0.  1.
    9000002    1    1    2    0    0  0.32805814229E-01 -0.20064715191E+00  0.88243627282E-01  0.96382905060E+00  0.93800000000E+00 0. -1.
         22    1    1    2    0    0 -0.88050617477E-01  0.42613346873E+00  0.30813863062E+01  0.31119582601E+01  0.00000000000E+00 0.  1.
</event>
<event>
 5    1  0.3490044E+002  0.1597661E+01  0.7818608E-02  0.3355905E+00
         11   -1    0    0    0    0  0.00000000000E+00  0.00000000000E+00  0.39999999674E+01  0.40000000000E+01  0.51100000000E-03 0. -1.
    9000002   -1    0    0    0    0 -0.00000000000E+00 -0.00000000000E+00  0.00000000000E+00  0.93800000000E+00  0.93800000000E+00 0.  1.
         11    1    1    2    0    0  0.59998236186E-01 -0.98793922055E-02  0.11960165854E+01  0.11975614073E+01  0.51100000000E-03 0. -1.
    9000002    1    1    2    0    0 -0.35486344118E+00 -0.70319565656E-02  0.86145109897E-01  0.10065994686E+01  0.93800000000E+00 0.  1.
         22    1    1    2    0    0  0.29486520499E+00  0.16911348771E-01  0.27178382721E+01  0.27338391240E+01  0.00000000000E+00 0. -1.
</event>
<event>
 5    1  0.3490044E+002  0.1599676E+01  0.7818608E-02  0.3353715E+00
         11   -1    0    0    0    0  0.00000000000E+00  0.00000000000E+00  0.39999999674E+01  0.40000000000E+01  0.51100000000E-03 0. -1.
    9000002   -1    0    0    0    0 -0.00000000000E+00 -0.00000000000E+00  0.00000000000E+00  0.93800000000E+00  0.93800000000E+00 0. -1.
         11    1    1    2    0    0  0.14700416777E+00 -0.43081344682E-01  0.15649875810E+01  0.15724670481E+01  0.51100000000E-03 0.  1.
    9000002    1    1    2    0    0 -0.36440796907E+00  0.10647380340E+00  0.96972722768E-01  0.10165517929E+01  0.93800000000E+00 0. -1.
         22    1    1    2    0    0  0.21740380129E+00 -0.63392458720E-01  0.23380396636E+01  0.23489811589E+01  0.00000000000E+00 0. -1.
</event>
<event>
 5    1  0.3490044E+002  0.1599675E+01  0.7818608E-02  0.3353716E+00
         11   -1    0    0    0    0  0.00000000000E+00  0.00000000000E+00  0.39999999674E+01  0.40000000000E+01  0.51100000000E-03 0. -1.
    9000002   -1    0    0    0    0 -0.00000000000E+00 -0.00000000000E+00  0.00000000000E+00  0.93800000000E+00  0.93800000000E+00 0. -1.
         11    1    1    2    0    0 -0.84827411126E-01  0.33393622749E-01  0.97722699884E+00  0.98147016873E+00  0.51100000000E-03 0. -1.
    9000002    1    1    2    0    0  0.33476070190E+00 -0.13734730078E+00  0.87907912933E-01  0.10092080111E+01  0.93800000000E+00 0. -1.
         22    1    1    2    0    0 -0.24993329077E+00  0.10395367803E+00  0.29348650556E+01  0.29473218201E+01  0.00000000000E+00 0. -1.
</event>
<event>
 5    1  0.3490044E+002  0.1599540E+01  0.7818608E-02  0.3353862E+00
         11   -1    0    0    0    0  0.00000000000E+00  0.00000000000E+00  0.39999999674E+01  0.40000000000E+01  0.51100000000E-03 0. -1.
    9000002   -1    0    0    0    0 -0.00000000000E+00 -0.00000000000E+00  0.00000000000E+00  0.93800000000E+00  0.93800000000E+00 0.  1.
         11    1    1    2    0    0  0.36281936967E-01  0.72536675681E-01  0.12703240958E+01  0.12729106480E+01  0.51100000000E-03 0. -1.
    9000002    1    1    2    0    0 -0.11539054889E+00 -0.26599876218E+00  0.56139208784E-01  0.98339510423E+00  0.93800000000E+00 0.  1.
         22    1    1    2    0    0  0.79108611926E-01  0.19346208650E+00  0.26735366628E+01  0.26816942478E+01  0.00000000000E+00 0. -1.
</event>
<event>
 5    1  0.3490044E+002  0.1596041E+01  0.7818608E-02  0.3357671E+00
         11   -1    0    0    0    0  0.00000000000E+00  0.00000000000E+00  0.39999999674E+01  0.40000000000E+01  0.51100000000E-03 0. -1.
    9000002   -1    0    0    0    0 -0.00000000000E+00 -0.00000000000E+00  0.00000000000E+00  0.93800000000E+00  0.93800000000E+00 0.  1.
         11    1    1    2    0    0 -0.25009188830E+00  0.93169632462E-01  0.14708324873E+01  0.14948494906E+01  0.51100000000E-03 0. -1.
    9000002    1    1    2    0    0  0.49752345990E+00 -0.13505319133E+00  0.18574639889E+00  0.10863308347E+01  0.93800000000E+00 0.  1.
         22    1    1    2    0    0 -0.24743157160E+00  0.41883558864E-01  0.23434210812E+01  0.23568196747E+01  0.00000000000E+00 0. -1.
</event>
<event>
 5    1  0.3490044E+002  0.1599676E+01  0.7818608E-02  0.3353715E+00
         11   -1    0    0    0    0  0.00000000000E+00  0.00000000000E+00  0.39999999674E+01  0.40000000000E+01  0.51100000000E-03 0.  1.
    9000002   -1    0    0    0    0 -0.00000000000E+00 -0.00000000000E+00  0.00000000000E+00  0.93800000000E+00  0.93800000000E+00 0.  1.
         11    1    1    2    0    0  0.12869766647E-02 -0.16925633200E-01  0.29902696751E+00  0.29950880085E+00  0.51100000000E-03 0.  1.
    9000002    1    1    2    0    0 -0.10151006816E-01  0.22073772350E+00  0.32369475336E-01  0.96421987557E+00  0.93800000000E+00 0.  1.
         22    1    1    2    0    0  0.88640301514E-02 -0.20381209030E+00  0.36686035245E+01  0.36742713236E+01  0.00000000000E+00 0.  1.
</event>
<event>
 5    1  0.3490044E+002  0.1577635E+01  0.7818608E-02  0.3378001E+00
         11   -1    0    0    0    0  0.00000000000E+00  0.00000000000E+00  0.39999999674E+01  0.40000000000E+01  0.51100000000E-03 0. -1.
    9000002   -1    0    0    0    0 -0.00000000000E+00 -0.00000000000E+00  0.00000000000E+00  0.93800000000E+00  0.93800000000E+00 0. -1.
         11    1    1    2    0    0  0.22459647981E+00 -0.55817526112E-01  0.13947172482E+01  0.14137876921E+01  0.51100000000E-03 0. -1.
    9000002    1    1    2    0    0 -0.27657916055E+00 -0.16911364157E+00  0.87966194121E-01  0.99633202655E+00  0.93800000000E+00 0. -1.
         22    1    1    2    0    0  0.51982680741E-01  0.22493116769E+00  0.25173165251E+01  0.25278802813E+01  0.00000000000E+00 0. -1.
</event>
<event>
 5    1  0.3490044E+002  0.1593558E+01  0.7818608E-02  0.3360385E+00
         11   -1    0    0    0    0  0.00000000000E+00  0.00000000000E+00  0.39999999674E+01  0.40000000000E+01  0.51100000000E-03 0. -1.
    9000002   -1    0    0    0    0 -0.00000000000E+00 -0.00000000000E+00  0.00000000000E+00  0.93800000000E+00  0.93800000000E+00 0.  1.
         11    1    1    2    0    0 -0.92294342049E-01  0.21295650834E-01  0.47391274320E+00  0.48328593980E+00  0.51100000000E-03 0. -1.
    9000002    1    1    2    0    0  0.29908262351E+00  0.33630107776E-01  0.65240278207E-01  0.98725968911E+00  0.93800000000E+00 0.  1.
         22    1    1    2    0    0 -0.20678828146E+00 -0.54925758611E-01  0.34608469460E+01  0.34674543711E+01  0.00000000000E+00 0. -1.
</event>
<event>
 5    1  0.3490044E+002  0.1593955E+01  0.7818608E-02  0.3359951E+00
         11   -1    0    0    0    0  0.00000000000E+00  0.00000000000E+00  0.39999999674E+01  0.40000000000E+01  0.51100000000E-03 0.  1.
    9000002   -1    0    0    0    0 -0.00000000000E+00 -0.00000000000E+00  0.00000000000E+00  0.93800000000E+00  0.93800000000E+00 0.  1.
         11    1    1    2    0    0 -0.44680696807E-02  0.41163604504E-01  0.92713604001E+00  0.92806029103E+00  0.51100000000E-03 0.  1.
    9000002    1    1    2    0    0 -0.20013250418E+00  0.70033212754E-01  0.34104199402E-01  0.96227063061E+00  0.93800000000E+00 0.  1.
         22    1    1    2    0    0  0.20460057386E+00 -0.11119681726E+00  0.30387597279E+01  0.30476690784E+01  0.00000000000E+00 0.  1.
</event>
<event>
 5    1  0.3490044E+002  0.1530991E+01  0.7818608E-02  0.3431846E+00
         11   -1    0    0    0    0  0.00000000000E+00  0.00000000000E+00  0.39999999674E+01  0.40000000000E+01  0.51100000000E-03 0.  1.
    9000002   -1    0    0    0    0 -0.00000000000E+00 -0.00000000000E+00  0.00000000000E+00  0.93800000000E+00  0.93800000000E+00 0.  1.
         11    1    1    2    0    0 -0.51927810534E-01  0.48798078896E-01  0.33578711899E-01  0.78775256423E-01  0.51100000000E-03 0.  1.
    9000002    1    1    2    0    0 -0.40316469366E+00 -0.18190107725E-01  0.16962332878E+00  0.10351273950E+01  0.93800000000E+00 0.  1.
         22    1    1    2    0    0  0.45509250420E+00 -0.30607971171E-01  0.37967979267E+01  0.38240973486E+01  0.00000000000E+00 0.  1.
</event>
<event>
 5    1  0.3490044E+002  0.1567223E+01  0.7818608E-02  0.3389725E+00
         11   -1    0    0    0    0  0.00000000000E+00  0.00000000000E+00  0.39999999674E+01  0.40000000000E+01  0.51100000000E-03 0. -1.
    9000002   -1    0    0    0    0 -0.00000000000E+00 -0.00000000000E+00  0.00000000000E+00  0.93800000000E+00  0.93800000000E+00 0.  1.
         11    1    1    2    0    0  0.23872537979E-01 -0.26664041217E+00  0.21724075008E+01  0.21888402450E+01  0.51100000000E-03 0. -1.
    9000002    1    1    2    0    0  0.13835042056E+00  0.13732913397E+00  0.49833261441E-01  0.95933700223E+00  0.93800000000E+00 0.  1.
         22    1    1    2    0    0 -0.16222295854E+00  0.12931127821E+00  0.17777592051E+01  0.17898227527E+01  0.00000000000E+00 0.  1.
</event>
<event>
 5    1  0.3490044E+002  0.1599676E+01  0.7818608E-02  0.3353715E+00
         11   -1    0    0    0    0  0.00000000000E+00  0.00000000000E+00  0.39999999674E+01  0.40000000000E+01  0.51100000000E-03 0. -1.
    9000002   -1    0    0    0    0 -0.00000000000E+00 -0.00000000000E+00  0.00000000000E+00  0.93800000000E+00  0.93800000000E+00 0. -1.
         11    1    1    2    0    0 -0.15834882554E+00  0.23607579816E+00  0.20951110536E+01  0.21143076222E+01  0.51100000000E-03 0. -1.
    9000002    1    1    2    0    0  0.28967282089E+00 -0.42852090290E+00  0.18368977103E+00  0.10867964112E+01  0.93800000000E+00 0. -1.
         22    1    1    2    0    0 -0.13132399535E+00  0.19244510474E+00  0.17211991427E+01  0.17368959666E+01  0.00000000000E+00 0.  1.
</event>
<event>
 5    1  0.3490044E+002  0.1599669E+01  0.7818608E-02  0.3353723E+00
         11   -1    0    0    0    0  0.00000000000E+00  0.00000000000E+00  0.39999999674E+01  0.40000000000E+01  0.51100000000E-03 0.  1.
    9000002   -1    0    0    0    0 -0.00000000000E+00 -0.00000000000E+00  0.00000000000E+00  0.93800000000E+00  0.93800000000E+00 0. -1.
         11    1    1    2    0    0 -0.41901737249E-02  0.65117684856E-02  0.36312852521E-01  0.37132803071E-01  0.51100000000E-03 0. -1.
    9000002    1    1    2    0    0  0.39319585247E+00 -0.60869975080E+00  0.37786715899E+00  0.12440843841E+01  0.93800000000E+00 0. -1.
         22    1    1    2    0    0 -0.38900567874E+00  0.60218798231E+00  0.35858199559E+01  0.36567828128E+01  0.00000000000E+00 0.  1.
</event>
<event>
 5    1  0.3490044E+002  0.1599677E+01  0.7818608E-02  0.3353714E+00
         11   -1    0    0    0    0  0.00000000000E+00  0.00000000000E+00  0.39999999674E+01  0.40000000000E+01  0.51100000000E-03 0.  1.
    9000002   -1    0    0    0    0 -0.00000000000E+00 -0.00000000000E+00  0.00000000000E+00  0.93800000000E+00  0.93800000000E+00 0.  1.
         11    1    1    2    0    0 -0.27130996521E-01 -0.38228545374E+00  0.24432552593E+01  0.24731305632E+01  0.51100000000E-03 0.  1.
    9000002    1    1    2    0    0  0.41534665432E-01  0.58750867399E+00  0.24146353971E+00  0.11335961412E+01  0.93800000000E+00 0.  1.
         22    1    1    2    0    0 -0.14403668911E-01 -0.20522322025E+00  0.13152811683E+01  0.13312732956E+01  0.00000000000E+00 0.  1.
</event>
<event>
 5    1  0.3490044E+002  0.1599605E+01  0.7818608E-02  0.3353792E+00
         11   -1    0    0    0    0  0.00000000000E+00  0.00000000000E+00  0.39999999674E+01  0.40000000000E+01  0.51100000000E-03 0. -1.
    9000002   -1    0    0    0    0 -0.00000000000E+00 -0.00000000000E+00  0.00000000000E+00  0.93800000000E+00  0.93800000000E+00 0. -1.
         11    1    1    2    0    0 -0.20524257961E-01  0.35215058024E-01  0.29078014244E+00  0.29362339456E+00  0.51100000000E-03 0. -1.
    9000002    1    1    2    0    0  0.27417394621E+00 -0.39377186900E+00  0.15714804851E+00  0.10652544986E+01  0.93800000000E+00 0. -1.
         22    1    1    2    0    0 -0.25364968825E+00  0.35855681097E+00  0.35520717764E+01  0.35791221069E+01  0.00000000000E+00 0. -1.
</event>
<event>
 5    1  0.3490044E+002  0.1594883E+01  0.7818608E-02  0.3358936E+00
         11   -1    0    0    0    0  0.00000000000E+00  0.00000000000E+00  0.39999999674E+01  0.40000000000E+01  0.51100000000E-03 0.  1.
    9000002   -1    0    0    0    0 -0.00000000000E+00 -0.00000000000E+00  0.00000000000E+00  0.93800000000E+00  0.93800000000E+00 0.  1.
         11    1    1    2    0    0 -0.59766306642E+00 -0.21708451946E+00  0.24114714723E+01  0.24938969009E+01  0.51100000000E-03 0.  1.
    9000002    1    1    2    0    0  0.86538182262E+00  0.20201010002E+00  0.60880739730E+00  0.14283501764E+01  0.93800000000E+00 0.  1.
         22    1    1    2    0    0 -0.26771875619E+00  0.15074419437E-01  0.97972109773E+00  0.10157529226E+01  0.00000000000E+00 0.  1.
</event>
<event>
 5    1  0.3490044E+002  0.1550002E+01  0.7818608E-02  0.3409483E+00
         11   -1    0    0    0    0  0.00000000000E+00  0.00000000000E+00  0.39999999674E+01  0.40000000000E+01  0.51100000000E-03 0.  1.
    9000002   -1    0    0    0    0 -0.00000000000E+00 -0.00000000000E+00  0.00000000000E+00  0.93800000000E+00  0.93800000000E+00 0.  1.
         11    1    1    2    0    0  0.20216781845E-01 -0.21432711111E-01 -0.50305942342E-02  0.29893935390E-01  0.51100000000E-03 0.  1.
    9000002    1    1    2    0    0  0.21284501823E+00 -0.46940985881E-01  0.69939928812E-01  0.96552682593E+00  0.93800000000E+00 0.  1.
         22    1    1    2    0    0 -0.23306180007E+00  0.68373696992E-01  0.39350906328E+01  0.39425792387E+01  0.00000000000E+00 0.  1.
</event>
<event>
 5    1  0.3490044E+002  0.1591083E+01  0.7818608E-02  0.3363098E+00
         11   -1    0    0    0    0  0.00000000000E+00  0.00000000000E+00  0.39999999674E+01  0.40000000000E+01  0.51100000000E-03 0. -1.
    9000002   -1    0    0    0    0 -0.00000000000E+00 -0.00000000000E+00  0.00000000000E+00  0.93800000000E+00  0.93800000000E+00 0.  1.
         11    1    1    2    0    0 -0.26465252427E-01 -0.13653865028E-01  0.17940646760E+01  0.17943118905E+01  0.51100000000E-03 0. -1.
    9000002    1    1    2    0    0 -0.68347373357E-01 -0.18035152922E+00  0.31067451871E-01  0.95812693528E+00  0.93800000000E+00 0.  1.
         22    1    1    2    0    0  0.94812625784E-01  0.19400539425E+00  0.21748678395E+01  0.21855611742E+01  0.00000000000E+00 0. -1.
</event>
<event>
 5    1  0.3490044E+002  0.1599453E+01  0.7818608E-02  0.3353957E+00
         11   -1    0    0    0    0  0.00000000000E+00  0.00000000000E+00  0.39999999674E+01  0.40000000000E+01  0.51100000000E-03 0. -1.
    9000002   -1    0    0    0    0 -0.00000000000E+00 -0.00000000000E+00  0.00000000000E+00  0.93800000000E+00  0.93800000000E+00 0. -1.
         11    1    1    2    0    0  0.18999790057E+00 -0.69266498454E-01  0.17308634065E+01  0.17426374962E+01  0.51100000000E-03 0. -1.
    9000002    1    1    2    0    0 -0.38774317805E+00  0.16843341347E+00  0.12110037379E+00  0.10359651961E+01  0.93800000000E+00 0. -1.
         22    1    1    2    0    0  0.19774527749E+00 -0.99166915013E-01  0.21480361871E+01  0.21593973078E+01  0.00000000000E+00 0. -1.
</event>
<event>
 5    1  0.3490044E+002  0.1599677E+01  0.7818608E-02  0.3353714E+00
         11   -1    0    0    0    0  0.00000000000E+00  0.00000000000E+00  0.39999999674E+01  0.40000000000E+01  0.51100000000E-03 0.  1.
    9000002   -1    0    0    0    0 -0.00000000000E+00 -0.00000000000E+00  0.00000000000E+00  0.93800000000E+00  0.93800000000E+00 0. -1.
         11    1    1    2    0    0 -0.27989653883E+00 -0.23489547195E+00  0.18464655419E+01  0.18822734163E+01  0.51100000000E-03 0.  1.
    9000002    1    1    2    0    0  0.54940937076E+00  0.46232414488E+00  0.37031341027E+00  0.12379702312E+01  0.93800000000E+00 0. -1.
         22    1    1    2    0    0 -0.26951283194E+00 -0.22742867293E+00  0.17832210152E+01  0.18177563524E+01  0.00000000000E+00 0.  1.
</event>
<event>
 5    1  0.3490044E+002  0.1596594E+01  0.7818608E-02  0.3357068E+00
         11   -1    0    0    0    0  0.00000000000E+00  0.00000000000E+00  0.39999999674E+01  0.40000000000E+01  0.51100000000E-03 0. -1.
    9000002   -1    0    0    0    0 -0.00000000000E+00 -0.00000000000E+00  0.00000000000E+00  0.93800000000E+00  0.93800000000E+00 0. -1.
         11    1    1    2    0    0 -0.40648605473E-01 -0.15569356641E-01  0.20837509850E+00  0.21287356996E+00  0.51100000000E-03 0. -1.
    9000002    1    1    2    0    0  0.26633453218E+00  0.27283474045E-01  0.50060954502E-01  0.97674386108E+00  0.93800000000E+00 0. -1.
         22    1    1    2    0    0 -0.22568592670E+00 -0.11714117404E-01  0.37415639144E+01  0.37483825690E+01  0.00000000000E+00 0. -1.
</event>
<event>
 5    1  0.3490044E+002  0.1598302E+01  0.7818608E-02  0.3355208E+00
         11   -1    0    0    0    0  0.00000000000E+00  0.00000000000E+00  0.39999999674E+01  0.40000000000E+01  0.51100000000E-03 0. -1.
    9000002   -1    0    0    0    0 -0.00000000000E+00 -0.00000000000E+00  0.00000000000E+00  0.93800000000E+00  0.93800000000E+00 0.  1.
         11    1    1    2    0    0  0.21424520147E+00  0.12694798291E+00  0.18596908317E+01  0.18762907683E+01  0.51100000000E-03 0. -1.
    9000002    1    1    2    0    0 -0.50518639980E+00 -0.19819743409E+00  0.20441751722E+00  0.11027810493E+01  0.93800000000E+00 0.  1.
         22    1    1    2    0    0  0.29094119833E+00  0.71249451180E-01  0.19358916184E+01  0.19589281823E+01  0.00000000000E+00 0. -1.
</event>
<event>
 5    1  0.3490044E+002  0.1599245E+01  0.7818608E-02  0.3354184E+00
         11   -1    0    0    0    0  0.00000000000E+00  0.00000000000E+00  0.39999999674E+01  0.40000000000E+01  0.51100000000E-03 0.  1.
    9000002   -1    0    0    0    0 -0.00000000000E+00 -0.00000000000E+00  0.00000000000E+00  0.93800000000E+00  0.93800000000E+00 0.  1.
         11    1    1    2    0    0  0.28799819331E-01  0.71990203556E-01  0.13333609269E+01  0.13356135824E+01  0.51100000000E-03 0.  1.
    9000002    1    1    2    0    0 -0.12143655218E+00 -0.27274086915E+00  0.59792923598E-01  0.98618132796E+00  0.93800000000E+00 0.  1.
         22    1    1    2    0    0  0.92636732853E-01  0.20075066560E+00  0.26068461168E+01  0.26162050896E+01  0.00000000000E+00 0.  1.
</event>
<event>
 5    1  0.3490044E+002  0.1599677E+01  0.7818608E-02  0.3353714E+00
         11   -1    0    0    0    0  0.00000000000E+00  0.00000000000E+00  0.39999999674E+01  0.40000000000E+01  0.51100000000E-03 0.  1.
    9000002   -1    0    0    0    0 -0.00000000000E+00 -0.00000000000E+00  0.00000000000E+00  0.93800000000E+00  0.93800000000E+00 0. -1.
         11    1    1    2    0    0 -0.41389664262E+00  0.24246665486E+00  0.19342613891E+01  0.19928542074E+01  0.51100000000E-03 0.  1.
    9000002    1    1    2    0    0  0.73875333626E+00 -0.43154761058E+00  0.55017018625E+00  0.13836621936E+01  0.93800000000E+00 0. -1.
         22    1    1    2    0    0 -0.32485669364E+00  0.18908095572E+00  0.15155683920E+01  0.15614835990E+01  0.00000000000E+00 0.  1.
</event>
<event>
 5    1  0.3490044E+002  0.1599652E+01  0.7818608E-02  0.3353741E+00
         11   -1    0    0    0    0  0.00000000000E+00  0.00000000000E+00  0.39999999674E+01  0.40000000000E+01  0.51100000000E-03 0. -1.
    9000002   -1    0    0    0    0 -0.00000000000E+00 -0.00000000000E+00  0.00000000000E+00  0.93800000000E+00  0.93800000000E+00 0. -1.
         11    1    1    2    0    0 -0.25096911270E-02 -0.65740802815E-01  0.74896159997E+00  0.75184565640E+00  0.51100000000E-03 0. -1.
    9000002    1    1    2    0    0  0.37882058337E-01  0.34540448243E+00  0.80954752601E-01  0.10035621450E+01  0.93800000000E+00 0. -1.
         22    1    1    2    0    0 -0.35372367210E-01 -0.27966367962E+00  0.31700836148E+01  0.31825921986E+01  0.00000000000E+00 0. -1.
</event>
<event>
 5    1  0.3490044E+002  0.1599312E+01  0.7818608E-02  0.3354111E+00
         11   -1    0    0    0    0  0.00000000000E+00  0.00000000000E+00  0.39999999674E+01  0.40000000000E+01  0.51100000000E-03 0. -1.
    9000002   -1    0    0    0    0 -0.00000000000E+00 -0.00000000000E+00  0.00000000000E+00  0.93800000000E+00  0.93800000000E+00 0.  1.
         11    1    1    2    0    0  0.65515002786E-02  0.15671011671E-01  0.41896366158E+00  0.41930813683E+00  0.51100000000E-03 0. -1.
    9000002    1    1    2    0    0 -0.19330172481E+00 -0.17201651596E+00  0.44788211981E-01  0.97406633373E+00  0.93800000000E+00 0.  1.
         22    1    1    2    0    0  0.18675022453E+00  0.15634550429E+00  0.35362480938E+01  0.35446255294E+01  0.00000000000E+00 0. -1.
</event>
<event>
 5    1  0.3490044E+002  0.1557599E+01  0.7818608E-02  0.3400711E+00
         11   -1    0    0    0    0  0.00000000000E+00  0.00000000000E+00  0.39999999674E+01  0.40000000000E+01  0.51100000000E-03 0. -1.
    9000002   -1    0    0    0    0 -0.00000000000E+00 -0.00000000000E+00  0.00000000000E+00  0.93800000000E+00  0.93800000000E+00 0.  1.
         11    1    1    2    0    0 -0.16912228751E+00 -0.27239175121E+00  0.22779143146E+01  0.23003681227E+01  0.51100000000E-03 0. -1.
    9000002    1    1    2    0    0  0.15558315057E+00  0.72408434823E-01  0.51386923485E-01  0.95495220513E+00  0.93800000000E+00 0.  1.
         22    1    1    2    0    0  0.13539136944E-01  0.19998331638E+00  0.16706987293E+01  0.16826796721E+01  0.00000000000E+00 0. -1.
</event>
<event>
 5    1  0.3490044E+002  0.1599060E+01  0.7818608E-02  0.3354384E+00
         11   -1    0    0    0    0  0.00000000000E+00  0.00000000000E+00  0.39999999674E+01  0.40000000000E+01  0.51100000000E-03 0.  1.
    9000002   -1    0    0    0    0 -0.00000000000E+00 -0.00000000000E+00  0.00000000000E+00  0.93800000000E+00  0.93800000000E+00 0.  1.
         11    1    1    2    0    0 -0.99689162022E-01 -0.10390789787E-01  0.13768063739E+01  0.13804499085E+01  0.51100000000E-03 0.  1.
    9000002    1    1    2    0    0  0.28735506641E+00  0.11116717214E+00  0.63862985240E-01  0.98937028217E+00  0.93800000000E+00 0.  1.
         22    1    1    2    0    0 -0.18766590439E+00 -0.10077638235E+00  0.25593306082E+01  0.25681798093E+01  0.00000000000E+00 0.  1.
</event>
<event>
 5    1  0.3490044E+002  0.1599465E+01  0.7818608E-02  0.3353944E+00
         11   -1    0    0    0    0  0.00000000000E+00  0.00000000000E+00  0.39999999674E+01  0.40000000000E+01  0.51100000000E-03 0. -1.
    9000002   -1    0    0    0    0 -0.00000000000E+00 -0.00000000000E+00  0.00000000000E+00  0.93800000000E+00  0.93800000000E+00 0. -1.
         11    1    1    2    0    0  0.60486940159E-01 -0.36480832893E-02  0.84830360770E+00  0.85046531405E+00  0.51100000000E-03 0. -1.
    9000002    1    1    2    0    0 -0.25146866652E+00  0.76638647464E-01  0.46118235860E-01  0.97523374850E+00  0.93800000000E+00 0. -1.
         22    1    1    2    0    0  0.19098172636E+00 -0.72990564175E-01  0.31055781238E+01  0.31123009375E+01  0.00000000000E+00 0. -1.
</event>
<event>
 5    1  0.3490044E+002  0.1599677E+01  0.7818608E-02  0.3353714E+00
         11   -1    0    0    0    0  0.00000000000E+00  0.00000000000E+00  0.39999999674E+01  0.40000000000E+01  0.51100000000E-03 0. -1.
    9000002   -1    0    0    0    0 -0.00000000000E+00 -0.00000000000E+00  0.00000000000E+00  0.93800000000E+00  0.93800000000E+00 0.  1.
         11    1    1    2    0    0 -0.25187631270E-01  0.24771042181E+00  0.20350827490E+01  0.20502577707E+01  0.51100000000E-03 0. -1.
    9000002    1    1    2    0    0  0.47745045803E-01 -0.46925667768E+00  0.15160403736E+00  0.10608059215E+01  0.93800000000E+00 0.  1.
         22    1    1    2    0    0 -0.22557414533E-01  0.22154625588E+00  0.18133131810E+01  0.18269363078E+01  0.00000000000E+00 0. -1.
</event>
<event>
 5    1  0.3490044E+002  0.1541390E+01  0.7818608E-02  0.3419541E+00
         11   -1    0    0    0    0  0.00000000000E+00  0.00000000000E+00  0.39999999674E+01  0.40000000000E+01  0.51100000000E-03 0.  1.
    9000002   -1    0    0    0    0 -0.00000000000E+00 -0.00000000000E+00  0.00000000000E+00  0.93800000000E+00  0.93800000000E+00 0.  1.
         11    1    1    2    0    0  0.41991441536E-01  0.31543287593E-01  0.10877090592E-01  0.53636110739E-01  0.51100000000E-03 0.  1.
    9000002    1    1    2    0    0  0.22002540345E+00 -0.28333930194E+00  0.13516808973E+00  0.10133147343E+01  0.93800000000E+00 0.  1.
         22    1    1    2    0    0 -0.26201684499E+00  0.25179601434E+00  0.38539547870E+01  0.38710491550E+01  0.00000000000E+00 0.  1.
</event>
<event>
 5    1  0.4522214E+002  0.1589983E+01  0.7818608E-02  0.3364308E+00
         11   -1    0    0    0    0  0.00000000000E+00  0.00000000000E+00  0.39999999674E+01  0.40000000000E+01  0.51100000000E-03 0.  1.
    9000002   -1    0    0    0    0 -0.00000000000E+00 -0.00000000000E+00  0.00000000000E+00  0.93800000000E+00  0.93800000000E+00 0. -1.
         11    1    1    2    0    0 -0.16656706339E-01 -0.63587715373E-01  0.58351921856E+00  0.58721016933E+00  0.51100000000E-03 0.  1.
    9000002    1    1    2    0    0 -0.14697050232E+00 -0.75429085416E-01  0.25251436596E-01  0.95277043958E+00  0.93800000000E+00 0. -1.
         22    1    1    2    0    0  0.16362720866E+00  0.13901680079E+00  0.33912293122E+01  0.33980193911E+01  0.00000000000E+00 0.  1.
</event>
<event>
 5    1  0.3490044E+002  0.1599660E+01  0.7818608E-02  0.3353732E+00
         11   -1    0    0    0    0  0.00000000000E+00  0.00000000000E+00  0.39999999674E+01  0.40000000000E+01  0.51100000000E-03 0.  1.
    9000002   -1    0    0    0    0 -0.00000000000E+00 -0.00000000000E+00  0.00000000000E+00  0.93800000000E+00  0.93800000000E+00 0. -1.
         11    1    1    2    0    0 -0.27051046436E+00  0.42778182268E-01  0.21818226287E+01  0.21989443213E+01  0.51100000000E-03 0.  1.
    9000002    1    1    2    0    0  0.46855471655E+00 -0.77923358579E-01  0.15383429091E+00  0.10626027297E+01  0.93800000000E+00 0. -1.
         22    1    1    2    0    0 -0.19804425218E+00  0.35145176311E-01  0.16643430478E+01  0.16764529489E+01  0.00000000000E+00 0.  1.
</event>
<event>
 5    1  0.3490044E+002  0.1598856E+01  0.7818608E-02  0.3354606E+00
         11   -1    0    0    0    0  0.00000000000E+00  0.00000000000E+00  0.39999999674E+01  0.40000000000E+01  0.51100000000E-03 0.  1.
    9000002   -1    0    0    0    0 -0.00000000000E+00 -0.00000000000E+00  0.00000000000E+00  0.93800000000E+00  0.93800000000E+00 0.  1.
         11    1    1    2    0    0 -0.68416485840E-03  0.32150076137E-02  0.69579480704E-02  0.77122317043E-02  0.51100000000E-03 0.  1.
    9000002    1    1    2    0    0  0.17661395584E+00 -0.17142187431E+00  0.40856170084E-01  0.97061381353E+00  0.93800000000E+00 0.  1.
         22    1    1    2    0    0 -0.17592979098E+00  0.16820686670E+00  0.39521858492E+01  0.39596739548E+01  0.00000000000E+00 0.  1.
</event>
<event>
 5    1  0.3490044E+002  0.1501475E+01  0.7818608E-02  0.3467770E+00
         11   -1    0    0    0    0  0.00000000000E+00  0.00000000000E+00  0.39999999674E+01  0.40000000000E+01  0.51100000000E-03 0.  1.
    9000002   -1    0    0    0    0 -0.00000000000E+00 -0.00000000000E+00  0.00000000000E+00  0.93800000000E+00  0.93800000000E+00 0.  1.
         11    1    1    2    0    0  0.14752239279E+00  0.82255564761E-01  0.18857738514E+00  0.25316106655E+00  0.51100000000E-03 0.  1.
    9000002    1    1    2    0    0  0.53374440776E-02  0.14757925611E+00  0.90682046424E-01  0.95387386938E+00  0.93800000000E+00 0.  1.
         22    1    1    2    0    0 -0.15285983687E+00 -0.22983482087E+00  0.37207405358E+01  0.37309650641E+01  0.00000000000E+00 0.  1.
</event>
<event>
 5    1  0.3490044E+002  0.1596531E+01  0.7818608E-02  0.3357137E+00
         11   -1    0    0    0    0  0.00000000000E+00  0.00000000000E+00  0.39999999674E+01  0.40000000000E+01  0.51100000000E-03 0.  1.
    9000002   -1    0    0    0    0 -0.00000000000E+00 -0.00000000000E+00  0.00000000000E+00  0.93800000000E+00  0.93800000000E+00 0.  1.
         11    1    1    2    0    0  0.58993621407E-01 -0.18720503264E-01  0.26770948604E+00  0.27477142254E+00  0.51100000000E-03 0.  1.
    9000002    1    1    2    0    0 -0.79932218412E+00 -0.22314806259E+00  0.51696452770E+00  0.13549196783E+01  0.93800000000E+00 0.  1.
         22    1    1    2    0    0  0.74032856272E+00  0.24186856586E+00  0.32153259536E+01  0.33083088991E+01  0.00000000000E+00 0.  1.
</event>
<event>
 5    1  0.3490044E+002  0.1599663E+01  0.7818608E-02  0.3353729E+00
         11   -1    0    0    0    0  0.00000000000E+00  0.00000000000E+00  0.39999999674E+01  0.40000000000E+01  0.51100000000E-03 0.  1.
    9000002   -1    0    0    0    0 -0.00000000000E+00 -0.00000000000E+00  0.00000000000E+00  0.93800000000E+00  0.93800000000E+00 0. -1.
         11    1    1    2    0    0 -0.36581495558E-01 -0.42053984393E-01  0.86481753836E+00  0.86661201192E+00  0.51100000000E-03 0.  1.
    9000002    1    1    2    0    0  0.18248118733E+00  0.19908938557E+00  0.48538929918E-01  0.97731059285E+00  0.93800000000E+00 0. -1.
         22    1    1    2    0    0 -0.14589969177E+00 -0.15703540118E+00  0.30866434991E+01  0.30940773952E+01  0.00000000000E+00 0.  1.
</event>
<event>
 5    1  0.3490044E+002  0.1595156E+01  0.7818608E-02  0.3358638E+00
         11   -1    0    0    0    0  0.00000000000E+00  0.00000000000E+00  0.39999999674E+01  0.40000000000E+01  0.51100000000E-03 0. -1.
    9000002   -1    0    0    0    0 -0.00000000000E+00 -0.00000000000E+00  0.00000000000E+00  0.93800000000E+00  0.93800000000E+00 0. -1.
         11    1    1    2    0    0 -0.25746712747E+00 -0.12596526887E+00  0.12807799888E+01  0.13124611276E+01  0.51100000000E-03 0. -1.
    9000002    1    1    2    0    0  0.54565944659E+00  0.26968799104E+00  0.26351567443E+00  0.11488082324E+01  0.93800000000E+00 0. -1.
         22    1    1    2    0    0 -0.28819231912E+00 -0.14372272217E+00  0.24557043041E+01  0.24767306400E+01  0.00000000000E+00 0. -1.
</event>
<event>
 5    1  0.3490044E+002  0.1599206E+01  0.7818608E-02  0.3354226E+00
         11   -1    0    0    0    0  0.00000000000E+00  0.00000000000E+00  0.39999999674E+01  0.40000000000E+01  0.51100000000E-03 0. -1.
    9000002   -1    0    0    0    0 -0.00000000000E+00 -0.00000000000E+00  0.00000000000E+00  0.93800000000E+00  0.93800000000E+00 0.  1.
         11    1    1    2    0    0 -0.18928705836E-01  0.12471207670E+00  0.13318052132E+01  0.13377655942E+01  0.51100000000E-03 0. -1.
    9000002    1    1    2    0    0 -0.11953353301E-01 -0.34026345797E+00  0.78023794603E-01  0.10009264788E+01  0.93800000000E+00 0.  1.
         22    1    1    2    0    0  0.30882059138E-01  0.21555138127E+00  0.25901709595E+01  0.25993079270E+01  0.00000000000E+00 0. -1.
</event>
<event>
 5    1  0.3490044E+002  0.1599538E+01  0.7818608E-02  0.3353865E+00
         11   -1    0    0    0    0  0.00000000000E+00  0.00000000000E+00  0.39999999674E+01  0.40000000000E+01  0.51100000000E-03 0.  1.
    9000002   -1    0    0    0    0 -0.00000000000E+00 -0.00000000000E+00  0.00000000000E+00  0.93800000000E+00  0.93800000000E+00 0. -1.
         11    1    1    2    0    0 -0.76503875403E-01 -0.48378271028E-02  0.52939107896E+00  0.53491253783E+00  0.51100000000E-03 0.  1.
    9000002    1    1    2    0    0  0.51453254900E+00 -0.25295180279E-01  0.18226819071E+00  0.10855640393E+01  0.93800000000E+00 0. -1.
         22    1    1    2    0    0 -0.43802867360E+00  0.30133007381E-01  0.32883406977E+01  0.33175234228E+01  0.00000000000E+00 0.  1.
</event>
<event>
 5    1  0.3490044E+002  0.1599668E+01  0.7818608E-02  0.3353724E+00
         11   -1    0    0    0    0  0.00000000000E+00  0.00000000000E+00  0.39999999674E+01  0.40000000000E+01  0.51100000000E-03 0.  1.
    9000002   -1    0    0    0    0 -0.00000000000E+00 -0.00000000000E+00  0.00000000000E+00  0.93800000000E+00  0.93800000000E+00 0.  1.
         11    1    1    2    0    0 -0.30840433067E-01  0.36191921581E-02  0.49414754734E+00  0.49512250053E+00  0.51100000000E-03 0.  1.
    9000002    1    1    2    0    0  0.23766172637E+00 -0.12301454552E-01  0.37595091280E-01  0.96844814670E+00  0.93800000000E+00 0.  1.
         22    1    1    2    0    0 -0.20682129330E+00  0.86822623940E-02  0.34682573287E+01  0.34744293528E+01  0.00000000000E+00 0.  1.
</event>
<event>
 5    1  0.3490044E+002  0.1599591E+01  0.7818608E-02  0.3353807E+00
         11   -1    0    0    0    0  0.00000000000E+00  0.00000000000E+00  0.39999999674E+01  0.40000000000E+01  0.51100000000E-03 0.  1.
    9000002   -1    0    0    0    0 -0.00000000000E+00 -0.00000000000E+00  0.00000000000E+00  0.93800000000E+00  0.93800000000E+00 0.  1.
         11    1    1    2    0    0  0.32712209839E-01  0.10263683696E-01  0.49300453842E+00  0.49419547539E+00  0.51100000000E-03 0.  1.
    9000002    1    1    2    0    0 -0.20938082274E+00 -0.10758101458E+00  0.36836396613E-01  0.96778867721E+00  0.93800000000E+00 0.  1.
         22    1    1    2    0    0  0.17666861290E+00  0.97317330884E-01  0.34701590323E+01  0.34760158474E+01  0.00000000000E+00 0.  1.
</event>
<event>
 5    1  0.3490044E+002  0.1599661E+01  0.7818608E-02  0.3353731E+00
         11   -1    0    0    0    0  0.00000000000E+00  0.00000000000E+00  0.39999999674E+01  0.40000000000E+01  0.51100000000E-03 0. -1.
    9000002   -1    0    0    0    0 -0.00000000000E+00 -0.00000000000E+00  0.00000000000E+00  0.93800000000E+00  0.93800000000E+00 0. -1.
         11    1    1    2    0    0 -0.18180685195E+00 -0.99659560954E-01  0.10255714772E+01  0.10463187256E+01  0.51100000000E-03 0. -1.
    9000002    1    1    2    0    0  0.63953931133E+00  0.33718351981E+00  0.37595973409E+00  0.12425349003E+01  0.93800000000E+00 0. -1.
         22    1    1    2    0    0 -0.45773245938E+00 -0.23752395886E+00  0.25984687561E+01  0.26491463742E+01  0.00000000000E+00 0. -1.
</event>
<event>
 5    1  0.3490044E+002  0.1599655E+01  0.7818608E-02  0.3353738E+00
         11   -1    0    0    0    0  0.00000000000E+00  0.00000000000E+00  0.39999999674E+01  0.40000000000E+01  0.51100000000E-03 0. -1.
    9000002   -1    0    0    0    0 -0.00000000000E+00 -0.00000000000E+00  0.00000000000E+00  0.93800000000E+00  0.93800000000E+00 0. -1.
         11    1    1    2    0    0  0.10025751330E-01  0.50923095428E-02  0.18980757618E+00  0.19014106448E+00  0.51100000000E-03 0. -1.
    9000002    1    1    2    0    0 -0.25707789271E+00 -0.94319439502E-01  0.49924843148E-01  0.97842817291E+00  0.93800000000E+00 0. -1.
         22    1    1    2    0    0  0.24705214138E+00  0.89227129959E-01  0.37602675480E+01  0.37694307626E+01  0.00000000000E+00 0. -1.
</event>
<event>
 5    1  0.3490044E+002  0.1572510E+01  0.7818608E-02  0.3383751E+00
         11   -1    0    0    0    0  0.00000000000E+00  0.00000000000E+00  0.39999999674E+01  0.40000000000E+01  0.51100000000E-03 0.  1.
    9000002   -1    0    0    0    0 -0.00000000000E+00 -0.00000000000E+00  0.00000000000E+00  0.93800000000E+00  0.93800000000E+00 0. -1.
         11    1    1    2    0    0 -0.63072984028E-01 -0.10364898535E+00  0.27161461734E+00  0.29748289858E+00  0.51100000000E-03 0.  1.
    9000002    1    1    2    0    0  0.30433673050E+00  0.12795030889E+00  0.94867853145E-01  0.99891743234E+00  0.93800000000E+00 0. -1.
         22    1    1    2    0    0 -0.24126374647E+00 -0.24301323543E-01  0.36335174969E+01  0.36415996691E+01  0.00000000000E+00 0.  1.
</event>
<event>
 5    1  0.3490044E+002  0.1597642E+01  0.7818608E-02  0.3355927E+00
         11   -1    0    0    0    0  0.00000000000E+00  0.00000000000E+00  0.39999999674E+01  0.40000000000E+01  0.51100000000E-03 0.  1.
    9000002   -1    0    0    0    0 -0.00000000000E+00 -0.00000000000E+00  0.00000000000E+00  0.93800000000E+00  0.93800000000E+00 0. -1.
         11    1    1    2    0    0  0.45745964329E-02  0.88079183795E-01  0.67527504598E+00  0.68101065953E+00  0.51100000000E-03 0.  1.
    9000002    1    1    2    0    0  0.75980162979E-01 -0.29709966910E+00  0.64375496360E-01  0.98895369107E+00  0.93800000000E+00 0. -1.
         22    1    1    2    0    0 -0.80554759412E-01  0.20902048530E+00  0.32603494250E+01  0.32680356494E+01  0.00000000000E+00 0.  1.
</event>
<event>
 5    1  0.3490044E+002  0.1597573E+01  0.7818608E-02  0.3356002E+00
         11   -1    0    0    0    0  0.00000000000E+00  0.00000000000E+00  0.39999999674E+01  0.40000000000E+01  0.51100000000E-03 0. -1.
    9000002   -1    0    0    0    0 -0.00000000000E+00 -0.00000000000E+00  0.00000000000E+00  0.93800000000E+00  0.93800000000E+00 0. -1.
         11    1    1    2    0    0  0.11311268881E+00 -0.29021030976E+00  0.18651672544E+01  0.18909959419E+01  0.51100000000E-03 0. -1.
    9000002    1    1    2    0    0 -0.17755384334E+00  0.49238814424E+00  0.19024800651E+00  0.10908756830E+01  0.93800000000E+00 0. -1.
         22    1    1    2    0    0  0.64441154530E-01 -0.20217783448E+00  0.19445847065E+01  0.19561283751E+01  0.00000000000E+00 0. -1.
</event>
<event>
 5    1  0.3490044E+002  0.1515009E+01  0.7818608E-02  0.3451111E+00
         11   -1    0    0    0    0  0.00000000000E+00  0.00000000000E+00  0.39999999674E+01  0.40000000000E+01  0.51100000000E-03 0. -1.
    9000002   -1    0    0    0    0 -0.00000000000E+00 -0.00000000000E+00  0.00000000000E+00  0.93800000000E+00  0.93800000000E+00 0.  1.
         11    1    1    2    0    0  0.15091577140E-01  0.83561893309E-01  0.30475756648E+01  0.30487584423E+01  0.51100000000E-03 0. -1.
    9000002    1    1    2    0    0  0.50019725293E-01  0.26065171736E+00  0.11511123214E+00  0.98159863816E+00  0.93800000000E+00 0.  1.
         22    1    1    2    0    0 -0.65111302433E-01 -0.34421361067E+00  0.83731307046E+00  0.90764291957E+00  0.00000000000E+00 0. -1.
</event>
<event>
 5    1  0.3490044E+002  0.1551548E+01  0.7818608E-02  0.3407691E+00
         11   -1    0    0    0    0  0.00000000000E+00  0.00000000000E+00  0.39999999674E+01  0.40000000000E+01  0.51100000000E-03 0.  1.
    9000002   -1    0    0    0    0 -0.00000000000E+00 -0.00000000000E+00  0.00000000000E+00  0.93800000000E+00  0.93800000000E+00 0. -1.
         11    1    1    2    0    0 -0.22246475816E+00  0.13234918252E+00  0.13198171814E+01  0.13449626494E+01  0.51100000000E-03 0.  1.
    9000002    1    1    2    0    0  0.12054121808E+00  0.11361979402E+00  0.54694484507E-01  0.95408339755E+00  0.93800000000E+00 0. -1.
         22    1    1    2    0    0  0.10192354008E+00 -0.24596897654E+00  0.26254883014E+01  0.26389539530E+01  0.00000000000E+00 0.  1.
</event>
<event>
 5    1  0.3490044E+002  0.1599419E+01  0.7818608E-02  0.3353994E+00
         11   -1    0    0    0    0  0.00000000000E+00  0.00000000000E+00  0.39999999674E+01  0.40000000000E+01  0.51100000000E-03 0. -1.
    9000002   -1    0    0    0    0 -0.00000000000E+00 -0.00000000000E+00  0.00000000000E+00  0.93800000000E+00  0.93800000000E+00 0. -1.
         11    1    1    2    0    0  0.65405351701E-01  0.97021074763E-01  0.12999942274E+01  0.13052494786E+01  0.51100000000E-03 0. -1.
    9000002    1    1    2    0    0 -0.24466294393E+00 -0.26529629237E+00  0.87644362414E-01  0.10088446923E+01  0.93800000000E+00 0. -1.
         22    1    1    2    0    0  0.17925759223E+00  0.16827521761E+00  0.26123613776E+01  0.26239058292E+01  0.00000000000E+00 0. -1.
</event>
<event>
 5    1  0.3490044E+002  0.1599514E+01  0.7818608E-02  0.3353891E+00
         11   -1    0    0    0    0  0.00000000000E+00  0.00000000000E+00  0.39999999674E+01  0.40000000000E+01  0.51100000000E-03 0.  1.
    9000002   -1    0    0    0    0 -0.00000000000E+00 -0.00000000000E+00  0.00000000000E+00  0.93800000000E+00  0.93800000000E+00 0.  1.
         11    1    1    2    0    0  0.11298702232E-01 -0.15147579295E-01  0.18736285721E+00  0.18831412908E+00  0.51100000000E-03 0.  1.
    9000002    1    1    2    0    0 -0.19531339132E+00  0.18859388715E+00  0.49178188125E-01  0.97774100317E+00  0.93800000000E+00 0.  1.
         22    1    1    2    0    0  0.18401468909E+00 -0.17344630785E+00  0.37634589220E+01  0.37719448677E+01  0.00000000000E+00 0.  1.
</event>
<event>
 5    1  0.3490044E+002  0.1535602E+01  0.7818608E-02  0.3426369E+00
         11   -1    0    0    0    0  0.00000000000E+00  0.00000000000E+00  0.39999999674E+01  0.40000000000E+01  0.51100000000E-03 0. -1.
    9000002   -1    0    0    0    0 -0.00000000000E+00 -0.00000000000E+00  0.00000000000E+00  0.93800000000E+00  0.93800000000E+00 0. -1.
         11    1    1    2    0    0  0.28376777913E+00  0.16192246231E+00  0.26710538006E+01  0.26909611114E+01  0.51100000000E-03 0. -1.
    9000002    1    1    2    0    0  0.41527772230E-03 -0.23310208190E+00  0.86355983313E-01  0.97038039391E+00  0.93800000000E+00 0. -1.
         22    1    1    2    0    0 -0.28418305685E+00  0.71179619587E-01  0.12425901835E+01  0.12766584947E+01  0.00000000000E+00 0. -1.
</event>
<event>
 5    1  0.3490044E+002  0.1597368E+01  0.7818608E-02  0.3356225E+00
         11   -1    0    0    0    0  0.00000000000E+00  0.00000000000E+00  0.39999999674E+01  0.40000000000E+01  0.51100000000E-03 0.  1.
    9000002   -1    0    0    0    0 -0.00000000000E+00 -0.00000000000E+00  0.00000000000E+00  0.93800000000E+00  0.93800000000E+00 0.  1.
         11    1    1    2    0    0 -0.31226165094E+00  0.36981542267E-01  0.20120813172E+01  0.20365034892E+01  0.51100000000E-03 0.  1.
    9000002    1    1    2    0    0  0.63749788429E+00  0.19146622910E-01  0.28860715817E+00  0.11704307914E+01  0.93800000000E+00 0.  1.
         22    1    1    2    0    0 -0.32523623335E+00 -0.56128165177E-01  0.16993114920E+01  0.17310657195E+01  0.00000000000E+00 0. -1.
</event>
<event>
 5    1  0.3490044E+002  0.1523716E+01  0.7818608E-02  0.3440562E+00
         11   -1    0    0    0    0  0.00000000000E+00  0.00000000000E+00  0.39999999674E+01  0.40000000000E+01  0.51100000000E-03 0.  1.
    9000002   -1    0    0    0    0 -0.00000000000E+00 -0.00000000000E+00  0.00000000000E+00  0.93800000000E+00  0.93800000000E+00 0.  1.
         11    1    1    2    0    0 -0.30332865137E+00 -0.21395160923E+00  0.14566351861E+01  0.15031865780E+01  0.51100000000E-03 0.  1.
    9000002    1    1    2    0    0  0.25048423485E+00 -0.80478795437E-01  0.10689099093E+00  0.98004534200E+00  0.93800000000E+00 0.  1.
         22    1    1    2    0    0  0.52844416515E-01  0.29443040467E+00  0.24364737904E+01  0.24547680800E+01  0.00000000000E+00 0.  1.
</event>
<event>
 5    1  0.3490044E+002  0.1599675E+01  0.7818608E-02  0.3353716E+00
         11   -1    0    0    0    0  0.00000000000E+00  0.00000000000E+00  0.39999999674E+01  0.40000000000E+01  0.51100000000E-03 0. -1.
    9000002   -1    0    0    0    0 -0.00000000000E+00 -0.00000000000E+00  0.00000000000E+00  0.93800000000E+00  0.93800000000E+00 0. -1.
         11    1    1    2    0    0 -0.20563673248E+00 -0.14449805758E+00  0.20115856469E+01  0.20272255006E+01  0.51100000000E-03 0. -1.
    9000002    1    1    2    0    0  0.39083766361E+00  0.27876669809E+00  0.15725409746E+00  0.10653815290E+01  0.93800000000E+00 0. -1.
         22    1    1    2    0    0 -0.18520093114E+00 -0.13426864051E+00  0.18311602230E+01  0.18453929704E+01  0.00000000000E+00 0. -1.
</event>
<event>
 5    1  0.3490044E+002  0.1599674E+01  0.7818608E-02  0.3353717E+00
         11   -1    0    0    0    0  0.00000000000E+00  0.00000000000E+00  0.39999999674E+01  0.40000000000E+01  0.51100000000E-03 0. -1.
    9000002   -1    0    0    0    0 -0.00000000000E+00 -0.00000000000E+00  0.00000000000E+00  0.93800000000E+00  0.93800000000E+00 0. -1.
         11    1    1    2    0    0 -0.80874108047E-01  0.97101337406E-01  0.10589528691E+01  0.10664664697E+01  0.51100000000E-03 0. -1.
    9000002    1    1    2    0    0  0.29498339465E+00 -0.34751677056E+00  0.14124768054E+00  0.10524153250E+01  0.93800000000E+00 0. -1.
         22    1    1    2    0    0 -0.21410928661E+00  0.25041543316E+00  0.27997994178E+01  0.28191182053E+01  0.00000000000E+00 0. -1.
</event>
<event>
 5    1  0.3490044E+002  0.1599645E+01  0.7818608E-02  0.3353749E+00
         11   -1    0    0    0    0  0.00000000000E+00  0.00000000000E+00  0.39999999674E+01  0.40000000000E+01  0.51100000000E-03 0. -1.
    9000002   -1    0    0    0    0 -0.00000000000E+00 -0.00000000000E+00  0.00000000000E+00  0.93800000000E+00  0.93800000000E+00 0.  1.
         11    1    1    2    0    0 -0.82798581814E-01  0.71986257642E-01  0.11315964124E+01  0.11369029546E+01  0.51100000000E-03 0. -1.
    9000002    1    1    2    0    0  0.26986539491E+00 -0.26285058673E+00  0.95476825119E-01  0.10153214203E+01  0.93800000000E+00 0.  1.
         22    1    1    2    0    0 -0.18706681309E+00  0.19086432909E+00  0.27729267298E+01  0.27857756252E+01  0.00000000000E+00 0. -1.
</event>
<event>
 5    1  0.3490044E+002  0.1599672E+01  0.7818608E-02  0.3353719E+00
         11   -1    0    0    0    0  0.00000000000E+00  0.00000000000E+00  0.39999999674E+01  0.40000000000E+01  0.51100000000E-03 0.  1.
    9000002   -1    0    0    0    0 -0.00000000000E+00 -0.00000000000E+00  0.00000000000E+00  0.93800000000E+00  0.93800000000E+00 0.  1.
         11    1    1    2    0    0 -0.23508228890E-01 -0.10523109033E+00  0.13213109357E+01  0.13257032357E+01  0.51100000000E-03 0.  1.
    9000002    1    1    2    0    0  0.62765671156E-01  0.31259005881E+00  0.67939961798E-01  0.99303167762E+00  0.93800000000E+00 0.  1.
         22    1    1    2    0    0 -0.39257442266E-01 -0.20735896848E+00  0.26107490699E+01  0.26192650867E+01  0.00000000000E+00 0.  1.
</event>
<event>
 5    1  0.3490044E+002  0.1592655E+01  0.7818608E-02  0.3361374E+00
         11   -1    0    0    0    0  0.00000000000E+00  0.00000000000E+00  0.39999999674E+01  0.40000000000E+01  0.51100000000E-03 0.  1.
    9000002   -1    0    0    0    0 -0.00000000000E+00 -0.00000000000E+00  0.00000000000E+00  0.93800000000E+00  0.93800000000E+00 0.  1.
         11    1    1    2    0    0  0.33151372218E-01  0.50720301224E-02  0.14074833651E+00  0.14468964828E+00  0.51100000000E-03 0.  1.
    9000002    1    1    2    0    0  0.65431315195E-01  0.19756438258E+00  0.33984383726E-01  0.96141140029E+00  0.93800000000E+00 0.  1.
         22    1    1    2    0    0 -0.98582687412E-01 -0.20263641270E+00  0.38252672471E+01  0.38318989514E+01  0.00000000000E+00 0.  1.
</event>
<event>
 5    1  0.3490044E+002  0.1595794E+01  0.7818608E-02  0.3357941E+00
         11   -1    0    0    0    0  0.00000000000E+00  0.00000000000E+00  0.39999999674E+01  0.40000000000E+01  0.51100000000E-03 0. -1.
    9000002   -1    0    0    0    0 -0.00000000000E+00 -0.00000000000E+00  0.00000000000E+00  0.93800000000E+00  0.93800000000E+00 0. -1.
         11    1    1    2    0    0 -0.70746829917E-02 -0.25500570309E-01  0.21752368427E+00  0.21912814645E+00  0.51100000000E-03 0. -1.
    9000002    1    1    2    0    0 -0.30586021602E+00  0.18329629966E-01  0.65726268035E-01  0.98896430137E+00  0.93800000000E+00 0. -1.
         22    1    1    2    0    0  0.31293489901E+00  0.71709403431E-02  0.37167500150E+01  0.37299075522E+01  0.00000000000E+00 0. -1.
</event>
<event>
 5    1  0.3490044E+002  0.1599512E+01  0.7818608E-02  0.3353893E+00
         11   -1    0    0    0    0  0.00000000000E+00  0.00000000000E+00  0.39999999674E+01  0.40000000000E+01  0.51100000000E-03 0.  1.
    9000002   -1    0    0    0    0 -0.00000000000E+00 -0.00000000000E+00  0.00000000000E+00  0.93800000000E+00  0.93800000000E+00 0. -1.
         11    1    1    2    0    0 -0.27252737739E-01  0.11924951186E-02  0.43398711603E+00  0.43484389356E+00  0.51100000000E-03 0.  1.
    9000002    1    1    2    0    0  0.21464163277E+00  0.70154748814E-01  0.33939145197E-01  0.96539555876E+00  0.93800000000E+00 0. -1.
         22    1    1    2    0    0 -0.18738889504E+00 -0.71347243932E-01  0.35320737061E+01  0.35377605477E+01  0.00000000000E+00 0.  1.
</event>
<event>
 5    1  0.3490044E+002  0.1599676E+01  0.7818608E-02  0.3353715E+00
         11   -1    0    0    0    0  0.00000000000E+00  0.00000000000E+00  0.39999999674E+01  0.40000000000E+01  0.51100000000E-03 0. -1.
    9000002   -1    0    0    0    0 -0.00000000000E+00 -0.00000000000E+00  0.00000000000E+00  0.93800000000E+00  0.93800000000E+00 0. -1.
         11    1    1    2    0    0  0.57345505770E-01 -0.21374557909E-01  0.36231225251E+00  0.36744497302E+00  0.51100000000E-03 0.  1.
    9000002    1    1    2    0    0 -0.59243735159E+00  0.21892241474E+00  0.28027570336E+00  0.11650354111E+01  0.93800000000E+00 0. -1.
         22    1    1    2    0    0  0.53509184582E+00 -0.19754785683E+00  0.33574120115E+01  0.34055196159E+01  0.00000000000E+00 0. -1.
</event>
<event>
 5    1  0.3490044E+002  0.1599614E+01  0.7818608E-02  0.3353783E+00
         11   -1    0    0    0    0  0.00000000000E+00  0.00000000000E+00  0.39999999674E+01  0.40000000000E+01  0.51100000000E-03 0. -1.
    9000002   -1    0    0    0    0 -0.00000000000E+00 -0.00000000000E+00  0.00000000000E+00  0.93800000000E+00  0.93800000000E+00 0.  1.
         11    1    1    2    0    0 -0.39471886605E+00  0.30974671870E+00  0.17632525065E+01  0.18332500309E+01  0.51100000000E-03 0. -1.
    9000002    1    1    2    0    0  0.72634454999E+00 -0.59054665784E+00  0.68196044728E+00  0.14903810962E+01  0.93800000000E+00 0.  1.
         22    1    1    2    0    0 -0.33162568394E+00  0.28079993915E+00  0.15547870136E+01  0.16143688728E+01  0.00000000000E+00 0.  1.
</event>
<event>
 5    1  0.3490044E+002  0.1599554E+01  0.7818608E-02  0.3353848E+00
         11   -1    0    0    0    0  0.00000000000E+00  0.00000000000E+00  0.39999999674E+01  0.40000000000E+01  0.51100000000E-03 0.  1.
    9000002   -1    0    0    0    0 -0.00000000000E+00 -0.00000000000E+00  0.00000000000E+00  0.93800000000E+00  0.93800000000E+00 0. -1.
         11    1    1    2    0    0 -0.10843014412E+00  0.96167948625E-01  0.17330804673E+01  0.17391301095E+01  0.51100000000E-03 0.  1.
    9000002    1    1    2    0    0  0.24576652054E+00 -0.24748319456E+00  0.81655223363E-01  0.10040720540E+01  0.93800000000E+00 0. -1.
         22    1    1    2    0    0 -0.13733637641E+00  0.15131524593E+00  0.21852642767E+01  0.21947978364E+01  0.00000000000E+00 0. -1.
</event>
<event>
 5    1  0.3490044E+002  0.1593068E+01  0.7818608E-02  0.3360922E+00
         11   -1    0    0    0    0  0.00000000000E+00  0.00000000000E+00  0.39999999674E+01  0.40000000000E+01  0.51100000000E-03 0.  1.
    9000002   -1    0    0    0    0 -0.00000000000E+00 -0.00000000000E+00  0.00000000000E+00  0.93800000000E+00  0.93800000000E+00 0.  1.
         11    1    1    2    0    0 -0.84729943529E-01 -0.47684442102E-01  0.89336597638E+00  0.89864119549E+00  0.51100000000E-03 0.  1.
    9000002    1    1    2    0    0  0.21008404052E+00 -0.11140043710E+00  0.42569936915E-01  0.96860805334E+00  0.93800000000E+00 0.  1.
         22    1    1    2    0    0 -0.12535409699E+00  0.15908487920E+00  0.30640640541E+01  0.30707507512E+01  0.00000000000E+00 0.  1.
</event>
<event>
 5    1  0.3490044E+002  0.1599664E+01  0.7818608E-02  0.3353729E+00
         11   -1    0    0    0    0  0.00000000000E+00  0.00000000000E+00  0.39999999674E+01  0.40000000000E+01  0.51100000000E-03 0. -1.
    9000002   -1    0    0    0    0 -0.00000000000E+00 -0.00000000000E+00  0.00000000000E+00  0.93800000000E+00  0.93800000000E+00 0. -1.
         11    1    1    2    0    0  0.96286813328E-01  0.44723072632E-01  0.10526487747E+01  0.10579891340E+01  0.51100000000E-03 0. -1.
    9000002    1    1    2    0    0 -0.37012232726E+00 -0.16305322937E+00  0.11041048842E+00  0.10274294957E+01  0.93800000000E+00 0. -1.
         22    1    1    2    0    0  0.27383551394E+00  0.11833015674E+00  0.28369407042E+01  0.28525813703E+01  0.00000000000E+00 0. -1.
</event>
<event>
 5    1  0.3490044E+002  0.1599677E+01  0.7818608E-02  0.3353714E+00
         11   -1    0    0    0    0  0.00000000000E+00  0.00000000000E+00  0.39999999674E+01  0.40000000000E+01  0.51100000000E-03 0. -1.
    9000002   -1    0    0    0    0 -0.00000000000E+00 -0.00000000000E+00  0.00000000000E+00  0.93800000000E+00  0.93800000000E+00 0. -1.
         11    1    1    2    0    0 -0.28569837297E+00 -0.40581431355E+00  0.23810819527E+01  0.24322541693E+01  0.51100000000E-03 0. -1.
    9000002    1    1    2    0    0  0.43149127413E+00  0.61302862008E+00  0.40736219159E+00  0.12679813736E+01  0.93800000000E+00 0. -1.
         22    1    1    2    0    0 -0.14579290116E+00 -0.20721430653E+00  0.12115558230E+01  0.12377644571E+01  0.00000000000E+00 0. -1.
</event>
<event>
 5    1  0.3490044E+002  0.1598738E+01  0.7818608E-02  0.3354735E+00
         11   -1    0    0    0    0  0.00000000000E+00  0.00000000000E+00  0.39999999674E+01  0.40000000000E+01  0.51100000000E-03 0. -1.
    9000002   -1    0    0    0    0 -0.00000000000E+00 -0.00000000000E+00  0.00000000000E+00  0.93800000000E+00  0.93800000000E+00 0. -1.
         11    1    1    2    0    0 -0.28840357773E-01  0.11862430920E+00  0.72629191235E+00  0.73648061484E+00  0.51100000000E-03 0. -1.
    9000002    1    1    2    0    0  0.67077179069E-01 -0.49689033259E+00  0.17298501817E+00  0.10775746689E+01  0.93800000000E+00 0. -1.
         22    1    1    2    0    0 -0.38236821296E-01  0.37826602340E+00  0.31007230368E+01  0.31239447162E+01  0.00000000000E+00 0. -1.
</event>
<event>
 5    1  0.3490044E+002  0.1599597E+01  0.7818608E-02  0.3353801E+00
         11   -1    0    0    0    0  0.00000000000E+00  0.00000000000E+00  0.39999999674E+01  0.40000000000E+01  0.51100000000E-03 0. -1.
    9000002   -1    0    0    0    0 -0.00000000000E+00 -0.00000000000E+00  0.00000000000E+00  0.93800000000E+00  0.93800000000E+00 0.  1.
         11    1    1    2    0    0  0.10742248874E-01 -0.38924532771E-02  0.13488590582E+00  0.13536992212E+00  0.51100000000E-03 0. -1.
    9000002    1    1    2    0    0 -0.22142129888E+00  0.50508731758E-01  0.34266462207E-01  0.96571047111E+00  0.93800000000E+00 0.  1.
         22    1    1    2    0    0  0.21067905001E+00 -0.46616278480E-01  0.38308475993E+01  0.38369196068E+01  0.00000000000E+00 0. -1.
</event>
<event>
 5    1  0.3490044E+002  0.1590821E+01  0.7818608E-02  0.3363387E+00
         11   -1    0    0    0    0  0.00000000000E+00  0.00000000000E+00  0.39999999674E+01  0.40000000000E+01  0.51100000000E-03 0.  1.
    9000002   -1    0    0    0    0 -0.00000000000E+00 -0.00000000000E+00  0.00000000000E+00  0.93800000000E+00  0.93800000000E+00 0. -1.
         11    1    1    2    0    0  0.15006828167E-01 -0.51218472550E-01  0.88200982364E+00  0.88362329470E+00  0.51100000000E-03 0.  1.
    9000002    1    1    2    0    0 -0.19575074044E+00 -0.17298935479E+00  0.52206550045E-01  0.97509650452E+00  0.93800000000E+00 0. -1.
         22    1    1    2    0    0  0.18074391228E+00  0.22420782734E+00  0.30657835937E+01  0.30792802008E+01  0.00000000000E+00 0. -1.
</event>
<event>
 5    1  0.3490044E+002  0.1599310E+01  0.7818608E-02  0.3354113E+00
         11   -1    0    0    0    0  0.00000000000E+00  0.00000000000E+00  0.39999999674E+01  0.40000000000E+01  0.51100000000E-03 0. -1.
    9000002   -1    0    0    0    0 -0.00000000000E+00 -0.00000000000E+00  0.00000000000E+00  0.93800000000E+00  0.93800000000E+00 0. -1.
         11    1    1    2    0    0 -0.24395630489E-01  0.11223695309E+00  0.10852919467E+01  0.10913528994E+01  0.51100000000E-03 0. -1.
    9000002    1    1    2    0    0  0.13956662759E-01 -0.39327696428E+00  0.10467549521E+00  0.10225764120E+01  0.93800000000E+00 0. -1.
         22    1    1    2    0    0  0.10438967730E-01  0.28104001119E+00  0.28100325255E+01  0.28240706886E+01  0.00000000000E+00 0. -1.
</event>
<event>
 5    1  0.3490044E+002  0.1599368E+01  0.7818608E-02  0.3354050E+00
         11   -1    0    0    0    0  0.00000000000E+00  0.00000000000E+00  0.39999999674E+01  0.40000000000E+01  0.51100000000E-03 0.  1.
    9000002   -1    0    0    0    0 -0.00000000000E+00 -0.00000000000E+00  0.00000000000E+00  0.93800000000E+00  0.93800000000E+00 0. -1.
         11    1    1    2    0    0 -0.23213008132E-02  0.53958891937E-02  0.24022387077E+00  0.24029621983E+00  0.51100000000E-03 0.  1.
    9000002    1    1    2    0    0 -0.77448847597E-01 -0.20894695585E+00  0.33155988763E-01  0.96467635710E+00  0.93800000000E+00 0. -1.
         22    1    1    2    0    0  0.79770148411E-01  0.20355106666E+00  0.37266201078E+01  0.37330274231E+01  0.00000000000E+00 0.  1.
</event>
<event>
 5    1  0.3490044E+002  0.1595913E+01  0.7818608E-02  0.3357811E+00
         11   -1    0    0    0    0  0.00000000000E+00  0.00000000000E+00  0.39999999674E+01  0.40000000000E+01  0.51100000000E-03 0. -1.
    9000002   -1    0    0    0    0 -0.00000000000E+00 -0.00000000000E+00  0.00000000000E+00  0.93800000000E+00  0.93800000000E+00 0.  1.
         11    1    1    2    0    0  0.20909025484E-01  0.14903845999E-01  0.23290979015E+00  0.23432145323E+00  0.51100000000E-03 0. -1.
    9000002    1    1    2    0    0  0.18739473012E-01  0.20334817010E+00  0.30444403447E-01  0.96045432366E+00  0.93800000000E+00 0.  1.
         22    1    1    2    0    0 -0.39648498495E-01 -0.21825201610E+00  0.37366457738E+01  0.37432242231E+01  0.00000000000E+00 0. -1.
</event>
<event>
 5    1  0.3490044E+002  0.1599462E+01  0.7818608E-02  0.3353947E+00
         11   -1    0    0    0    0  0.00000000000E+00  0.00000000000E+00  0.39999999674E+01  0.40000000000E+01  0.51100000000E-03 0.  1.
    9000002   -1    0    0    0    0 -0.00000000000E+00 -0.00000000000E+00  0.00000000000E+00  0.93800000000E+00  0.93800000000E+00 0.  1.
         11    1    1    2    0    0 -0.36128716463E-01 -0.53325057978E-01  0.70342423176E+00  0.70636729604E+00  0.51100000000E-03 0.  1.
    9000002    1    1    2    0    0  0.16355247531E+00  0.36097958813E+00  0.10606552776E+00  0.10237917617E+01  0.93800000000E+00 0.  1.
         22    1    1    2    0    0 -0.12742375885E+00 -0.30765453016E+00  0.31905102078E+01  0.32078409422E+01  0.00000000000E+00 0.  1.
</event>
<event>
 5    1  0.3490044E+002  0.1599635E+01  0.7818608E-02  0.3353760E+00
         11   -1    0    0    0    0  0.00000000000E+00  0.00000000000E+00  0.39999999674E+01  0.40000000000E+01  0.51100000000E-03 0.  1.
    9000002   -1    0    0    0    0 -0.00000000000E+00 -0.00000000000E+00  0.00000000000E+00  0.93800000000E+00  0.93800000000E+00 0.  1.
         11    1    1    2    0    0  0.38187403099E-01  0.63738253178E-01  0.94666920885E+00  0.94958079950E+00  0.51100000000E-03 0.  1.
    9000002    1    1    2    0    0 -0.13246888837E+00 -0.25774879175E+00  0.56006140308E-01  0.98334283634E+00  0.93800000000E+00 0.  1.
         22    1    1    2    0    0  0.94281485266E-01  0.19401053857E+00  0.29973246182E+01  0.30050763642E+01  0.00000000000E+00 0.  1.
</event>
<event>
 5    1  0.3490044E+002  0.1551325E+01  0.7818608E-02  0.3407949E+00
         11   -1    0    0    0    0  0.00000000000E+00  0.00000000000E+00  0.39999999674E+01  0.40000000000E+01  0.51100000000E-03 0.  1.
    9000002   -1    0    0    0    0 -0.00000000000E+00 -0.00000000000E+00  0.00000000000E+00  0.93800000000E+00  0.93800000000E+00 0.  1.
         11    1    1    2    0    0  0.14098000580E-01 -0.19218107844E+00  0.11700550820E+01  0.11858167972E+01  0.51100000000E-03 0.  1.
    9000002    1    1    2    0    0 -0.33182072144E+00 -0.11587160179E+00  0.12289277770E+00  0.10091966380E+01  0.93800000000E+00 0.  1.
         22    1    1    2    0    0  0.31772272086E+00  0.30805268023E+00  0.27070521076E+01  0.27429865648E+01  0.00000000000E+00 0.  1.
</event>
<event>
 5    1  0.3490044E+002  0.1596504E+01  0.7818608E-02  0.3357167E+00
         11   -1    0    0    0    0  0.00000000000E+00  0.00000000000E+00  0.39999999674E+01  0.40000000000E+01  0.51100000000E-03 0. -1.
    9000002   -1    0    0    0    0 -0.00000000000E+00 -0.00000000000E+00  0.00000000000E+00  0.93800000000E+00  0.93800000000E+00 0. -1.
         11    1    1    2    0    0 -0.32668739918E-01 -0.81287876960E-01  0.57535680053E+00  0.58198855190E+00  0.51100000000E-03 0. -1.
    9000002    1    1    2    0    0 -0.86728239222E-01  0.43793373996E+00  0.13803398295E+00  0.10479528274E+01  0.93800000000E+00 0. -1.
         22    1    1    2    0    0  0.11939697914E+00 -0.35664586300E+00  0.32866091839E+01  0.33080586207E+01  0.00000000000E+00 0. -1.
</event>
<event>
 5    1  0.3490044E+002  0.1599675E+01  0.7818608E-02  0.3353716E+00
         11   -1    0    0    0    0  0.00000000000E+00  0.00000000000E+00  0.39999999674E+01  0.40000000000E+01  0.51100000000E-03 0. -1.
    9000002   -1    0    0    0    0 -0.00000000000E+00 -0.00000000000E+00  0.00000000000E+00  0.93800000000E+00  0.93800000000E+00 0.  1.
         11    1    1    2    0    0  0.13853162093E-01  0.15542170318E-01  0.25816227376E+00  0.25900094570E+00  0.51100000000E-03 0. -1.
    9000002    1    1    2    0    0 -0.22172301775E+00 -0.23962939331E+00  0.71288599595E-01  0.99574565386E+00  0.93800000000E+00 0.  1.
         22    1    1    2    0    0  0.20786985566E+00  0.22408722300E+00  0.36705490940E+01  0.36832534004E+01  0.00000000000E+00 0. -1.
</event>
<event>
 5    1  0.3490044E+002  0.1599677E+01  0.7818608E-02  0.3353714E+00
         11   -1    0    0    0    0  0.00000000000E+00  0.00000000000E+00  0.39999999674E+01  0.40000000000E+01  0.51100000000E-03 0.  1.
    9000002   -1    0    0    0    0 -0.00000000000E+00 -0.00000000000E+00  0.00000000000E+00  0.93800000000E+00  0.93800000000E+00 0.  1.
         11    1    1    2    0    0  0.88859984436E-01 -0.24176191506E-01  0.86198143552E+00  0.86688686769E+00  0.51100000000E-03 0.  1.
    9000002    1    1    2    0    0 -0.40113339704E+00  0.11024860011E+00  0.11698016787E+00  0.10327589824E+01  0.93800000000E+00 0.  1.
         22    1    1    2    0    0  0.31227341260E+00 -0.86072408605E-01  0.30210383640E+01  0.30383541499E+01  0.00000000000E+00 0.  1.
</event>
<event>
 5    1  0.3490044E+002  0.1599398E+01  0.7818608E-02  0.3354018E+00
         11   -1    0    0    0    0  0.00000000000E+00  0.00000000000E+00  0.39999999674E+01  0.40000000000E+01  0.51100000000E-03 0.  1.
    9000002   -1    0    0    0    0 -0.00000000000E+00 -0.00000000000E+00  0.00000000000E+00  0.93800000000E+00  0.93800000000E+00 0.  1.
         11    1    1    2    0    0  0.76348862247E-01  0.14305612806E+00  0.11565204253E+01  0.11678330188E+01  0.51100000000E-03 0.  1.
    9000002    1    1    2    0    0 -0.20669869782E+00 -0.51122740494E+00  0.21034819884E+00  0.11082274929E+01  0.93800000000E+00 0.  1.
         22    1    1    2    0    0  0.13034983558E+00  0.36817127688E+00  0.26331313432E+01  0.26619394883E+01  0.00000000000E+00 0.  1.
</event>
<event>
 5    1  0.3490044E+002  0.1598428E+01  0.7818608E-02  0.3355071E+00
         11   -1    0    0    0    0  0.00000000000E+00  0.00000000000E+00  0.39999999674E+01  0.40000000000E+01  0.51100000000E-03 0.  1.
    9000002   -1    0    0    0    0 -0.00000000000E+00 -0.00000000000E+00  0.00000000000E+00  0.93800000000E+00  0.93800000000E+00 0.  1.
         11    1    1    2    0    0 -0.10150263667E-01  0.71424598933E-01  0.14108426228E+01  0.14126859767E+01  0.51100000000E-03 0.  1.
    9000002    1    1    2    0    0  0.71126044830E-01 -0.30481522347E+00  0.66423897410E-01  0.99107384632E+00  0.93800000000E+00 0.  1.
         22    1    1    2    0    0 -0.60975781162E-01  0.23339062454E+00  0.25227334471E+01  0.25342401770E+01  0.00000000000E+00 0.  1.
</event>
<event>
 5    1  0.3490044E+002  0.1594853E+01  0.7818608E-02  0.3358969E+00
         11   -1    0    0    0    0  0.00000000000E+00  0.00000000000E+00  0.39999999674E+01  0.40000000000E+01  0.51100000000E-03 0. -1.
    9000002   -1    0    0    0    0 -0.00000000000E+00 -0.00000000000E+00  0.00000000000E+00  0.93800000000E+00  0.93800000000E+00 0. -1.
         11    1    1    2    0    0 -0.43513149722E-01  0.12556052987E-02  0.17418594841E+00  0.17954380103E+00  0.51100000000E-03 0. -1.
    9000002    1    1    2    0    0  0.21518631590E+00  0.11592170007E+00  0.43356487347E-01  0.97029210864E+00  0.93800000000E+00 0. -1.
         22    1    1    2    0    0 -0.17167316618E+00 -0.11717730537E+00  0.37824575316E+01  0.37881640903E+01  0.00000000000E+00 0. -1.
</event>
<event>
 5    1  0.3490044E+002  0.1599668E+01  0.7818608E-02  0.3353723E+00
         11   -1    0    0    0    0  0.00000000000E+00  0.00000000000E+00  0.39999999674E+01  0.40000000000E+01  0.51100000000E-03 0.  1.
    9000002   -1    0    0    0    0 -0.00000000000E+00 -0.00000000000E+00  0.00000000000E+00  0.93800000000E+00  0.93800000000E+00 0. -1.
         11    1    1    2    0    0  0.76942528061E-02 -0.19571216013E-01  0.34360774363E+00  0.34425103722E+00  0.51100000000E-03 0. -1.
    9000002    1    1    2    0    0 -0.66811405340E-01  0.22215316136E+00  0.35708333757E-01  0.96692030493E+00  0.93800000000E+00 0. -1.
         22    1    1    2    0    0  0.59117152534E-01 -0.20258194535E+00  0.36206838900E+01  0.36268286578E+01  0.00000000000E+00 0.  1.
</event>
<event>
 5    1  0.3490044E+002  0.1598635E+01  0.7818608E-02  0.3354846E+00
         11   -1    0    0    0    0  0.00000000000E+00  0.00000000000E+00  0.39999999674E+01  0.40000000000E+01  0.51100000000E-03 0. -1.
    9000002   -1    0    0    0    0 -0.00000000000E+00 -0.00000000000E+00  0.00000000000E+00  0.93800000000E+00  0.93800000000E+00 0. -1.
         11    1    1    2    0    0 -0.58648787853E-02  0.10600067091E-01  0.63467240843E+00  0.63478822088E+00  0.51100000000E-03 0. -1.
    9000002    1    1    2    0    0  0.19419436788E+00 -0.14871790087E+00  0.40521986441E-01  0.97021363521E+00  0.93800000000E+00 0. -1.
         22    1    1    2    0    0 -0.18832948910E+00  0.13811783378E+00  0.33248055725E+01  0.33329981439E+01  0.00000000000E+00 0. -1.
</event>
<event>
 5    1  0.3490044E+002  0.1599517E+01  0.7818608E-02  0.3353888E+00
         11   -1    0    0    0    0  0.00000000000E+00  0.00000000000E+00  0.39999999674E+01  0.40000000000E+01  0.51100000000E-03 0.  1.
    9000002   -1    0    0    0    0 -0.00000000000E+00 -0.00000000000E+00  0.00000000000E+00  0.93800000000E+00  0.93800000000E+00 0.  1.
         11    1    1    2    0    0 -0.27319379163E+00  0.13866388033E+00  0.16914058978E+01  0.17189289374E+01  0.51100000000E-03 0.  1.
    9000002    1    1    2    0    0  0.56790816162E+00 -0.29281599826E+00  0.28750204414E+00  0.11707955903E+01  0.93800000000E+00 0.  1.
         22    1    1    2    0    0 -0.29471436999E+00  0.15415211793E+00  0.20210920254E+01  0.20482754723E+01  0.00000000000E+00 0. -1.
</event>
<event>
 5    1  0.3490044E+002  0.1597981E+01  0.7818608E-02  0.3355557E+00
         11   -1    0    0    0    0  0.00000000000E+00  0.00000000000E+00  0.39999999674E+01  0.40000000000E+01  0.51100000000E-03 0.  1.
    9000002   -1    0    0    0    0 -0.00000000000E+00 -0.00000000000E+00  0.00000000000E+00  0.93800000000E+00  0.93800000000E+00 0. -1.
         11    1    1    2    0    0 -0.56688155493E-01 -0.39883185662E-01  0.11738037572E+01  0.11758485179E+01  0.51100000000E-03 0.  1.
    9000002    1    1    2    0    0  0.33190285702E+00  0.18171735065E+00  0.97710604895E-01  0.10161555316E+01  0.93800000000E+00 0. -1.
         22    1    1    2    0    0 -0.27521470153E+00 -0.14183416499E+00  0.27284856053E+01  0.27459959506E+01  0.00000000000E+00 0. -1.
</event>
<event>
 5    1  0.3490044E+002  0.1599658E+01  0.7818608E-02  0.3353735E+00
         11   -1    0    0    0    0  0.00000000000E+00  0.00000000000E+00  0.39999999674E+01  0.40000000000E+01  0.51100000000E-03 0.  1.
    9000002   -1    0    0    0    0 -0.00000000000E+00 -0.00000000000E+00  0.00000000000E+00  0.93800000000E+00  0.93800000000E+00 0. -1.
         11    1    1    2    0    0 -0.39452530109E-01 -0.58459328488E-01  0.99302052882E+00  0.99552198720E+00  0.51100000000E-03 0.  1.
    9000002    1    1    2    0    0  0.16879532418E+00  0.21884410534E+00  0.50864647327E-01  0.97919140941E+00  0.93800000000E+00 0. -1.
         22    1    1    2    0    0 -0.12934279407E+00 -0.16038477685E+00  0.29561147912E+01  0.29632866034E+01  0.00000000000E+00 0.  1.
</event>
<event>
 5    1  0.3490044E+002  0.1589038E+01  0.7818608E-02  0.3365348E+00
         11   -1    0    0    0    0  0.00000000000E+00  0.00000000000E+00  0.39999999674E+01  0.40000000000E+01  0.51100000000E-03 0. -1.
    9000002   -1    0    0    0    0 -0.00000000000E+00 -0.00000000000E+00  0.00000000000E+00  0.93800000000E+00  0.93800000000E+00 0. -1.
         11    1    1    2    0    0  0.35180621010E-01  0.94086044113E-01  0.15967605596E+01  0.15999169996E+01  0.51100000000E-03 0. -1.
    9000002    1    1    2    0    0 -0.26706634024E+00  0.88383077205E-02  0.55735655950E-01  0.97690992887E+00  0.93800000000E+00 0. -1.
         22    1    1    2    0    0  0.23188571923E+00 -0.10292435183E+00  0.23475037518E+01  0.23611730716E+01  0.00000000000E+00 0. -1.
</event>
<event>
 5    1  0.3490044E+002  0.1599675E+01  0.7818608E-02  0.3353716E+00
         11   -1    0    0    0    0  0.00000000000E+00  0.00000000000E+00  0.39999999674E+01  0.40000000000E+01  0.51100000000E-03 0.  1.
    9000002   -1    0    0    0    0 -0.00000000000E+00 -0.00000000000E+00  0.00000000000E+00  0.93800000000E+00  0.93800000000E+00 0. -1.
         11    1    1    2    0    0 -0.19830048888E+00 -0.20220096953E+00  0.20934222002E+01  0.21124926238E+01  0.51100000000E-03 0.  1.
    9000002    1    1    2    0    0  0.36433777146E+00  0.36849338994E+00  0.18440050424E+00  0.10873715722E+01  0.93800000000E+00 0. -1.
         22    1    1    2    0    0 -0.16603728258E+00 -0.16629242041E+00  0.17221772629E+01  0.17381358040E+01  0.00000000000E+00 0.  1.
</event>
<event>
 5    1  0.3490044E+002  0.1534677E+01  0.7818608E-02  0.3427464E+00
         11   -1    0    0    0    0  0.00000000000E+00  0.00000000000E+00  0.39999999674E+01  0.40000000000E+01  0.51100000000E-03 0.  1.
    9000002   -1    0    0    0    0 -0.00000000000E+00 -0.00000000000E+00  0.00000000000E+00  0.93800000000E+00  0.93800000000E+00 0.  1.
         11    1    1    2    0    0  0.20315741461E-01  0.22529264102E+00  0.87066651953E+00  0.89957209427E+00  0.51100000000E-03 0.  1.
    9000002    1    1    2    0    0 -0.21151052813E+00  0.13078415408E+00  0.92483197660E-01  0.97480169282E+00  0.93800000000E+00 0.  1.
         22    1    1    2    0    0  0.19119478667E+00 -0.35607679510E+00  0.30368502502E+01  0.30636262129E+01  0.00000000000E+00 0.  1.
</event>
<event>
 5    1  0.3490044E+002  0.1599672E+01  0.7818608E-02  0.3353720E+00
         11   -1    0    0    0    0  0.00000000000E+00  0.00000000000E+00  0.39999999674E+01  0.40000000000E+01  0.51100000000E-03 0.  1.
    9000002   -1    0    0    0    0 -0.00000000000E+00 -0.00000000000E+00  0.00000000000E+00  0.93800000000E+00  0.93800000000E+00 0. -1.
         11    1    1    2    0    0  0.55569300263E-01  0.57721354973E-01  0.92271665255E+00  0.92618895695E+00  0.51100000000E-03 0.  1.
    9000002    1    1    2    0    0 -0.22815629667E+00 -0.23996053423E+00  0.73368233130E-01  0.99742831889E+00  0.93800000000E+00 0. -1.
         22    1    1    2    0    0  0.17258699641E+00  0.18223917926E+00  0.30039150817E+01  0.30143827242E+01  0.00000000000E+00 0.  1.
</event>
<event>
 5    1  0.3490044E+002  0.1542655E+01  0.7818608E-02  0.3418056E+00
         11   -1    0    0    0    0  0.00000000000E+00  0.00000000000E+00  0.39999999674E+01  0.40000000000E+01  0.51100000000E-03 0.  1.
    9000002   -1    0    0    0    0 -0.00000000000E+00 -0.00000000000E+00  0.00000000000E+00  0.93800000000E+00  0.93800000000E+00 0.  1.
         11    1    1    2    0    0  0.18459284545E-01  0.27239602408E+00  0.90761434255E+00  0.94778921446E+00  0.51100000000E-03 0.  1.
    9000002    1    1    2    0    0  0.25529670760E+00 -0.17394043441E+00  0.10999810570E+00  0.99366758370E+00  0.93800000000E+00 0.  1.
         22    1    1    2    0    0 -0.27375599215E+00 -0.98455589672E-01  0.29823875191E+01  0.29965432018E+01  0.00000000000E+00 0. -1.
</event>
<event>
 5    1  0.3490044E+002  0.1599676E+01  0.7818608E-02  0.3353715E+00
         11   -1    0    0    0    0  0.00000000000E+00  0.00000000000E+00  0.39999999674E+01  0.40000000000E+01  0.51100000000E-03 0. -1.
    9000002   -1    0    0    0    0 -0.00000000000E+00 -0.00000000000E+00  0.00000000000E+00  0.93800000000E+00  0.93800000000E+00 0.  1.
         11    1    1    2    0    0 -0.90331240309E-01 -0.34693477107E-01  0.99151988935E+00  0.99623055686E+00  0.51100000000E-03 0. -1.
    9000002    1    1    2    0    0  0.35863545967E+00  0.13932179157E+00  0.99659102129E-01  0.10187275844E+01  0.93800000000E+00 0.  1.
         22    1    1    2    0    0 -0.26830421936E+00 -0.10462831447E+00  0.29088209759E+01  0.29230418588E+01  0.00000000000E+00 0. -1.
</event>
<event>
 5    1  0.3490044E+002  0.1598962E+01  0.7818608E-02  0.3354491E+00
         11   -1    0    0    0    0  0.00000000000E+00  0.00000000000E+00  0.39999999674E+01  0.40000000000E+01  0.51100000000E-03 0. -1.
    9000002   -1    0    0    0    0 -0.00000000000E+00 -0.00000000000E+00  0.00000000000E+00  0.93800000000E+00  0.93800000000E+00 0. -1.
         11    1    1    2    0    0 -0.55275441861E-01  0.22760412287E+00  0.12522672233E+01  0.12739829163E+01  0.51100000000E-03 0. -1.
    9000002    1    1    2    0    0  0.23921971039E+00 -0.69536436174E+00  0.39115552942E+00  0.12544338618E+01  0.93800000000E+00 0. -1.
         22    1    1    2    0    0 -0.18394426853E+00  0.46776023887E+00  0.23565772146E+01  0.24095832219E+01  0.00000000000E+00 0. -1.
</event>
<event>
 5    1  0.3490044E+002  0.1569118E+01  0.7818608E-02  0.3387579E+00
         11   -1    0    0    0    0  0.00000000000E+00  0.00000000000E+00  0.39999999674E+01  0.40000000000E+01  0.51100000000E-03 0.  1.
    9000002   -1    0    0    0    0 -0.00000000000E+00 -0.00000000000E+00  0.00000000000E+00  0.93800000000E+00  0.93800000000E+00 0.  1.
         11    1    1    2    0    0  0.55253387919E-01  0.11632968570E+00  0.29407684529E+01  0.29435870783E+01  0.51100000000E-03 0.  1.
    9000002    1    1    2    0    0 -0.55208785328E-01  0.91844520747E-01  0.30251329148E-01  0.94458592456E+00  0.93800000000E+00 0.  1.
         22    1    1    2    0    0 -0.44602590247E-04 -0.20817420645E+00  0.10289801853E+01  0.10498269972E+01  0.00000000000E+00 0. -1.
</event>
<event>
 5    1  0.3490044E+002  0.1599568E+01  0.7818608E-02  0.3353832E+00
         11   -1    0    0    0    0  0.00000000000E+00  0.00000000000E+00  0.39999999674E+01  0.40000000000E+01  0.51100000000E-03 0.  1.
    9000002   -1    0    0    0    0 -0.00000000000E+00 -0.00000000000E+00  0.00000000000E+00  0.93800000000E+00  0.93800000000E+00 0. -1.
         11    1    1    2    0    0 -0.34767767417E+00  0.13533806238E+00  0.20094226190E+01  0.20437650744E+01  0.51100000000E-03 0.  1.
    9000002    1    1    2    0    0  0.61735531742E+00 -0.25995117688E+00  0.31829019280E+00  0.11957653821E+01  0.93800000000E+00 0. -1.
         22    1    1    2    0    0 -0.26967764325E+00  0.12461311451E+00  0.16722871555E+01  0.16984695435E+01  0.00000000000E+00 0.  1.
</event>
<event>
 5    1  0.3490044E+002  0.1599661E+01  0.7818608E-02  0.3353731E+00
         11   -1    0    0    0    0  0.00000000000E+00  0.00000000000E+00  0.39999999674E+01  0.40000000000E+01  0.51100000000E-03 0. -1.
    9000002   -1    0    0    0    0 -0.00000000000E+00 -0.00000000000E+00  0.00000000000E+00  0.93800000000E+00  0.93800000000E+00 0. -1.
         11    1    1    2    0    0 -0.35104100507E+00  0.25544594398E+00  0.23653053045E+01  0.24048184676E+01  0.51100000000E-03 0. -1.
    9000002    1    1    2    0    0  0.54718321577E+00 -0.39026456825E+00  0.32050824009E+00  0.11976165650E+01  0.93800000000E+00 0. -1.
         22    1    1    2    0    0 -0.19614221070E+00  0.13481862427E+00  0.13141864228E+01  0.13355649674E+01  0.00000000000E+00 0. -1.
</event>
<event>
 5    1  0.3490044E+002  0.1597570E+01  0.7818608E-02  0.3356005E+00
         11   -1    0    0    0    0  0.00000000000E+00  0.00000000000E+00  0.39999999674E+01  0.40000000000E+01  0.51100000000E-03 0.  1.
    9000002   -1    0    0    0    0 -0.00000000000E+00 -0.00000000000E+00  0.00000000000E+00  0.93800000000E+00  0.93800000000E+00 0.  1.
         11    1    1    2    0    0 -0.31713112363E-02  0.29020488829E-01  0.14306957333E+00  0.14601852595E+00  0.51100000000E-03 0.  1.
    9000002    1    1    2    0    0 -0.21919591657E+00 -0.31111665015E+00  0.99193240354E-01  0.10171153911E+01  0.93800000000E+00 0.  1.
         22    1    1    2    0    0  0.22236722781E+00  0.28209616132E+00  0.37577371537E+01  0.37748660830E+01  0.00000000000E+00 0.  1.
</event>
<event>
 5    1  0.3490044E+002  0.1599677E+01  0.7818608E-02  0.3353714E+00
         11   -1    0    0    0    0  0.00000000000E+00  0.00000000000E+00  0.39999999674E+01  0.40000000000E+01  0.51100000000E-03 0. -1.
    9000002   -1    0    0    0    0 -0.00000000000E+00 -0.00000000000E+00  0.00000000000E+00  0.93800000000E+00  0.93800000000E+00 0. -1.
         11    1    1    2    0    0  0.42017382269E+00 -0.22956549021E+00  0.23083917130E+01  0.23575238954E+01  0.51100000000E-03 0. -1.
    9000002    1    1    2    0    0 -0.65450857478E+00  0.35710486179E+00  0.40246086270E+00  0.12640111166E+01  0.93800000000E+00 0. -1.
         22    1    1    2    0    0  0.23433475209E+00 -0.12753937158E+00  0.12891473916E+01  0.13164649880E+01  0.00000000000E+00 0.  1.
</event>
<event>
 5    1  0.3490044E+002  0.1599602E+01  0.7818608E-02  0.3353795E+00
         11   -1    0    0    0    0  0.00000000000E+00  0.00000000000E+00  0.39999999674E+01  0.40000000000E+01  0.51100000000E-03 0.  1.
    9000002   -1    0    0    0    0 -0.00000000000E+00 -0.00000000000E+00  0.00000000000E+00  0.93800000000E+00  0.93800000000E+00 0.  1.
         11    1    1    2    0    0  0.67766242231E-02 -0.55445863845E-01  0.79895244599E+00  0.80090288957E+00  0.51100000000E-03 0.  1.
    9000002    1    1    2    0    0  0.70922598425E-02  0.26668976352E+00  0.47400575497E-01  0.97635267433E+00  0.93800000000E+00 0.  1.
         22    1    1    2    0    0 -0.13868884066E-01 -0.21124389967E+00  0.31536469459E+01  0.31607444361E+01  0.00000000000E+00 0.  1.
</event>
<event>
 5    1  0.3490044E+002  0.1599650E+01  0.7818608E-02  0.3353743E+00
         11   -1    0    0    0    0  0.00000000000E+00  0.00000000000E+00  0.39999999674E+01  0.40000000000E+01  0.51100000000E-03 0. -1.
    9000002   -1    0    0    0    0 -0.00000000000E+00 -0.00000000000E+00  0.00000000000E+00  0.93800000000E+00  0.93800000000E+00 0. -1.
         11    1    1    2    0    0 -0.32638467879E-01  0.14355408490E+00  0.13344120687E+01  0.13425084264E+01  0.51100000000E-03 0. -1.
    9000002    1    1    2    0    0  0.11197405212E+00 -0.41577484161E+00  0.12559766432E+00  0.10397238482E+01  0.93800000000E+00 0. -1.
         22    1    1    2    0    0 -0.79335584241E-01  0.27222075670E+00  0.25399902344E+01  0.25557677254E+01  0.00000000000E+00 0. -1.
</event>
<event>
 5    1  0.3490044E+002  0.1598079E+01  0.7818608E-02  0.3355451E+00
         11   -1    0    0    0    0  0.00000000000E+00  0.00000000000E+00  0.39999999674E+01  0.40000000000E+01  0.51100000000E-03 0.  1.
    9000002   -1    0    0    0    0 -0.00000000000E+00 -0.00000000000E+00  0.00000000000E+00  0.93800000000E+00  0.93800000000E+00 0.  1.
         11    1    1    2    0    0 -0.19409284029E-01  0.56979357135E-02  0.73617919813E-01  0.76348189346E-01  0.51100000000E-03 0.  1.
    9000002    1    1    2    0    0  0.31904985504E+00 -0.36472067419E+00  0.16175659374E+00  0.10680932430E+01  0.93800000000E+00 0.  1.
         22    1    1    2    0    0 -0.29964057101E+00  0.35902273847E+00  0.37646254538E+01  0.37935585676E+01  0.00000000000E+00 0.  1.
</event>
<event>
 5    1  0.3490044E+002  0.1599096E+01  0.7818608E-02  0.3354345E+00
         11   -1    0    0    0    0  0.00000000000E+00  0.00000000000E+00  0.39999999674E+01  0.40000000000E+01  0.51100000000E-03 0. -1.
    9000002   -1    0    0    0    0 -0.00000000000E+00 -0.00000000000E+00  0.00000000000E+00  0.93800000000E+00  0.93800000000E+00 0. -1.
         11    1    1    2    0    0 -0.40715147565E-01  0.71410116691E-02  0.41528315484E+00  0.41733568875E+00  0.51100000000E-03 0. -1.
    9000002    1    1    2    0    0  0.24526361966E+00  0.23561608508E-01  0.40760900629E-01  0.97067751779E+00  0.93800000000E+00 0. -1.
         22    1    1    2    0    0 -0.20454847209E+00 -0.30702620177E-01  0.35439559119E+01  0.35499867935E+01  0.00000000000E+00 0. -1.
</event>
<event>
 5    1  0.3490044E+002  0.1591384E+01  0.7818608E-02  0.3362768E+00
         11   -1    0    0    0    0  0.00000000000E+00  0.00000000000E+00  0.39999999674E+01  0.40000000000E+01  0.51100000000E-03 0. -1.
    9000002   -1    0    0    0    0 -0.00000000000E+00 -0.00000000000E+00  0.00000000000E+00  0.93800000000E+00  0.93800000000E+00 0. -1.
         11    1    1    2    0    0 -0.16607062523E-01 -0.31505192214E+00  0.13596189776E+01  0.13957426459E+01  0.51100000000E-03 0. -1.
    9000002    1    1    2    0    0  0.60704736650E-01  0.57612894728E+00  0.24125437706E+00  0.11285642664E+01  0.93800000000E+00 0. -1.
         22    1    1    2    0    0 -0.44097674127E-01 -0.26107702514E+00  0.23991266127E+01  0.24136930877E+01  0.00000000000E+00 0. -1.
</event>
<event>
 5    1  0.3490044E+002  0.1597612E+01  0.7818608E-02  0.3355959E+00
         11   -1    0    0    0    0  0.00000000000E+00  0.00000000000E+00  0.39999999674E+01  0.40000000000E+01  0.51100000000E-03 0.  1.
    9000002   -1    0    0    0    0 -0.00000000000E+00 -0.00000000000E+00  0.00000000000E+00  0.93800000000E+00  0.93800000000E+00 0.  1.
         11    1    1    2    0    0  0.75561027027E-02  0.10699597648E-01  0.23549547667E+00  0.23586003632E+00  0.51100000000E-03 0.  1.
    9000002    1    1    2    0    0  0.48135285739E-01  0.21807717613E+00  0.34629932746E-01  0.96484086394E+00  0.93800000000E+00 0.  1.
         22    1    1    2    0    0 -0.55691388442E-01 -0.22877677378E+00  0.37298745579E+01  0.37372990997E+01  0.00000000000E+00 0.  1.
</event>
<event>
 5    1  0.3490044E+002  0.1599674E+01  0.7818608E-02  0.3353717E+00
         11   -1    0    0    0    0  0.00000000000E+00  0.00000000000E+00  0.39999999674E+01  0.40000000000E+01  0.51100000000E-03 0.  1.
    9000002   -1    0    0    0    0 -0.00000000000E+00 -0.00000000000E+00  0.00000000000E+00  0.93800000000E+00  0.93800000000E+00 0.  1.
         11    1    1    2    0    0 -0.11870621100E-01 -0.20981036896E-01  0.37857641249E+00  0.37934348125E+00  0.51100000000E-03 0.  1.
    9000002    1    1    2    0    0  0.13125660563E+00  0.20971824527E+00  0.40655478038E-01  0.97093094853E+00  0.93800000000E+00 0.  1.
         22    1    1    2    0    0 -0.11938598453E+00 -0.18873720837E+00  0.35807680768E+01  0.35877255702E+01  0.00000000000E+00 0.  1.
</event>
<event>
 5    1  0.3490044E+002  0.1599391E+01  0.7818608E-02  0.3354025E+00
         11   -1    0    0    0    0  0.00000000000E+00  0.00000000000E+00  0.39999999674E+01  0.40000000000E+01  0.51100000000E-03 0. -1.
    9000002   -1    0    0    0    0 -0.00000000000E+00 -0.00000000000E+00  0.00000000000E+00  0.93800000000E+00  0.93800000000E+00 0.  1.
         11    1    1    2    0    0  0.64139951460E-01  0.13077523527E+00  0.14006822652E+01  0.14082354792E+01  0.51100000000E-03 0. -1.
    9000002    1    1    2    0    0 -0.16120132789E+00 -0.31393405999E+00  0.83763442371E-01  0.10056842330E+01  0.93800000000E+00 0.  1.
         22    1    1    2    0    0  0.97061376427E-01  0.18315882472E+00  0.25155542597E+01  0.25240802879E+01  0.00000000000E+00 0. -1.
</event>
<event>
 5    1  0.3490044E+002  0.1591643E+01  0.7818608E-02  0.3362485E+00
         11   -1    0    0    0    0  0.00000000000E+00  0.00000000000E+00  0.39999999674E+01  0.40000000000E+01  0.51100000000E-03 0.  1.
    9000002   -1    0    0    0    0 -0.00000000000E+00 -0.00000000000E+00  0.00000000000E+00  0.93800000000E+00  0.93800000000E+00 0. -1.
         11    1    1    2    0    0 -0.67932744095E-01 -0.23036009411E+00  0.19891137510E+01  0.20035604324E+01  0.51100000000E-03 0.  1.
    9000002    1    1    2    0    0 -0.60574097365E-01  0.52035055819E+00  0.19607573332E+00  0.10921188662E+01  0.93800000000E+00 0. -1.
         22    1    1    2    0    0  0.12850684146E+00 -0.28999046408E+00  0.18148104830E+01  0.18423207014E+01  0.00000000000E+00 0. -1.
</event>
<event>
 5    1  0.3490044E+002  0.1599673E+01  0.7818608E-02  0.3353718E+00
         11   -1    0    0    0    0  0.00000000000E+00  0.00000000000E+00  0.39999999674E+01  0.40000000000E+01  0.51100000000E-03 0.  1.
    9000002   -1    0    0    0    0 -0.00000000000E+00 -0.00000000000E+00  0.00000000000E+00  0.93800000000E+00  0.93800000000E+00 0. -1.
         11    1    1    2    0    0 -0.32020004367E-01  0.13227593266E-01  0.37872389447E+00  0.38030553410E+00  0.51100000000E-03 0.  1.
    9000002    1    1    2    0    0  0.32580364547E+00 -0.12385009543E+00  0.81448429743E-01  0.10039744560E+01  0.93800000000E+00 0. -1.
         22    1    1    2    0    0 -0.29378364110E+00  0.11062250216E+00  0.35398276431E+01  0.35537200099E+01  0.00000000000E+00 0.  1.
</event>
<event>
 5    1  0.3490044E+002  0.1598037E+01  0.7818608E-02  0.3355497E+00
         11   -1    0    0    0    0  0.00000000000E+00  0.00000000000E+00  0.39999999674E+01  0.40000000000E+01  0.51100000000E-03 0.  1.
    9000002   -1    0    0    0    0 -0.00000000000E+00 -0.00000000000E+00  0.00000000000E+00  0.93800000000E+00  0.93800000000E+00 0.  1.
         11    1    1    2    0    0  0.23330186134E+00 -0.15100175297E+00  0.18810847432E+01  0.19015023955E+01  0.51100000000E-03 0.  1.
    9000002    1    1    2    0    0 -0.55193508068E+00  0.25900295219E+00  0.26153801030E+00  0.11488955537E+01  0.93800000000E+00 0.  1.
         22    1    1    2    0    0  0.31863321934E+00 -0.10800119922E+00  0.18573772138E+01  0.18876020508E+01  0.00000000000E+00 0.  1.
</event>
<event>
 5    1  0.3490044E+002  0.1509224E+01  0.7818608E-02  0.3458193E+00
         11   -1    0    0    0    0  0.00000000000E+00  0.00000000000E+00  0.39999999674E+01  0.40000000000E+01  0.51100000000E-03 0. -1.
    9000002   -1    0    0    0    0 -0.00000000000E+00 -0.00000000000E+00  0.00000000000E+00  0.93800000000E+00  0.93800000000E+00 0. -1.
         11    1    1    2    0    0 -0.17095561658E+00  0.94332962076E-01  0.12331148375E+01  0.12484778709E+01  0.51100000000E-03 0. -1.
    9000002    1    1    2    0    0 -0.51033583694E+00 -0.21633230521E+00  0.30388218574E+00  0.11311192314E+01  0.93800000000E+00 0. -1.
         22    1    1    2    0    0  0.68129145352E+00  0.12199934313E+00  0.24630029441E+01  0.25584028977E+01  0.00000000000E+00 0. -1.
</event>
<event>
 5    1  0.3490044E+002  0.1599513E+01  0.7818608E-02  0.3353892E+00
         11   -1    0    0    0    0  0.00000000000E+00  0.00000000000E+00  0.39999999674E+01  0.40000000000E+01  0.51100000000E-03 0.  1.
    9000002   -1    0    0    0    0 -0.00000000000E+00 -0.00000000000E+00  0.00000000000E+00  0.93800000000E+00  0.93800000000E+00 0.  1.
         11    1    1    2    0    0  0.32387433037E-01 -0.46968545790E-01  0.65568272062E+00  0.65816037662E+00  0.51100000000E-03 0.  1.
    9000002    1    1    2    0    0 -0.13862174684E+00  0.32204652196E+00  0.82563688000E-01  0.10047839139E+01  0.93800000000E+00 0.  1.
         22    1    1    2    0    0  0.10623431381E+00 -0.27507797617E+00  0.32617535587E+01  0.32750557095E+01  0.00000000000E+00 0.  1.
</event>
<event>
 5    1  0.3490044E+002  0.1599521E+01  0.7818608E-02  0.3353883E+00
         11   -1    0    0    0    0  0.00000000000E+00  0.00000000000E+00  0.39999999674E+01  0.40000000000E+01  0.51100000000E-03 0.  1.
    9000002   -1    0    0    0    0 -0.00000000000E+00 -0.00000000000E+00  0.00000000000E+00  0.93800000000E+00  0.93800000000E+00 0.  1.
         11    1    1    2    0    0 -0.10440375383E+00 -0.32525337364E+00  0.22033905177E+01  0.22297129716E+01  0.51100000000E-03 0.  1.
    9000002    1    1    2    0    0  0.17046830040E+00  0.53414550558E+00  0.21773166182E+00  0.11142809067E+01  0.93800000000E+00 0.  1.
         22    1    1    2    0    0 -0.66064546570E-01 -0.20889213194E+00  0.15788777878E+01  0.15940061217E+01  0.00000000000E+00 0.  1.
</event>
<event>
 5    1  0.3490044E+002  0.1535491E+01  0.7818608E-02  0.3426500E+00
         11   -1    0    0    0    0  0.00000000000E+00  0.00000000000E+00  0.39999999674E+01  0.40000000000E+01  0.51100000000E-03 0. -1.
    9000002   -1    0    0    0    0 -0.00000000000E+00 -0.00000000000E+00  0.00000000000E+00  0.93800000000E+00  0.93800000000E+00 0.  1.
         11    1    1    2    0    0 -0.26244944459E+00  0.14736203055E+00  0.17363600626E+01  0.17622547509E+01  0.51100000000E-03 0. -1.
    9000002    1    1    2    0    0  0.70830088314E-01  0.10891954865E+00  0.59850584747E-01  0.94884480395E+00  0.93800000000E+00 0.  1.
         22    1    1    2    0    0  0.19161935628E+00 -0.25628157920E+00  0.22037893200E+01  0.22269004452E+01  0.00000000000E+00 0. -1.
</event>
<event>
 5    1  0.3490044E+002  0.1551974E+01  0.7818608E-02  0.3407198E+00
         11   -1    0    0    0    0  0.00000000000E+00  0.00000000000E+00  0.39999999674E+01  0.40000000000E+01  0.51100000000E-03 0.  1.
    9000002   -1    0    0    0    0 -0.00000000000E+00 -0.00000000000E+00  0.00000000000E+00  0.93800000000E+00  0.93800000000E+00 0. -1.
         11    1    1    2    0    0 -0.72248986532E-01 -0.89149690841E-01  0.49960855769E+00  0.51261735775E+00  0.51100000000E-03 0.  1.
    9000002    1    1    2    0    0 -0.55803639147E+00 -0.97378806441E-01  0.26967113825E+00  0.11284740887E+01  0.93800000000E+00 0. -1.
         22    1    1    2    0    0  0.63028537801E+00  0.18652849728E+00  0.32307202714E+01  0.32969085535E+01  0.00000000000E+00 0.  1.
</event>
<event>
 5    1  0.3490044E+002  0.1552821E+01  0.7818608E-02  0.3406218E+00
         11   -1    0    0    0    0  0.00000000000E+00  0.00000000000E+00  0.39999999674E+01  0.40000000000E+01  0.51100000000E-03 0.  1.
    9000002   -1    0    0    0    0 -0.00000000000E+00 -0.00000000000E+00  0.00000000000E+00  0.93800000000E+00  0.93800000000E+00 0. -1.
         11    1    1    2    0    0  0.10330323251E+00 -0.18105629833E+00  0.44362964025E+00  0.49016370719E+00  0.51100000000E-03 0.  1.
    9000002    1    1    2    0    0  0.43281874746E-01  0.41917256456E+00  0.16084131333E+00  0.10408135701E+01  0.93800000000E+00 0. -1.
         22    1    1    2    0    0 -0.14658510725E+00 -0.23811626623E+00  0.33955290138E+01  0.34070227227E+01  0.00000000000E+00 0.  1.
</event>
<event>
 5    1  0.3490044E+002  0.1599672E+01  0.7818608E-02  0.3353720E+00
         11   -1    0    0    0    0  0.00000000000E+00  0.00000000000E+00  0.39999999674E+01  0.40000000000E+01  0.51100000000E-03 0.  1.
    9000002   -1    0    0    0    0 -0.00000000000E+00 -0.00000000000E+00  0.00000000000E+00  0.93800000000E+00  0.93800000000E+00 0.  1.
         11    1    1    2    0    0 -0.40005767166E+00 -0.23391404617E+00  0.20319715361E+01  0.20841474291E+01  0.51100000000E-03 0.  1.
    9000002    1    1    2    0    0  0.69059274795E+00  0.40905159446E+00  0.47499595218E+00  0.13227647958E+01  0.93800000000E+00 0.  1.
         22    1    1    2    0    0 -0.29053507629E+00 -0.17513754830E+00  0.14930324791E+01  0.15310877751E+01  0.00000000000E+00 0.  1.
</event>
<event>
 5    1  0.3490044E+002  0.1599662E+01  0.7818608E-02  0.3353730E+00
         11   -1    0    0    0    0  0.00000000000E+00  0.00000000000E+00  0.39999999674E+01  0.40000000000E+01  0.51100000000E-03 0.  1.
    9000002   -1    0    0    0    0 -0.00000000000E+00 -0.00000000000E+00  0.00000000000E+00  0.93800000000E+00  0.93800000000E+00 0. -1.
         11    1    1    2    0    0 -0.16312589756E-01 -0.29386510159E-01  0.49995822914E+00  0.50108697804E+00  0.51100000000E-03 0.  1.
    9000002    1    1    2    0    0  0.15137609778E+00  0.22279250551E+00  0.48281105656E-01  0.97710096134E+00  0.93800000000E+00 0. -1.
         22    1    1    2    0    0 -0.13506350802E+00 -0.19340599535E+00  0.34517606326E+01  0.34598120606E+01  0.00000000000E+00 0. -1.
</event>
<event>
 5    1  0.3490044E+002  0.1454909E+01  0.7818608E-02  0.3527648E+00
         11   -1    0    0    0    0  0.00000000000E+00  0.00000000000E+00  0.39999999674E+01  0.40000000000E+01  0.51100000000E-03 0. -1.
    9000002   -1    0    0    0    0 -0.00000000000E+00 -0.00000000000E+00  0.00000000000E+00  0.93800000000E+00  0.93800000000E+00 0. -1.
         11    1    1    2    0    0 -0.18213547208E+00  0.30458917449E+00  0.52021606514E+00  0.62974035201E+00  0.51100000000E-03 0. -1.
    9000002    1    1    2    0    0  0.11647125669E+00 -0.53708455839E-01  0.13835731709E+00  0.95678466703E+00  0.93800000000E+00 0. -1.
         22    1    1    2    0    0  0.65664215391E-01 -0.25088071865E+00  0.33414265851E+01  0.33514749810E+01  0.00000000000E+00 0. -1.
</event>
<event>
 5    1  0.3490044E+002  0.1598784E+01  0.7818608E-02  0.3354685E+00
         11   -1    0    0    0    0  0.00000000000E+00  0.00000000000E+00  0.39999999674E+01  0.40000000000E+01  0.51100000000E-03 0.  1.
    9000002   -1    0    0    0    0 -0.00000000000E+00 -0.00000000000E+00  0.00000000000E+00  0.93800000000E+00  0.93800000000E+00 0. -1.
         11    1    1    2    0    0  0.26684724559E-01 -0.55991182131E-02  0.18522049069E+00  0.18721729605E+00  0.51100000000E-03 0.  1.
    9000002    1    1    2    0    0 -0.26543976290E+00  0.19557763234E-02  0.47552270263E-01  0.97599554876E+00  0.93800000000E+00 0. -1.
         22    1    1    2    0    0  0.23875503834E+00  0.36433418897E-02  0.37672272064E+01  0.37747871552E+01  0.00000000000E+00 0.  1.
</event>
<event>
 5    1  0.3490044E+002  0.1599677E+01  0.7818608E-02  0.3353714E+00
         11   -1    0    0    0    0  0.00000000000E+00  0.00000000000E+00  0.39999999674E+01  0.40000000000E+01  0.51100000000E-03 0.  1.
    9000002   -1    0    0    0    0 -0.00000000000E+00 -0.00000000000E+00  0.00000000000E+00  0.93800000000E+00  0.93800000000E+00 0. -1.
         11    1    1    2    0    0  0.16482546204E+00 -0.88015964035E-01  0.17793289689E+01  0.17891132115E+01  0.51100000000E-03 0.  1.
    9000002    1    1    2    0    0 -0.36036245365E+00  0.19061119180E+00  0.11221295767E+00  0.10288972117E+01  0.93800000000E+00 0. -1.
         22    1    1    2    0    0  0.19553699161E+00 -0.10259522776E+00  0.21084580408E+01  0.21199895767E+01  0.00000000000E+00 0.  1.
</event>
<event>
 5    1  0.3490044E+002  0.1599677E+01  0.7818608E-02  0.3353714E+00
         11   -1    0    0    0    0  0.00000000000E+00  0.00000000000E+00  0.39999999674E+01  0.40000000000E+01  0.51100000000E-03 0.  1.
    9000002   -1    0    0    0    0 -0.00000000000E+00 -0.00000000000E+00  0.00000000000E+00  0.93800000000E+00  0.93800000000E+00 0.  1.
         11    1    1    2    0    0  0.25032063299E+00 -0.28504975547E+00  0.21943129550E+01  0.22268640255E+01  0.51100000000E-03 0.  1.
    9000002    1    1    2    0    0 -0.42284318827E+00  0.48150898592E+00  0.28914183002E+00  0.11722176689E+01  0.93800000000E+00 0.  1.
         22    1    1    2    0    0  0.17252255528E+00 -0.19645923045E+00  0.15165451823E+01  0.15389183056E+01  0.00000000000E+00 0.  1.
</event>
<event>
 5    1  0.3490044E+002  0.1599676E+01  0.7818608E-02  0.3353715E+00
         11   -1    0    0    0    0  0.00000000000E+00  0.00000000000E+00  0.39999999674E+01  0.40000000000E+01  0.51100000000E-03 0. -1.
    9000002   -1    0    0    0    0 -0.00000000000E+00 -0.00000000000E+00  0.00000000000E+00  0.93800000000E+00  0.93800000000E+00 0.  1.
         11    1    1    2    0    0 -0.71200868700E-01  0.26431053944E-01  0.51366573958E+00  0.51925034180E+00  0.51100000000E-03 0. -1.
    9000002    1    1    2    0    0  0.52919643504E+00 -0.19478507587E+00  0.22022738111E+00  0.11163933859E+01  0.93800000000E+00 0.  1.
         22    1    1    2    0    0 -0.45799556634E+00  0.16835402193E+00  0.32661068467E+01  0.33023562723E+01  0.00000000000E+00 0. -1.
</event>
<event>
 5    1  0.3490044E+002  0.1529782E+01  0.7818608E-02  0.3433289E+00
         11   -1    0    0    0    0  0.00000000000E+00  0.00000000000E+00  0.39999999674E+01  0.40000000000E+01  0.51100000000E-03 0.  1.
    9000002   -1    0    0    0    0 -0.00000000000E+00 -0.00000000000E+00  0.00000000000E+00  0.93800000000E+00  0.93800000000E+00 0.  1.
         11    1    1    2    0    0  0.17119832311E+00 -0.11658091983E+00  0.26354150891E+01  0.26435417397E+01  0.51100000000E-03 0.  1.
    9000002    1    1    2    0    0  0.18472746551E+00  0.96253419418E-01  0.83247034901E-01  0.96444959748E+00  0.93800000000E+00 0.  1.
         22    1    1    2    0    0 -0.35592578862E+00  0.20327500410E-01  0.12813378434E+01  0.13300086628E+01  0.00000000000E+00 0.  1.
</event>
<event>
 5    1  0.3490044E+002  0.1599677E+01  0.7818608E-02  0.3353714E+00
         11   -1    0    0    0    0  0.00000000000E+00  0.00000000000E+00  0.39999999674E+01  0.40000000000E+01  0.51100000000E-03 0. -1.
    9000002   -1    0    0    0    0 -0.00000000000E+00 -0.00000000000E+00  0.00000000000E+00  0.93800000000E+00  0.93800000000E+00 0.  1.
         11    1    1    2    0    0 -0.10689928305E+00  0.32551444337E-01  0.12913736544E+01  0.12961995331E+01  0.51100000000E-03 0. -1.
    9000002    1    1    2    0    0  0.32417680836E+00 -0.99514825430E-01  0.77013624504E-01  0.10003843771E+01  0.93800000000E+00 0.  1.
         22    1    1    2    0    0 -0.21727752531E+00  0.66963381093E-01  0.26316126885E+01  0.26414160898E+01  0.00000000000E+00 0. -1.
</event>
<event>
 5    1  0.3490044E+002  0.1599336E+01  0.7818608E-02  0.3354084E+00
         11   -1    0    0    0    0  0.00000000000E+00  0.00000000000E+00  0.39999999674E+01  0.40000000000E+01  0.51100000000E-03 0.  1.
    9000002   -1    0    0    0    0 -0.00000000000E+00 -0.00000000000E+00  0.00000000000E+00  0.93800000000E+00  0.93800000000E+00 0.  1.
         11    1    1    2    0    0 -0.25816393155E-01  0.64074971489E-01  0.82993879731E+00  0.83280895560E+00  0.51100000000E-03 0.  1.
    9000002    1    1    2    0    0  0.41450258480E-01 -0.27647155187E+00  0.52306295356E-01  0.98017069506E+00  0.93800000000E+00 0.  1.
         22    1    1    2    0    0 -0.15633865325E-01  0.21239658038E+00  0.31177548747E+01  0.31250203493E+01  0.00000000000E+00 0.  1.
</event>
<event>
 5    1  0.3490044E+002  0.1599446E+01  0.7818608E-02  0.3353965E+00
         11   -1    0    0    0    0  0.00000000000E+00  0.00000000000E+00  0.39999999674E+01  0.40000000000E+01  0.51100000000E-03 0. -1.
    9000002   -1    0    0    0    0 -0.00000000000E+00 -0.00000000000E+00  0.00000000000E+00  0.93800000000E+00  0.93800000000E+00 0. -1.
         11    1    1    2    0    0  0.11336488129E-01  0.32672382215E-01  0.47417898958E+00  0.47543871929E+00  0.51100000000E-03 0. -1.
    9000002    1    1    2    0    0 -0.24136096786E-01 -0.34023014581E+00  0.78116231116E-01  0.10011419724E+01  0.93800000000E+00 0. -1.
         22    1    1    2    0    0  0.12799608657E-01  0.30755776360E+00  0.34477047467E+01  0.34614193083E+01  0.00000000000E+00 0. -1.
</event>
<event>
 5    1  0.3490044E+002  0.1551223E+01  0.7818608E-02  0.3408068E+00
         11   -1    0    0    0    0  0.00000000000E+00  0.00000000000E+00  0.39999999674E+01  0.40000000000E+01  0.51100000000E-03 0. -1.
    9000002   -1    0    0    0    0 -0.00000000000E+00 -0.00000000000E+00  0.00000000000E+00  0.93800000000E+00  0.93800000000E+00 0. -1.
         11    1    1    2    0    0 -0.25638882471E-01  0.69576687392E-01  0.44697635020E-01  0.86581796125E-01  0.51100000000E-03 0. -1.
    9000002    1    1    2    0    0  0.60706962242E-01 -0.35742331389E+00  0.12867931254E+00  0.10138240114E+01  0.93800000000E+00 0. -1.
         22    1    1    2    0    0 -0.35068079771E-01  0.28784662650E+00  0.38266230198E+01  0.38375941925E+01  0.00000000000E+00 0. -1.
</event>
<event>
 5    1  0.3490044E+002  0.1583902E+01  0.7818608E-02  0.3371023E+00
         11   -1    0    0    0    0  0.00000000000E+00  0.00000000000E+00  0.39999999674E+01  0.40000000000E+01  0.51100000000E-03 0. -1.
    9000002   -1    0    0    0    0 -0.00000000000E+00 -0.00000000000E+00  0.00000000000E+00  0.93800000000E+00  0.93800000000E+00 0. -1.
         11    1    1    2    0    0  0.61075842868E-01  0.20414569554E-01  0.42611413916E+00  0.43095305306E+00  0.51100000000E-03 0. -1.
    9000002    1    1    2    0    0  0.12177531416E+00  0.34381274435E+00  0.10228291424E+00  0.10116037885E+01  0.93800000000E+00 0. -1.
         22    1    1    2    0    0 -0.18285115703E+00 -0.36422731390E+00  0.34716029140E+01  0.34954431585E+01  0.00000000000E+00 0. -1.
</event>
<event>
 5    1  0.3490044E+002  0.1599444E+01  0.7818608E-02  0.3353967E+00
         11   -1    0    0    0    0  0.00000000000E+00  0.00000000000E+00  0.39999999674E+01  0.40000000000E+01  0.51100000000E-03 0.  1.
    9000002   -1    0    0    0    0 -0.00000000000E+00 -0.00000000000E+00  0.00000000000E+00  0.93800000000E+00  0.93800000000E+00 0. -1.
         11    1    1    2    0    0  0.42480023831E+00  0.19546055931E+00  0.25620372509E+01  0.26043608062E+01  0.51100000000E-03 0.  1.
    9000002    1    1    2    0    0 -0.63017985278E+00 -0.28558852338E+00  0.34162406991E+00  0.12145939472E+01  0.93800000000E+00 0. -1.
         22    1    1    2    0    0  0.20537961447E+00  0.90127964067E-01  0.10963386465E+01  0.11190452466E+01  0.00000000000E+00 0.  1.
</event>
<event>
 5    1  0.3490044E+002  0.1575557E+01  0.7818608E-02  0.3380328E+00
         11   -1    0    0    0    0  0.00000000000E+00  0.00000000000E+00  0.39999999674E+01  0.40000000000E+01  0.51100000000E-03 0.  1.
    9000002   -1    0    0    0    0 -0.00000000000E+00 -0.00000000000E+00  0.00000000000E+00  0.93800000000E+00  0.93800000000E+00 0.  1.
         11    1    1    2    0    0 -0.73037944841E-02  0.47248796137E-01  0.62874011839E-01  0.78988585479E-01  0.51100000000E-03 0.  1.
    9000002    1    1    2    0    0 -0.55154466276E+00  0.10489815577E-01  0.23342838771E+00  0.11129440073E+01  0.93800000000E+00 0.  1.
         22    1    1    2    0    0  0.55884845724E+00 -0.57738611714E-01  0.37036975678E+01  0.37460674072E+01  0.00000000000E+00 0.  1.
</event>
<event>
 5    1  0.3490044E+002  0.1599675E+01  0.7818608E-02  0.3353716E+00
         11   -1    0    0    0    0  0.00000000000E+00  0.00000000000E+00  0.39999999674E+01  0.40000000000E+01  0.51100000000E-03 0. -1.
    9000002   -1    0    0    0    0 -0.00000000000E+00 -0.00000000000E+00  0.00000000000E+00  0.93800000000E+00  0.93800000000E+00 0. -1.
         11    1    1    2    0    0  0.67144499907E-01  0.97025735958E-01  0.13912547868E+01  0.13962494477E+01  0.51100000000E-03 0. -1.
    9000002    1    1    2    0    0 -0.18769840265E+00 -0.27771672466E+00  0.75218143840E-01  0.99892894576E+00  0.93800000000E+00 0. -1.
         22    1    1    2    0    0  0.12055390274E+00  0.18069098870E+00  0.25335270367E+01  0.25428216065E+01  0.00000000000E+00 0. -1.
</event>
<event>
 5    1  0.3490044E+002  0.1598210E+01  0.7818608E-02  0.3355308E+00
         11   -1    0    0    0    0  0.00000000000E+00  0.00000000000E+00  0.39999999674E+01  0.40000000000E+01  0.51100000000E-03 0.  1.
    9000002   -1    0    0    0    0 -0.00000000000E+00 -0.00000000000E+00  0.00000000000E+00  0.93800000000E+00  0.93800000000E+00 0.  1.
         11    1    1    2    0    0  0.68957542268E-02  0.10709078949E+00  0.13541457856E+01  0.13583913495E+01  0.51100000000E-03 0.  1.
    9000002    1    1    2    0    0 -0.13652542495E+00 -0.26006750923E+00  0.58666465362E-01  0.98466240670E+00  0.93800000000E+00 0.  1.
         22    1    1    2    0    0  0.12962967072E+00  0.15297671974E+00  0.25871877164E+01  0.25949462438E+01  0.00000000000E+00 0. -1.
</event>
<event>
 5    1  0.3490044E+002  0.1599672E+01  0.7818608E-02  0.3353719E+00
         11   -1    0    0    0    0  0.00000000000E+00  0.00000000000E+00  0.39999999674E+01  0.40000000000E+01  0.51100000000E-03 0. -1.
    9000002   -1    0    0    0    0 -0.00000000000E+00 -0.00000000000E+00  0.00000000000E+00  0.93800000000E+00  0.93800000000E+00 0. -1.
         11    1    1    2    0    0  0.16017531382E+00 -0.94681616399E-01  0.17996452507E+01  0.18092385219E+01  0.51100000000E-03 0. -1.
    9000002    1    1    2    0    0 -0.34172018338E+00  0.20159474124E+00  0.10613841476E+00  0.10239738700E+01  0.93800000000E+00 0. -1.
         22    1    1    2    0    0  0.18154486957E+00 -0.10691312484E+00  0.20942163019E+01  0.21047876081E+01  0.00000000000E+00 0. -1.
</event>
<event>
 5    1  0.3490044E+002  0.1599574E+01  0.7818608E-02  0.3353826E+00
         11   -1    0    0    0    0  0.00000000000E+00  0.00000000000E+00  0.39999999674E+01  0.40000000000E+01  0.51100000000E-03 0. -1.
    9000002   -1    0    0    0    0 -0.00000000000E+00 -0.00000000000E+00  0.00000000000E+00  0.93800000000E+00  0.93800000000E+00 0. -1.
         11    1    1    2    0    0 -0.14914520483E-01 -0.14166154945E-02  0.20709155370E+00  0.20763338473E+00  0.51100000000E-03 0. -1.
    9000002    1    1    2    0    0  0.26577699456E+00 -0.74892738513E-01  0.50836667539E-01  0.97911934915E+00  0.93800000000E+00 0. -1.
         22    1    1    2    0    0 -0.25086247408E+00  0.76309354008E-01  0.37420717461E+01  0.37512472661E+01  0.00000000000E+00 0. -1.
</event>
<event>
 5    1  0.3490044E+002  0.1591780E+01  0.7818608E-02  0.3362334E+00
         11   -1    0    0    0    0  0.00000000000E+00  0.00000000000E+00  0.39999999674E+01  0.40000000000E+01  0.51100000000E-03 0. -1.
    9000002   -1    0    0    0    0 -0.00000000000E+00 -0.00000000000E+00  0.00000000000E+00  0.93800000000E+00  0.93800000000E+00 0.  1.
         11    1    1    2    0    0  0.13798646947E-01  0.19361431631E-01  0.44993000985E-01  0.50891049812E-01  0.51100000000E-03 0. -1.
    9000002    1    1    2    0    0  0.19254979971E+00 -0.19796730408E+00  0.56903005507E-01  0.97946333821E+00  0.93800000000E+00 0.  1.
         22    1    1    2    0    0 -0.20634844666E+00  0.17860587245E+00  0.38981039609E+01  0.39076456120E+01  0.00000000000E+00 0. -1.
</event>
<event>
 5    1  0.3490044E+002  0.1598604E+01  0.7818608E-02  0.3354880E+00
         11   -1    0    0    0    0  0.00000000000E+00  0.00000000000E+00  0.39999999674E+01  0.40000000000E+01  0.51100000000E-03 0. -1.
    9000002   -1    0    0    0    0 -0.00000000000E+00 -0.00000000000E+00  0.00000000000E+00  0.93800000000E+00  0.93800000000E+00 0. -1.
         11    1    1    2    0    0 -0.45754175560E-01  0.41680078279E-02  0.77605450456E+00  0.77741344987E+00  0.51100000000E-03 0. -1.
    9000002    1    1    2    0    0  0.21297473676E+00 -0.17937728449E+00  0.52455918964E-01  0.97986227202E+00  0.93800000000E+00 0. -1.
         22    1    1    2    0    0 -0.16722056120E+00  0.17520927666E+00  0.31714895438E+01  0.31807242781E+01  0.00000000000E+00 0. -1.
</event>
<event>
 5    1  0.3490044E+002  0.1598588E+01  0.7818608E-02  0.3354898E+00
         11   -1    0    0    0    0  0.00000000000E+00  0.00000000000E+00  0.39999999674E+01  0.40000000000E+01  0.51100000000E-03 0.  1.
    9000002   -1    0    0    0    0 -0.00000000000E+00 -0.00000000000E+00  0.00000000000E+00  0.93800000000E+00  0.93800000000E+00 0. -1.
         11    1    1    2    0    0  0.14042068844E-02  0.64254484847E-01  0.10902404256E+01  0.10921332599E+01  0.51100000000E-03 0.  1.
    9000002    1    1    2    0    0  0.12257426005E+00 -0.24853916297E+00  0.51970460587E-01  0.97945959260E+00  0.93800000000E+00 0. -1.
         22    1    1    2    0    0 -0.12397846693E+00  0.18428467812E+00  0.28577890812E+01  0.28664071475E+01  0.00000000000E+00 0.  1.
</event>
<event>
 5    1  0.3490044E+002  0.1599510E+01  0.7818608E-02  0.3353895E+00
         11   -1    0    0    0    0  0.00000000000E+00  0.00000000000E+00  0.39999999674E+01  0.40000000000E+01  0.51100000000E-03 0. -1.
    9000002   -1    0    0    0    0 -0.00000000000E+00 -0.00000000000E+00  0.00000000000E+00  0.93800000000E+00  0.93800000000E+00 0. -1.
         11    1    1    2    0    0 -0.43840096728E-01 -0.12059393580E+00  0.14819972201E+01  0.14875418894E+01  0.51100000000E-03 0. -1.
    9000002    1    1    2    0    0  0.15532821752E+00  0.31297111807E+00  0.81983214199E-01  0.10043122141E+01  0.93800000000E+00 0. -1.
         22    1    1    2    0    0 -0.11148812079E+00 -0.19237718227E+00  0.24360195331E+01  0.24461458965E+01  0.00000000000E+00 0. -1.
</event>
<event>
 5    1  0.3490044E+002  0.1498509E+01  0.7818608E-02  0.3471464E+00
         11   -1    0    0    0    0  0.00000000000E+00  0.00000000000E+00  0.39999999674E+01  0.40000000000E+01  0.51100000000E-03 0.  1.
    9000002   -1    0    0    0    0 -0.00000000000E+00 -0.00000000000E+00  0.00000000000E+00  0.93800000000E+00  0.93800000000E+00 0.  1.
         11    1    1    2    0    0  0.45562814260E+00  0.14232866383E+00  0.47745054439E+00  0.67513979022E+00  0.51100000000E-03 0.  1.
    9000002    1    1    2    0    0 -0.65483310079E+00  0.59088113901E+00  0.10055472456E+01  0.16336817846E+01  0.93800000000E+00 0.  1.
         22    1    1    2    0    0  0.19920495819E+00 -0.73320980283E+00  0.25170021774E+01  0.26291784252E+01  0.00000000000E+00 0.  1.
</event>
<event>
 5    1  0.3490044E+002  0.1599365E+01  0.7818608E-02  0.3354053E+00
         11   -1    0    0    0    0  0.00000000000E+00  0.00000000000E+00  0.39999999674E+01  0.40000000000E+01  0.51100000000E-03 0.  1.
    9000002   -1    0    0    0    0 -0.00000000000E+00 -0.00000000000E+00  0.00000000000E+00  0.93800000000E+00  0.93800000000E+00 0.  1.
         11    1    1    2    0    0 -0.22705515382E-01  0.21927364816E-01  0.68948020926E+00  0.69020255710E+00  0.51100000000E-03 0.  1.
    9000002    1    1    2    0    0  0.21450240141E+00 -0.16380727784E+00  0.48707236362E-01  0.97727196796E+00  0.93800000000E+00 0.  1.
         22    1    1    2    0    0 -0.19179688603E+00  0.14187991303E+00  0.32618125217E+01  0.32705254749E+01  0.00000000000E+00 0.  1.
</event>
<event>
 5    1  0.3490044E+002  0.1599671E+01  0.7818608E-02  0.3353720E+00
         11   -1    0    0    0    0  0.00000000000E+00  0.00000000000E+00  0.39999999674E+01  0.40000000000E+01  0.51100000000E-03 0.  1.
    9000002   -1    0    0    0    0 -0.00000000000E+00 -0.00000000000E+00  0.00000000000E+00  0.93800000000E+00  0.93800000000E+00 0.  1.
         11    1    1    2    0    0 -0.27302909667E-01 -0.31286561911E-01  0.39334546770E+00  0.39553156121E+00  0.51100000000E-03 0.  1.
    9000002    1    1    2    0    0  0.28366527341E+00  0.31718094134E+00  0.12255587872E+00  0.10372722306E+01  0.93800000000E+00 0.  1.
         22    1    1    2    0    0 -0.25636236374E+00 -0.28589437943E+00  0.34840986209E+01  0.35051962082E+01  0.00000000000E+00 0.  1.
</event>
<event>
 5    1  0.3490044E+002  0.1599676E+01  0.7818608E-02  0.3353715E+00
         11   -1    0    0    0    0  0.00000000000E+00  0.00000000000E+00  0.39999999674E+01  0.40000000000E+01  0.51100000000E-03 0.  1.
    9000002   -1    0    0    0    0 -0.00000000000E+00 -0.00000000000E+00  0.00000000000E+00  0.93800000000E+00  0.93800000000E+00 0.  1.
         11    1    1    2    0    0  0.27909229965E-01 -0.88580333933E-02  0.45694883121E+00  0.45788632360E+00  0.51100000000E-03 0.  1.
    9000002    1    1    2    0    0 -0.24559526548E+00  0.80487691405E-01  0.44401419521E-01  0.97396652352E+00  0.93800000000E+00 0.  1.
         22    1    1    2    0    0  0.21768603551E+00 -0.71629658011E-01  0.34986497166E+01  0.35061471529E+01  0.00000000000E+00 0.  1.
</event>
<event>
 5    1  0.3490044E+002  0.1533334E+01  0.7818608E-02  0.3429059E+00
         11   -1    0    0    0    0  0.00000000000E+00  0.00000000000E+00  0.39999999674E+01  0.40000000000E+01  0.51100000000E-03 0. -1.
    9000002   -1    0    0    0    0 -0.00000000000E+00 -0.00000000000E+00  0.00000000000E+00  0.93800000000E+00  0.93800000000E+00 0. -1.
         11    1    1    2    0    0  0.59966773175E-01 -0.28493638984E+00  0.25063518009E+01  0.25232091414E+01  0.51100000000E-03 0. -1.
    9000002    1    1    2    0    0  0.10677040853E+00  0.23676566618E-01  0.58070250832E-01  0.94613775634E+00  0.93800000000E+00 0. -1.
         22    1    1    2    0    0 -0.16673718171E+00  0.26125982322E+00  0.14355779156E+01  0.14686531023E+01  0.00000000000E+00 0. -1.
</event>
<event>
 5    1  0.3490044E+002  0.1598757E+01  0.7818608E-02  0.3354713E+00
         11   -1    0    0    0    0  0.00000000000E+00  0.00000000000E+00  0.39999999674E+01  0.40000000000E+01  0.51100000000E-03 0.  1.
    9000002   -1    0    0    0    0 -0.00000000000E+00 -0.00000000000E+00  0.00000000000E+00  0.93800000000E+00  0.93800000000E+00 0. -1.
         11    1    1    2    0    0  0.59017009283E-01  0.31350024959E+00  0.21010260982E+01  0.21251061950E+01  0.51100000000E-03 0.  1.
    9000002    1    1    2    0    0 -0.11180729449E+00 -0.61974822713E+00  0.27947282905E+00  0.11638461231E+01  0.93800000000E+00 0. -1.
         22    1    1    2    0    0  0.52790285210E-01  0.30624797753E+00  0.16195010402E+01  0.16490476819E+01  0.00000000000E+00 0. -1.
</event>
<event>
 5    1  0.3490044E+002  0.1599541E+01  0.7818608E-02  0.3353861E+00
         11   -1    0    0    0    0  0.00000000000E+00  0.00000000000E+00  0.39999999674E+01  0.40000000000E+01  0.51100000000E-03 0.  1.
    9000002   -1    0    0    0    0 -0.00000000000E+00 -0.00000000000E+00  0.00000000000E+00  0.93800000000E+00  0.93800000000E+00 0.  1.
         11    1    1    2    0    0 -0.15812145177E+00  0.46155549776E-01  0.17948007392E+01  0.18023436639E+01  0.51100000000E-03 0.  1.
    9000002    1    1    2    0    0  0.34548741632E+00 -0.13092166000E+00  0.91839458318E-01  0.10123144383E+01  0.93800000000E+00 0.  1.
         22    1    1    2    0    0 -0.18736596454E+00  0.84766110220E-01  0.21133597699E+01  0.21233418978E+01  0.00000000000E+00 0.  1.
</event>
<event>
 5    1  0.3490044E+002  0.1599676E+01  0.7818608E-02  0.3353715E+00
         11   -1    0    0    0    0  0.00000000000E+00  0.00000000000E+00  0.39999999674E+01  0.40000000000E+01  0.51100000000E-03 0.  1.
    9000002   -1    0    0    0    0 -0.00000000000E+00 -0.00000000000E+00  0.00000000000E+00  0.93800000000E+00  0.93800000000E+00 0.  1.
         11    1    1    2    0    0 -0.46700711965E-01  0.47937778743E-01  0.86782511784E+00  0.87040202402E+00  0.51100000000E-03 0.  1.
    9000002    1    1    2    0    0  0.20811919898E+00 -0.21937086479E+00  0.61013199937E-01  0.98742280097E+00  0.93800000000E+00 0.  1.
         22    1    1    2    0    0 -0.16141848701E+00  0.17143308605E+00  0.30711616496E+01  0.30801751750E+01  0.00000000000E+00 0.  1.
</event>
<event>
 5    1  0.3490044E+002  0.1599181E+01  0.7818608E-02  0.3354252E+00
         11   -1    0    0    0    0  0.00000000000E+00  0.00000000000E+00  0.39999999674E+01  0.40000000000E+01  0.51100000000E-03 0.  1.
    9000002   -1    0    0    0    0 -0.00000000000E+00 -0.00000000000E+00  0.00000000000E+00  0.93800000000E+00  0.93800000000E+00 0.  1.
         11    1    1    2    0    0 -0.51099757091E-01 -0.34743484803E-02  0.45790214270E+00  0.46075795130E+00  0.51100000000E-03 0.  1.
    9000002    1    1    2    0    0  0.42202489557E+00  0.17498798817E+00  0.14233862246E+00  0.10530100151E+01  0.93800000000E+00 0.  1.
         22    1    1    2    0    0 -0.37092513848E+00 -0.17151363969E+00  0.33997592022E+01  0.34242320336E+01  0.00000000000E+00 0.  1.
</event>
<event>
 5    1  0.3490044E+002  0.1587491E+01  0.7818608E-02  0.3367054E+00
         11   -1    0    0    0    0  0.00000000000E+00  0.00000000000E+00  0.39999999674E+01  0.40000000000E+01  0.51100000000E-03 0.  1.
    9000002   -1    0    0    0    0 -0.00000000000E+00 -0.00000000000E+00  0.00000000000E+00  0.93800000000E+00  0.93800000000E+00 0.  1.
         11    1    1    2    0    0 -0.20419573738E+00  0.17285353154E+00  0.14823484306E+01  0.15062972394E+01  0.51100000000E-03 0.  1.
    9000002    1    1    2    0    0  0.20258509327E+00 -0.53338143945E+00  0.23758858575E+00  0.11233115401E+01  0.93800000000E+00 0.  1.
         22    1    1    2    0    0  0.16106441193E-02  0.36052790792E+00  0.22800629510E+01  0.23083912205E+01  0.00000000000E+00 0.  1.
</event>
<event>
 5    1  0.3490044E+002  0.1599313E+01  0.7818608E-02  0.3354109E+00
         11   -1    0    0    0    0  0.00000000000E+00  0.00000000000E+00  0.39999999674E+01  0.40000000000E+01  0.51100000000E-03 0. -1.
    9000002   -1    0    0    0    0 -0.00000000000E+00 -0.00000000000E+00  0.00000000000E+00  0.93800000000E+00  0.93800000000E+00 0.  1.
         11    1    1    2    0    0 -0.14722548005E-01  0.10022360432E-01  0.20871229038E+00  0.20947143577E+00  0.51100000000E-03 0. -1.
    9000002    1    1    2    0    0  0.27049574621E+00  0.42626512232E-02  0.48977132677E-01  0.97746042295E+00  0.93800000000E+00 0.  1.
         22    1    1    2    0    0 -0.25577319820E+00 -0.14285011655E-01  0.37423105443E+01  0.37510681413E+01  0.00000000000E+00 0. -1.
</event>
<event>
 5    1  0.3490044E+002  0.1596549E+01  0.7818608E-02  0.3357118E+00
         11   -1    0    0    0    0  0.00000000000E+00  0.00000000000E+00  0.39999999674E+01  0.40000000000E+01  0.51100000000E-03 0. -1.
    9000002   -1    0    0    0    0 -0.00000000000E+00 -0.00000000000E+00  0.00000000000E+00  0.93800000000E+00  0.93800000000E+00 0.  1.
         11    1    1    2    0    0  0.19872356552E-01  0.15465603778E-01  0.89769201474E+00  0.89804527164E+00  0.51100000000E-03 0. -1.
    9000002    1    1    2    0    0 -0.83297168064E-01  0.18064580117E+00  0.28542133832E-01  0.95928618102E+00  0.93800000000E+00 0.  1.
         22    1    1    2    0    0  0.63424811512E-01 -0.19611140495E+00  0.30737658188E+01  0.30806685473E+01  0.00000000000E+00 0. -1.
</event>
<event>
 5    1  0.3490044E+002  0.1597299E+01  0.7818608E-02  0.3356300E+00
         11   -1    0    0    0    0  0.00000000000E+00  0.00000000000E+00  0.39999999674E+01  0.40000000000E+01  0.51100000000E-03 0.  1.
    9000002   -1    0    0    0    0 -0.00000000000E+00 -0.00000000000E+00  0.00000000000E+00  0.93800000000E+00  0.93800000000E+00 0.  1.
         11    1    1    2    0    0  0.24867343398E-01 -0.58064372449E-01  0.10254928182E+01  0.10274364396E+01  0.51100000000E-03 0.  1.
    9000002    1    1    2    0    0 -0.28612662343E+00  0.17201432955E+00  0.76502563055E-01  0.99857599428E+00  0.93800000000E+00 0.  1.
         22    1    1    2    0    0  0.26125928004E+00 -0.11394995710E+00  0.28980045861E+01  0.29119875661E+01  0.00000000000E+00 0.  1.
</event>
<event>
 5    1  0.3490044E+002  0.1577025E+01  0.7818608E-02  0.3378683E+00
         11   -1    0    0    0    0  0.00000000000E+00  0.00000000000E+00  0.39999999674E+01  0.40000000000E+01  0.51100000000E-03 0.  1.
    9000002   -1    0    0    0    0 -0.00000000000E+00 -0.00000000000E+00  0.00000000000E+00  0.93800000000E+00  0.93800000000E+00 0.  1.
         11    1    1    2    0    0  0.12454902589E+00  0.27728294446E+00  0.24667503065E+01  0.24854085433E+01  0.51100000000E-03 0.  1.
    9000002    1    1    2    0    0 -0.42162108127E+00 -0.29081713670E+00  0.20088828671E+00  0.10874461122E+01  0.93800000000E+00 0.  1.
         22    1    1    2    0    0  0.29707205538E+00  0.13534192246E-01  0.13323613741E+01  0.13651453446E+01  0.00000000000E+00 0.  1.
</event>
<event>
 5    1  0.3490044E+002  0.1592073E+01  0.7818608E-02  0.3362012E+00
         11   -1    0    0    0    0  0.00000000000E+00  0.00000000000E+00  0.39999999674E+01  0.40000000000E+01  0.51100000000E-03 0. -1.
    9000002   -1    0    0    0    0 -0.00000000000E+00 -0.00000000000E+00  0.00000000000E+00  0.93800000000E+00  0.93800000000E+00 0. -1.
         11    1    1    2    0    0  0.15855075284E+00  0.40938123908E+00  0.20798882434E+01  0.21257155751E+01  0.51100000000E-03 0. -1.
    9000002    1    1    2    0    0 -0.11443427485E+00 -0.64500926897E+00  0.31128486449E+00  0.11856957566E+01  0.93800000000E+00 0. -1.
         22    1    1    2    0    0 -0.44116477992E-01  0.23562802989E+00  0.16088268595E+01  0.16265886683E+01  0.00000000000E+00 0. -1.
</event>
<event>
 5    1  0.3490044E+002  0.1597219E+01  0.7818608E-02  0.3356388E+00
         11   -1    0    0    0    0  0.00000000000E+00  0.00000000000E+00  0.39999999674E+01  0.40000000000E+01  0.51100000000E-03 0. -1.
    9000002   -1    0    0    0    0 -0.00000000000E+00 -0.00000000000E+00  0.00000000000E+00  0.93800000000E+00  0.93800000000E+00 0.  1.
         11    1    1    2    0    0 -0.22355341988E+00  0.22539915430E-01  0.14019701576E+01  0.14198608253E+01  0.51100000000E-03 0. -1.
    9000002    1    1    2    0    0  0.48203191679E+00 -0.15372868005E+00  0.17764343721E+00  0.10804575265E+01  0.93800000000E+00 0.  1.
         22    1    1    2    0    0 -0.25847849690E+00  0.13118876462E+00  0.24203863725E+01  0.24376816481E+01  0.00000000000E+00 0. -1.
</event>
<event>
 5    1  0.3490044E+002  0.1599648E+01  0.7818608E-02  0.3353745E+00
         11   -1    0    0    0    0  0.00000000000E+00  0.00000000000E+00  0.39999999674E+01  0.40000000000E+01  0.51100000000E-03 0. -1.
    9000002   -1    0    0    0    0 -0.00000000000E+00 -0.00000000000E+00  0.00000000000E+00  0.93800000000E+00  0.93800000000E+00 0. -1.
         11    1    1    2    0    0 -0.64271648747E-04 -0.34585272592E-01  0.42173223316E+00  0.42314829885E+00  0.51100000000E-03 0. -1.
    9000002    1    1    2    0    0  0.35518077724E-01  0.31015112665E+00  0.65111647536E-01  0.99072639101E+00  0.93800000000E+00 0. -1.
         22    1    1    2    0    0 -0.35453806075E-01 -0.27556585406E+00  0.35131560867E+01  0.35241253101E+01  0.00000000000E+00 0. -1.
</event>
<event>
 5    1  0.3490044E+002  0.1599527E+01  0.7818608E-02  0.3353877E+00
         11   -1    0    0    0    0  0.00000000000E+00  0.00000000000E+00  0.39999999674E+01  0.40000000000E+01  0.51100000000E-03 0.  1.
    9000002   -1    0    0    0    0 -0.00000000000E+00 -0.00000000000E+00  0.00000000000E+00  0.93800000000E+00  0.93800000000E+00 0.  1.
         11    1    1    2    0    0  0.15534446697E-02  0.16609157139E+00  0.11467282740E+01  0.11586953089E+01  0.51100000000E-03 0.  1.
    9000002    1    1    2    0    0 -0.94538992920E-02 -0.58916969356E+00  0.24184675252E+00  0.11338183963E+01  0.93800000000E+00 0.  1.
         22    1    1    2    0    0  0.79004546222E-02  0.42307812218E+00  0.26114249408E+01  0.26454862948E+01  0.00000000000E+00 0.  1.
</event>
<event>
 5    1  0.3490044E+002  0.1599639E+01  0.7818608E-02  0.3353755E+00
         11   -1    0    0    0    0  0.00000000000E+00  0.00000000000E+00  0.39999999674E+01  0.40000000000E+01  0.51100000000E-03 0.  1.
    9000002   -1    0    0    0    0 -0.00000000000E+00 -0.00000000000E+00  0.00000000000E+00  0.93800000000E+00  0.93800000000E+00 0. -1.
         11    1    1    2    0    0  0.42406673143E-01  0.13768460613E-01  0.76761906155E+00  0.76891298676E+00  0.51100000000E-03 0.  1.
    9000002    1    1    2    0    0 -0.23992069640E+00 -0.49462706384E-01  0.39876797455E-01  0.97027968074E+00  0.93800000000E+00 0. -1.
         22    1    1    2    0    0  0.19751402326E+00  0.35694245771E-01  0.31925041084E+01  0.31988073325E+01  0.00000000000E+00 0.  1.
</event>
<event>
 5    1  0.3490044E+002  0.1599619E+01  0.7818608E-02  0.3353777E+00
         11   -1    0    0    0    0  0.00000000000E+00  0.00000000000E+00  0.39999999674E+01  0.40000000000E+01  0.51100000000E-03 0. -1.
    9000002   -1    0    0    0    0 -0.00000000000E+00 -0.00000000000E+00  0.00000000000E+00  0.93800000000E+00  0.93800000000E+00 0. -1.
         11    1    1    2    0    0 -0.13275579502E-02 -0.25097039601E-01  0.47696688232E+00  0.47762882216E+00  0.51100000000E-03 0. -1.
    9000002    1    1    2    0    0 -0.54192394426E-02  0.25487882046E+00  0.43234876775E-01  0.97298809645E+00  0.93800000000E+00 0. -1.
         22    1    1    2    0    0  0.67467973928E-02 -0.22978178086E+00  0.34797982083E+01  0.34873830814E+01  0.00000000000E+00 0. -1.
</event>
<event>
 5    1  0.3490044E+002  0.1599629E+01  0.7818608E-02  0.3353766E+00
         11   -1    0    0    0    0  0.00000000000E+00  0.00000000000E+00  0.39999999674E+01  0.40000000000E+01  0.51100000000E-03 0. -1.
    9000002   -1    0    0    0    0 -0.00000000000E+00 -0.00000000000E+00  0.00000000000E+00  0.93800000000E+00  0.93800000000E+00 0.  1.
         11    1    1    2    0    0  0.66324947293E-03 -0.11903462354E-01  0.16231152659E+00  0.16274957788E+00  0.51100000000E-03 0. -1.
    9000002    1    1    2    0    0  0.62188118040E-01  0.27575215327E+00  0.53260524603E-01  0.98111533244E+00  0.93800000000E+00 0.  1.
         22    1    1    2    0    0 -0.62851367513E-01 -0.26384869092E+00  0.37844279162E+01  0.37941350897E+01  0.00000000000E+00 0. -1.
</event>
<event>
 5    1  0.3490044E+002  0.1598747E+01  0.7818608E-02  0.3354725E+00
         11   -1    0    0    0    0  0.00000000000E+00  0.00000000000E+00  0.39999999674E+01  0.40000000000E+01  0.51100000000E-03 0.  1.
    9000002   -1    0    0    0    0 -0.00000000000E+00 -0.00000000000E+00  0.00000000000E+00  0.93800000000E+00  0.93800000000E+00 0.  1.
         11    1    1    2    0    0 -0.10004483180E+00  0.25324047140E+00  0.19239644386E+01  0.19431364149E+01  0.51100000000E-03 0.  1.
    9000002    1    1    2    0    0  0.24129696545E+00 -0.54884332815E+00  0.25169027968E+00  0.11413348419E+01  0.93800000000E+00 0.  1.
         22    1    1    2    0    0 -0.14125213365E+00  0.29560285675E+00  0.18243452491E+01  0.18535287432E+01  0.00000000000E+00 0.  1.
</event>
<event>
 5    1  0.3490044E+002  0.1584051E+01  0.7818608E-02  0.3370858E+00
         11   -1    0    0    0    0  0.00000000000E+00  0.00000000000E+00  0.39999999674E+01  0.40000000000E+01  0.51100000000E-03 0. -1.
    9000002   -1    0    0    0    0 -0.00000000000E+00 -0.00000000000E+00  0.00000000000E+00  0.93800000000E+00  0.93800000000E+00 0. -1.
         11    1    1    2    0    0 -0.83362348673E-02  0.15428750437E+00  0.88788044257E+00  0.90122476011E+00  0.51100000000E-03 0. -1.
    9000002    1    1    2    0    0  0.28289067767E+00 -0.18109437192E+00  0.88116013299E-01  0.10002153462E+01  0.93800000000E+00 0. -1.
         22    1    1    2    0    0 -0.27455444280E+00  0.26806867547E-01  0.30240035115E+01  0.30365598936E+01  0.00000000000E+00 0. -1.
</event>
<event>
 5    1  0.3490044E+002  0.1599653E+01  0.7818608E-02  0.3353740E+00
         11   -1    0    0    0    0  0.00000000000E+00  0.00000000000E+00  0.39999999674E+01  0.40000000000E+01  0.51100000000E-03 0.  1.
    9000002   -1    0    0    0    0 -0.00000000000E+00 -0.00000000000E+00  0.00000000000E+00  0.93800000000E+00  0.93800000000E+00 0. -1.
         11    1    1    2    0    0  0.95388111623E-01  0.10593441688E+00  0.10964283726E+01  0.11056565606E+01  0.51100000000E-03 0.  1.
    9000002    1    1    2    0    0 -0.32534591596E+00 -0.35455333512E+00  0.15804824517E+00  0.10660118575E+01  0.93800000000E+00 0. -1.
         22    1    1    2    0    0  0.22995780434E+00  0.24861891824E+00  0.27455233496E+01  0.27663315820E+01  0.00000000000E+00 0.  1.
</event>
<event>
 5    1  0.3490044E+002  0.1480952E+01  0.7818608E-02  0.3493658E+00
         11   -1    0    0    0    0  0.00000000000E+00  0.00000000000E+00  0.39999999674E+01  0.40000000000E+01  0.51100000000E-03 0.  1.
    9000002   -1    0    0    0    0 -0.00000000000E+00 -0.00000000000E+00  0.00000000000E+00  0.93800000000E+00  0.93800000000E+00 0.  1.
         11    1    1    2    0    0  0.41497080167E-01 -0.38000460721E+00  0.24294792551E+01  0.24593688665E+01  0.51100000000E-03 0.  1.
    9000002    1    1    2    0    0 -0.55151060139E+00  0.24031666709E+00  0.38236971187E+00  0.11781199601E+01  0.93800000000E+00 0.  1.
         22    1    1    2    0    0  0.51001352122E+00  0.13968794012E+00  0.11881510004E+01  0.13005111734E+01  0.00000000000E+00 0. -1.
</event>
<event>
 5    1  0.3490044E+002  0.1599677E+01  0.7818608E-02  0.3353714E+00
         11   -1    0    0    0    0  0.00000000000E+00  0.00000000000E+00  0.39999999674E+01  0.40000000000E+01  0.51100000000E-03 0.  1.
    9000002   -1    0    0    0    0 -0.00000000000E+00 -0.00000000000E+00  0.00000000000E+00  0.93800000000E+00  0.93800000000E+00 0. -1.
         11    1    1    2    0    0  0.17306219784E+00  0.72372647565E-01  0.16727851027E+01  0.16832702057E+01  0.51100000000E-03 0.  1.
    9000002    1    1    2    0    0 -0.40045220214E+00 -0.16775535658E+00  0.12773654588E+00  0.10414722517E+01  0.93800000000E+00 0. -1.
         22    1    1    2    0    0  0.22739000430E+00  0.95382709013E-01  0.21994783188E+01  0.22132575427E+01  0.00000000000E+00 0.  1.
</event>
<event>
 5    1  0.3490044E+002  0.1599677E+01  0.7818608E-02  0.3353714E+00
         11   -1    0    0    0    0  0.00000000000E+00  0.00000000000E+00  0.39999999674E+01  0.40000000000E+01  0.51100000000E-03 0. -1.
    9000002   -1    0    0    0    0 -0.00000000000E+00 -0.00000000000E+00  0.00000000000E+00  0.93800000000E+00  0.93800000000E+00 0. -1.
         11    1    1    2    0    0 -0.23726986309E+00 -0.16606368428E+00  0.21656531858E+01  0.21849320625E+01  0.51100000000E-03 0. -1.
    9000002    1    1    2    0    0  0.41893440656E+00  0.29358691521E+00  0.17950122056E+00  0.10834038960E+01  0.93800000000E+00 0. -1.
         22    1    1    2    0    0 -0.18166454347E+00 -0.12752323093E+00  0.16548455610E+01  0.16696640415E+01  0.00000000000E+00 0. -1.
</event>
<event>
 5    1  0.3490044E+002  0.1593246E+01  0.7818608E-02  0.3360727E+00
         11   -1    0    0    0    0  0.00000000000E+00  0.00000000000E+00  0.39999999674E+01  0.40000000000E+01  0.51100000000E-03 0. -1.
    9000002   -1    0    0    0    0 -0.00000000000E+00 -0.00000000000E+00  0.00000000000E+00  0.93800000000E+00  0.93800000000E+00 0. -1.
         11    1    1    2    0    0  0.19338333826E-01  0.30761090329E-01  0.86989552311E+00  0.87065417823E+00  0.51100000000E-03 0. -1.
    9000002    1    1    2    0    0  0.22080141466E+00  0.52291730136E-01  0.39028957826E-01  0.96584416409E+00  0.93800000000E+00 0. -1.
         22    1    1    2    0    0 -0.24013974848E+00 -0.83052820465E-01  0.30910754864E+01  0.31015016577E+01  0.00000000000E+00 0. -1.
</event>
<event>
 5    1  0.3490044E+002  0.1597691E+01  0.7818608E-02  0.3355873E+00
         11   -1    0    0    0    0  0.00000000000E+00  0.00000000000E+00  0.39999999674E+01  0.40000000000E+01  0.51100000000E-03 0.  1.
    9000002   -1    0    0    0    0 -0.00000000000E+00 -0.00000000000E+00  0.00000000000E+00  0.93800000000E+00  0.93800000000E+00 0.  1.
         11    1    1    2    0    0 -0.77749373814E-01  0.46027280657E-01  0.90680819391E+00  0.91129843485E+00  0.51100000000E-03 0.  1.
    9000002    1    1    2    0    0  0.14533083629E+00 -0.23690521380E+00  0.52968129319E-01  0.97974218804E+00  0.93800000000E+00 0.  1.
         22    1    1    2    0    0 -0.67581462475E-01  0.19087793315E+00  0.30402236441E+01  0.30469593771E+01  0.00000000000E+00 0.  1.
</event>
<event>
 5    1  0.3490044E+002  0.1599676E+01  0.7818608E-02  0.3353715E+00
         11   -1    0    0    0    0  0.00000000000E+00  0.00000000000E+00  0.39999999674E+01  0.40000000000E+01  0.51100000000E-03 0. -1.
    9000002   -1    0    0    0    0 -0.00000000000E+00 -0.00000000000E+00  0.00000000000E+00  0.93800000000E+00  0.93800000000E+00 0.  1.
         11    1    1    2    0    0  0.98741411803E-02  0.28912965287E-02  0.15290503623E+00  0.15325165410E+00  0.51100000000E-03 0.  1.
    9000002    1    1    2    0    0 -0.25501507396E+00 -0.69205196779E-01  0.46435195514E-01  0.97561379377E+00  0.93800000000E+00 0.  1.
         22    1    1    2    0    0  0.24514093278E+00  0.66313900250E-01  0.38006597356E+01  0.38091345521E+01  0.00000000000E+00 0. -1.
</event>
<event>
 5    1  0.3490044E+002  0.1503214E+01  0.7818608E-02  0.3465612E+00
         11   -1    0    0    0    0  0.00000000000E+00  0.00000000000E+00  0.39999999674E+01  0.40000000000E+01  0.51100000000E-03 0.  1.
    9000002   -1    0    0    0    0 -0.00000000000E+00 -0.00000000000E+00  0.00000000000E+00  0.93800000000E+00  0.93800000000E+00 0.  1.
         11    1    1    2    0    0 -0.14047314344E+00  0.41977387762E+00  0.12281645725E+01  0.13055003986E+01  0.51100000000E-03 0.  1.
    9000002    1    1    2    0    0  0.35043237019E+00 -0.21099115115E+00  0.19874864232E+00  0.10424323166E+01  0.93800000000E+00 0.  1.
         22    1    1    2    0    0 -0.20995922675E+00 -0.20878272646E+00  0.25730867525E+01  0.25900672848E+01  0.00000000000E+00 0. -1.
</event>
<event>
 5    1  0.3490044E+002  0.1599270E+01  0.7818608E-02  0.3354156E+00
         11   -1    0    0    0    0  0.00000000000E+00  0.00000000000E+00  0.39999999674E+01  0.40000000000E+01  0.51100000000E-03 0. -1.
    9000002   -1    0    0    0    0 -0.00000000000E+00 -0.00000000000E+00  0.00000000000E+00  0.93800000000E+00  0.93800000000E+00 0.  1.
         11    1    1    2    0    0 -0.41598262010E-01 -0.53133963123E-01  0.87269085173E+00  0.87529607405E+00  0.51100000000E-03 0. -1.
    9000002    1    1    2    0    0  0.25475070400E+00  0.17825378910E+00  0.64878839477E-01  0.99031590835E+00  0.93800000000E+00 0.  1.
         22    1    1    2    0    0 -0.21315244199E+00 -0.12511982598E+00  0.30624302762E+01  0.30723880176E+01  0.00000000000E+00 0. -1.
</event>
<event>
 5    1  0.3490044E+002  0.1599675E+01  0.7818608E-02  0.3353716E+00
         11   -1    0    0    0    0  0.00000000000E+00  0.00000000000E+00  0.39999999674E+01  0.40000000000E+01  0.51100000000E-03 0.  1.
    9000002   -1    0    0    0    0 -0.00000000000E+00 -0.00000000000E+00  0.00000000000E+00  0.93800000000E+00  0.93800000000E+00 0.  1.
         11    1    1    2    0    0  0.14892825923E-01 -0.70418348279E-02  0.29610980690E+00  0.29656814152E+00  0.51100000000E-03 0.  1.
    9000002    1    1    2    0    0 -0.20041459847E+00  0.85428968266E-01  0.31458886506E-01  0.96348211267E+00  0.93800000000E+00 0.  1.
         22    1    1    2    0    0  0.18552177254E+00 -0.78387133438E-01  0.36724312740E+01  0.36779497458E+01  0.00000000000E+00 0.  1.
</event>
<event>
 5    1  0.3490044E+002  0.1585186E+01  0.7818608E-02  0.3369600E+00
         11   -1    0    0    0    0  0.00000000000E+00  0.00000000000E+00  0.39999999674E+01  0.40000000000E+01  0.51100000000E-03 0.  1.
    9000002   -1    0    0    0    0 -0.00000000000E+00 -0.00000000000E+00  0.00000000000E+00  0.93800000000E+00  0.93800000000E+00 0.  1.
         11    1    1    2    0    0  0.65396736919E-01 -0.20408907999E-01  0.18521192897E+01  0.18533859234E+01  0.51100000000E-03 0.  1.
    9000002    1    1    2    0    0  0.13362144523E+00 -0.10162577086E+00  0.29450473874E-01  0.95335922838E+00  0.93800000000E+00 0.  1.
         22    1    1    2    0    0 -0.19901818215E+00  0.12203467885E+00  0.21184302038E+01  0.21312548482E+01  0.00000000000E+00 0.  1.
</event>
<event>
 5    1  0.3490044E+002  0.1546667E+01  0.7818608E-02  0.3413364E+00
         11   -1    0    0    0    0  0.00000000000E+00  0.00000000000E+00  0.39999999674E+01  0.40000000000E+01  0.51100000000E-03 0.  1.
    9000002   -1    0    0    0    0 -0.00000000000E+00 -0.00000000000E+00  0.00000000000E+00  0.93800000000E+00  0.93800000000E+00 0.  1.
         11    1    1    2    0    0  0.18745169924E+00  0.10503320276E-01  0.79814258058E+00  0.81992700854E+00  0.51100000000E-03 0.  1.
    9000002    1    1    2    0    0  0.17559781385E+00 -0.25395296524E-01  0.61335425970E-01  0.95660103899E+00  0.93800000000E+00 0.  1.
         22    1    1    2    0    0 -0.36304951309E+00  0.14891976248E-01  0.31405219608E+01  0.31614719525E+01  0.00000000000E+00 0.  1.
</event>
<event>
 5    1  0.3490044E+002  0.1599666E+01  0.7818608E-02  0.3353726E+00
         11   -1    0    0    0    0  0.00000000000E+00  0.00000000000E+00  0.39999999674E+01  0.40000000000E+01  0.51100000000E-03 0.  1.
    9000002   -1    0    0    0    0 -0.00000000000E+00 -0.00000000000E+00  0.00000000000E+00  0.93800000000E+00  0.93800000000E+00 0.  1.
         11    1    1    2    0    0  0.56382926383E-01 -0.39769687187E-01  0.83490032014E+00  0.83774666105E+00  0.51100000000E-03 0.  1.
    9000002    1    1    2    0    0 -0.27353672039E+00  0.17421384571E+00  0.70336733221E-01  0.99496937515E+00  0.93800000000E+00 0.  1.
         22    1    1    2    0    0  0.21715379400E+00 -0.13444415852E+00  0.30947629140E+01  0.31052839638E+01  0.00000000000E+00 0.  1.
</event>
<event>
 5    1  0.3490044E+002  0.1599677E+01  0.7818608E-02  0.3353714E+00
         11   -1    0    0    0    0  0.00000000000E+00  0.00000000000E+00  0.39999999674E+01  0.40000000000E+01  0.51100000000E-03 0.  1.
    9000002   -1    0    0    0    0 -0.00000000000E+00 -0.00000000000E+00  0.00000000000E+00  0.93800000000E+00  0.93800000000E+00 0. -1.
         11    1    1    2    0    0  0.23572883924E-01  0.27370402272E-01  0.47916756443E+00  0.48052745572E+00  0.51100000000E-03 0. -1.
    9000002    1    1    2    0    0 -0.19509029020E+00 -0.22364165389E+00  0.58739164433E-01  0.98558109769E+00  0.93800000000E+00 0. -1.
         22    1    1    2    0    0  0.17151740628E+00  0.19627125162E+00  0.34620932385E+01  0.34718914466E+01  0.00000000000E+00 0.  1.
</event>
<event>
 5    1  0.3490044E+002  0.1599425E+01  0.7818608E-02  0.3353988E+00
         11   -1    0    0    0    0  0.00000000000E+00  0.00000000000E+00  0.39999999674E+01  0.40000000000E+01  0.51100000000E-03 0.  1.
    9000002   -1    0    0    0    0 -0.00000000000E+00 -0.00000000000E+00  0.00000000000E+00  0.93800000000E+00  0.93800000000E+00 0.  1.
         11    1    1    2    0    0 -0.17359535448E-01  0.12217733098E-01  0.35493075429E+00  0.35556536380E+00  0.51100000000E-03 0.  1.
    9000002    1    1    2    0    0  0.29950801661E+00 -0.78026984204E-01  0.64160937595E-01  0.98982518062E+00  0.93800000000E+00 0.  1.
         22    1    1    2    0    0 -0.28214848116E+00  0.65809251106E-01  0.35809082755E+01  0.35926094556E+01  0.00000000000E+00 0.  1.
</event>
<event>
 5    1  0.3490044E+002  0.1599654E+01  0.7818608E-02  0.3353739E+00
         11   -1    0    0    0    0  0.00000000000E+00  0.00000000000E+00  0.39999999674E+01  0.40000000000E+01  0.51100000000E-03 0. -1.
    9000002   -1    0    0    0    0 -0.00000000000E+00 -0.00000000000E+00  0.00000000000E+00  0.93800000000E+00  0.93800000000E+00 0. -1.
         11    1    1    2    0    0 -0.42335655549E-01  0.27729909866E-01  0.56258402294E+00  0.56485599901E+00  0.51100000000E-03 0. -1.
    9000002    1    1    2    0    0  0.26759458457E+00 -0.19626619535E+00  0.73716210564E-01  0.99770003550E+00  0.93800000000E+00 0. -1.
         22    1    1    2    0    0 -0.22525892902E+00  0.16853628549E+00  0.33636997339E+01  0.33754439655E+01  0.00000000000E+00 0. -1.
</event>
<event>
 5    1  0.3490044E+002  0.1598287E+01  0.7818608E-02  0.3355224E+00
         11   -1    0    0    0    0  0.00000000000E+00  0.00000000000E+00  0.39999999674E+01  0.40000000000E+01  0.51100000000E-03 0. -1.
    9000002   -1    0    0    0    0 -0.00000000000E+00 -0.00000000000E+00  0.00000000000E+00  0.93800000000E+00  0.93800000000E+00 0.  1.
         11    1    1    2    0    0  0.15795649716E+00  0.71978950117E-01  0.12576157755E+01  0.12695388628E+01  0.51100000000E-03 0. -1.
    9000002    1    1    2    0    0 -0.58738780661E+00 -0.16705814845E+00  0.26219584752E+00  0.11495753663E+01  0.93800000000E+00 0.  1.
         22    1    1    2    0    0  0.42943130945E+00  0.95079198331E-01  0.24801883443E+01  0.25188857709E+01  0.00000000000E+00 0. -1.
</event>
<event>
 5    1  0.3490044E+002  0.1599677E+01  0.7818608E-02  0.3353714E+00
         11   -1    0    0    0    0  0.00000000000E+00  0.00000000000E+00  0.39999999674E+01  0.40000000000E+01  0.51100000000E-03 0. -1.
    9000002   -1    0    0    0    0 -0.00000000000E+00 -0.00000000000E+00  0.00000000000E+00  0.93800000000E+00  0.93800000000E+00 0.  1.
         11    1    1    2    0    0 -0.20971397661E+00 -0.77345092262E+00  0.24383457801E+01  0.25666586618E+01  0.51100000000E-03 0. -1.
    9000002    1    1    2    0    0  0.26953750541E+00  0.99364910837E+00  0.86798550547E+00  0.16411068994E+01  0.93800000000E+00 0.  1.
         22    1    1    2    0    0 -0.59823528796E-01 -0.22019818575E+00  0.69366868181E+00  0.73023443888E+00  0.00000000000E+00 0. -1.
</event>
<event>
 5    1  0.3490044E+002  0.1570971E+01  0.7818608E-02  0.3385486E+00
         11   -1    0    0    0    0  0.00000000000E+00  0.00000000000E+00  0.39999999674E+01  0.40000000000E+01  0.51100000000E-03 0.  1.
    9000002   -1    0    0    0    0 -0.00000000000E+00 -0.00000000000E+00  0.00000000000E+00  0.93800000000E+00  0.93800000000E+00 0. -1.
         11    1    1    2    0    0 -0.14714738270E+00  0.19203213499E-01  0.22092089903E+01  0.22141873768E+01  0.51100000000E-03 0.  1.
    9000002    1    1    2    0    0 -0.99697959689E-01 -0.22998380938E-01  0.28167220256E-01  0.94398411056E+00  0.93800000000E+00 0. -1.
         22    1    1    2    0    0  0.24684534239E+00  0.37951674387E-02  0.17626237568E+01  0.17798285126E+01  0.00000000000E+00 0.  1.
</event>
<event>
 5    1  0.3490044E+002  0.1597598E+01  0.7818608E-02  0.3355974E+00
         11   -1    0    0    0    0  0.00000000000E+00  0.00000000000E+00  0.39999999674E+01  0.40000000000E+01  0.51100000000E-03 0. -1.
    9000002   -1    0    0    0    0 -0.00000000000E+00 -0.00000000000E+00  0.00000000000E+00  0.93800000000E+00  0.93800000000E+00 0.  1.
         11    1    1    2    0    0 -0.31867375525E+00  0.49543406598E-02  0.22284167902E+01  0.22510928812E+01  0.51100000000E-03 0. -1.
    9000002    1    1    2    0    0  0.59722243631E+00  0.59147534587E-01  0.25336937333E+00  0.11420215009E+01  0.93800000000E+00 0.  1.
         22    1    1    2    0    0 -0.27854868106E+00 -0.64101875246E-01  0.15182138038E+01  0.15448856179E+01  0.00000000000E+00 0. -1.
</event>
<event>
 5    1  0.3490044E+002  0.1592728E+01  0.7818608E-02  0.3361294E+00
         11   -1    0    0    0    0  0.00000000000E+00  0.00000000000E+00  0.39999999674E+01  0.40000000000E+01  0.51100000000E-03 0.  1.
    9000002   -1    0    0    0    0 -0.00000000000E+00 -0.00000000000E+00  0.00000000000E+00  0.93800000000E+00  0.93800000000E+00 0.  1.
         11    1    1    2    0    0 -0.16644721824E+00  0.96021624594E-01  0.13382327647E+01  0.13519585876E+01  0.51100000000E-03 0.  1.
    9000002    1    1    2    0    0  0.36995486688E+00 -0.26821918221E-01  0.98164306758E-01  0.10134427709E+01  0.93800000000E+00 0.  1.
         22    1    1    2    0    0 -0.20350764864E+00 -0.69199706373E-01  0.25636028959E+01  0.25725986415E+01  0.00000000000E+00 0. -1.
</event>
<event>
 5    1  0.3490044E+002  0.1584215E+01  0.7818608E-02  0.3370676E+00
         11   -1    0    0    0    0  0.00000000000E+00  0.00000000000E+00  0.39999999674E+01  0.40000000000E+01  0.51100000000E-03 0. -1.
    9000002   -1    0    0    0    0 -0.00000000000E+00 -0.00000000000E+00  0.00000000000E+00  0.93800000000E+00  0.93800000000E+00 0. -1.
         11    1    1    2    0    0  0.14269451613E+00 -0.88350970752E-01  0.18269764900E+01  0.18346691732E+01  0.51100000000E-03 0. -1.
    9000002    1    1    2    0    0 -0.36372858578E+00 -0.12437858175E+00  0.11231745825E+00  0.10199155490E+01  0.93800000000E+00 0. -1.
         22    1    1    2    0    0  0.22103406965E+00  0.21272955250E+00  0.20607060191E+01  0.20834152778E+01  0.00000000000E+00 0. -1.
</event>
<event>
 5    1  0.3490044E+002  0.1599639E+01  0.7818608E-02  0.3353755E+00
         11   -1    0    0    0    0  0.00000000000E+00  0.00000000000E+00  0.39999999674E+01  0.40000000000E+01  0.51100000000E-03 0.  1.
    9000002   -1    0    0    0    0 -0.00000000000E+00 -0.00000000000E+00  0.00000000000E+00  0.93800000000E+00  0.93800000000E+00 0. -1.
         11    1    1    2    0    0  0.13217628967E-02  0.79371594042E-02  0.18407701199E+00  0.18425350205E+00  0.51100000000E-03 0.  1.
    9000002    1    1    2    0    0  0.25549041879E-01 -0.20936874175E+00  0.29500158869E-01  0.96187435922E+00  0.93800000000E+00 0. -1.
         22    1    1    2    0    0 -0.26870804775E-01  0.20143158234E+00  0.37864227965E+01  0.37918721387E+01  0.00000000000E+00 0.  1.
</event>
<event>
 5    1  0.3490044E+002  0.1599293E+01  0.7818608E-02  0.3354131E+00
         11   -1    0    0    0    0  0.00000000000E+00  0.00000000000E+00  0.39999999674E+01  0.40000000000E+01  0.51100000000E-03 0.  1.
    9000002   -1    0    0    0    0 -0.00000000000E+00 -0.00000000000E+00  0.00000000000E+00  0.93800000000E+00  0.93800000000E+00 0. -1.
         11    1    1    2    0    0  0.34875463907E-01 -0.76139247101E-02  0.42490071839E+00  0.42639787927E+00  0.51100000000E-03 0.  1.
    9000002    1    1    2    0    0 -0.24925606046E+00 -0.42233372228E-01  0.42759415919E-01  0.97241174872E+00  0.93800000000E+00 0. -1.
         22    1    1    2    0    0  0.21438059655E+00  0.49847296938E-01  0.35323398330E+01  0.35391903720E+01  0.00000000000E+00 0.  1.
</event>
<event>
 5    1  0.3490044E+002  0.1599644E+01  0.7818608E-02  0.3353750E+00
         11   -1    0    0    0    0  0.00000000000E+00  0.00000000000E+00  0.39999999674E+01  0.40000000000E+01  0.51100000000E-03 0.  1.
    9000002   -1    0    0    0    0 -0.00000000000E+00 -0.00000000000E+00  0.00000000000E+00  0.93800000000E+00  0.93800000000E+00 0. -1.
         11    1    1    2    0    0  0.12473310266E-01 -0.17996510829E-01  0.35031223237E+00  0.35099626656E+00  0.51100000000E-03 0.  1.
    9000002    1    1    2    0    0 -0.18254605737E+00  0.18954020699E+00  0.46073943490E-01  0.97530270244E+00  0.93800000000E+00 0. -1.
         22    1    1    2    0    0  0.17007274710E+00 -0.17154369616E+00  0.36036137915E+01  0.36117010310E+01  0.00000000000E+00 0.  1.
</event>
<event>
 5    1  0.3490044E+002  0.1588611E+01  0.7818608E-02  0.3365819E+00
         11   -1    0    0    0    0  0.00000000000E+00  0.00000000000E+00  0.39999999674E+01  0.40000000000E+01  0.51100000000E-03 0. -1.
    9000002   -1    0    0    0    0 -0.00000000000E+00 -0.00000000000E+00  0.00000000000E+00  0.93800000000E+00  0.93800000000E+00 0. -1.
         11    1    1    2    0    0 -0.15365276534E-01  0.10088952396E+00  0.16179771029E+01  0.16211924482E+01  0.51100000000E-03 0. -1.
    9000002    1    1    2    0    0 -0.25035920925E+00 -0.14997856289E+00  0.65453350623E-01  0.98453107828E+00  0.93800000000E+00 0. -1.
         22    1    1    2    0    0  0.26572448578E+00  0.49089038937E-01  0.23165695139E+01  0.23322764735E+01  0.00000000000E+00 0. -1.
</event>
<event>
 5    1  0.3490044E+002  0.1599675E+01  0.7818608E-02  0.3353717E+00
         11   -1    0    0    0    0  0.00000000000E+00  0.00000000000E+00  0.39999999674E+01  0.40000000000E+01  0.51100000000E-03 0. -1.
    9000002   -1    0    0    0    0 -0.00000000000E+00 -0.00000000000E+00  0.00000000000E+00  0.93800000000E+00  0.93800000000E+00 0.  1.
         11    1    1    2    0    0 -0.10440730040E-01  0.81380381852E-01  0.10485146516E+01  0.10517200251E+01  0.51100000000E-03 0. -1.
    9000002    1    1    2    0    0  0.36912159140E-01 -0.31092647052E+00  0.65485747459E-01  0.99104498419E+00  0.93800000000E+00 0.  1.
         22    1    1    2    0    0 -0.26471429100E-01  0.22954608867E+00  0.28859995683E+01  0.28952349907E+01  0.00000000000E+00 0. -1.
</event>
<event>
 5    1  0.3490044E+002  0.1599649E+01  0.7818608E-02  0.3353744E+00
         11   -1    0    0    0    0  0.00000000000E+00  0.00000000000E+00  0.39999999674E+01  0.40000000000E+01  0.51100000000E-03 0. -1.
    9000002   -1    0    0    0    0 -0.00000000000E+00 -0.00000000000E+00  0.00000000000E+00  0.93800000000E+00  0.93800000000E+00 0. -1.
         11    1    1    2    0    0 -0.15296054511E-01 -0.12751548116E-02  0.27659511386E+00  0.27702114258E+00  0.51100000000E-03 0. -1.
    9000002    1    1    2    0    0  0.25760386024E+00 -0.66312705845E-02  0.44159262745E-01  0.97375446754E+00  0.93800000000E+00 0. -1.
         22    1    1    2    0    0 -0.24230780573E+00  0.79064253961E-02  0.36792455908E+01  0.36872243899E+01  0.00000000000E+00 0. -1.
</event>
<event>
 5    1  0.3490044E+002  0.1562972E+01  0.7818608E-02  0.3394560E+00
         11   -1    0    0    0    0  0.00000000000E+00  0.00000000000E+00  0.39999999674E+01  0.40000000000E+01  0.51100000000E-03 0.  1.
    9000002   -1    0    0    0    0 -0.00000000000E+00 -0.00000000000E+00  0.00000000000E+00  0.93800000000E+00  0.93800000000E+00 0. -1.
         11    1    1    2    0    0 -0.29286286012E+00 -0.32470373882E+00  0.22973216693E+01  0.23385654334E+01  0.51100000000E-03 0.  1.
    9000002    1    1    2    0    0  0.65281070947E+00  0.21729565068E+00  0.37896003167E+00  0.12234516451E+01  0.93800000000E+00 0. -1.
         22    1    1    2    0    0 -0.35994784935E+00  0.10740808814E+00  0.13237182664E+01  0.13759829215E+01  0.00000000000E+00 0. -1.
</event>
<event>
 5    1  0.3490044E+002  0.1599676E+01  0.7818608E-02  0.3353715E+00
         11   -1    0    0    0    0  0.00000000000E+00  0.00000000000E+00  0.39999999674E+01  0.40000000000E+01  0.51100000000E-03 0. -1.
    9000002   -1    0    0    0    0 -0.00000000000E+00 -0.00000000000E+00  0.00000000000E+00  0.93800000000E+00  0.93800000000E+00 0.  1.
         11    1    1    2    0    0 -0.14826527608E-01 -0.24835536554E-01  0.30562395510E+00  0.30699005334E+00  0.51100000000E-03 0. -1.
    9000002    1    1    2    0    0  0.18426311052E+00  0.31586161923E+00  0.89821473591E-01  0.10107588009E+01  0.93800000000E+00 0.  1.
         22    1    1    2    0    0 -0.16943658292E+00 -0.29102608267E+00  0.36045545387E+01  0.36202511458E+01  0.00000000000E+00 0. -1.
</event>
<event>
 5    1  0.3490044E+002  0.1599601E+01  0.7818608E-02  0.3353797E+00
         11   -1    0    0    0    0  0.00000000000E+00  0.00000000000E+00  0.39999999674E+01  0.40000000000E+01  0.51100000000E-03 0.  1.
    9000002   -1    0    0    0    0 -0.00000000000E+00 -0.00000000000E+00  0.00000000000E+00  0.93800000000E+00  0.93800000000E+00 0. -1.
         11    1    1    2    0    0 -0.14510901568E-02  0.23875705760E-01  0.26152621260E+00  0.26261830856E+00  0.51100000000E-03 0.  1.
    9000002    1    1    2    0    0  0.68800343635E-02 -0.28303106217E+00  0.53449189583E-01  0.98125161548E+00  0.93800000000E+00 0. -1.
         22    1    1    2    0    0 -0.54289442067E-02  0.25915535641E+00  0.36850245652E+01  0.36941300760E+01  0.00000000000E+00 0.  1.
</event>
<event>
 5    1  0.3490044E+002  0.1599598E+01  0.7818608E-02  0.3353800E+00
         11   -1    0    0    0    0  0.00000000000E+00  0.00000000000E+00  0.39999999674E+01  0.40000000000E+01  0.51100000000E-03 0.  1.
    9000002   -1    0    0    0    0 -0.00000000000E+00 -0.00000000000E+00  0.00000000000E+00  0.93800000000E+00  0.93800000000E+00 0.  1.
         11    1    1    2    0    0 -0.17612309113E-01  0.10116229800E-01  0.18763104146E+00  0.18872784739E+00  0.51100000000E-03 0.  1.
    9000002    1    1    2    0    0  0.44818704382E+00 -0.17196254204E+00  0.15730653928E+00  0.10653788478E+01  0.93800000000E+00 0.  1.
         22    1    1    2    0    0 -0.43057473471E+00  0.16184631224E+00  0.36550623866E+01  0.36838933048E+01  0.00000000000E+00 0.  1.
</event>
<event>
 5    1  0.3490044E+002  0.1599608E+01  0.7818608E-02  0.3353789E+00
         11   -1    0    0    0    0  0.00000000000E+00  0.00000000000E+00  0.39999999674E+01  0.40000000000E+01  0.51100000000E-03 0.  1.
    9000002   -1    0    0    0    0 -0.00000000000E+00 -0.00000000000E+00  0.00000000000E+00  0.93800000000E+00  0.93800000000E+00 0.  1.
         11    1    1    2    0    0  0.58406460539E-01  0.73674836437E-01  0.10507480496E+01  0.10549459801E+01  0.51100000000E-03 0.  1.
    9000002    1    1    2    0    0 -0.18994916470E+00 -0.29256583448E+00  0.81629765800E-01  0.10040830998E+01  0.93800000000E+00 0.  1.
         22    1    1    2    0    0  0.13154270416E+00  0.21889099804E+00  0.28676221520E+01  0.28789709201E+01  0.00000000000E+00 0.  1.
</event>
<event>
 5    1  0.3490044E+002  0.1599546E+01  0.7818608E-02  0.3353857E+00
         11   -1    0    0    0    0  0.00000000000E+00  0.00000000000E+00  0.39999999674E+01  0.40000000000E+01  0.51100000000E-03 0.  1.
    9000002   -1    0    0    0    0 -0.00000000000E+00 -0.00000000000E+00  0.00000000000E+00  0.93800000000E+00  0.93800000000E+00 0.  1.
         11    1    1    2    0    0 -0.28567376183E-01 -0.50312084838E-01  0.10043295791E+01  0.10059948139E+01  0.51100000000E-03 0.  1.
    9000002    1    1    2    0    0  0.13483830332E+00  0.23948836572E+00  0.50379955691E-01  0.97873294892E+00  0.93800000000E+00 0.  1.
         22    1    1    2    0    0 -0.10627092714E+00 -0.18917628088E+00  0.29452904325E+01  0.29532722372E+01  0.00000000000E+00 0. -1.
</event>
<event>
 5    1  0.3490044E+002  0.1599675E+01  0.7818608E-02  0.3353716E+00
         11   -1    0    0    0    0  0.00000000000E+00  0.00000000000E+00  0.39999999674E+01  0.40000000000E+01  0.51100000000E-03 0. -1.
    9000002   -1    0    0    0    0 -0.00000000000E+00 -0.00000000000E+00  0.00000000000E+00  0.93800000000E+00  0.93800000000E+00 0. -1.
         11    1    1    2    0    0  0.99323521983E-02  0.20196724669E-01  0.38303608995E+00  0.38369710271E+00  0.51100000000E-03 0. -1.
    9000002    1    1    2    0    0 -0.96687714634E-01 -0.21422742715E+00  0.36657117564E-01  0.96769295180E+00  0.93800000000E+00 0. -1.
         22    1    1    2    0    0  0.86755362436E-01  0.19403070248E+00  0.35803067598E+01  0.35866099455E+01  0.00000000000E+00 0. -1.
</event>
<event>
 5    1  0.3490044E+002  0.1599668E+01  0.7818608E-02  0.3353724E+00
         11   -1    0    0    0    0  0.00000000000E+00  0.00000000000E+00  0.39999999674E+01  0.40000000000E+01  0.51100000000E-03 0. -1.
    9000002   -1    0    0    0    0 -0.00000000000E+00 -0.00000000000E+00  0.00000000000E+00  0.93800000000E+00  0.93800000000E+00 0.  1.
         11    1    1    2    0    0 -0.17457344173E-01  0.30982272996E-01  0.54257034642E+00  0.54373477178E+00  0.51100000000E-03 0. -1.
    9000002    1    1    2    0    0  0.11580087176E+00 -0.21272203976E+00  0.38951457598E-01  0.96954717479E+00  0.93800000000E+00 0.  1.
         22    1    1    2    0    0 -0.98343527586E-01  0.18173976676E+00  0.34184781633E+01  0.34247180534E+01  0.00000000000E+00 0. -1.
</event>
<event>
 5    1  0.3490044E+002  0.1599410E+01  0.7818608E-02  0.3354004E+00
         11   -1    0    0    0    0  0.00000000000E+00  0.00000000000E+00  0.39999999674E+01  0.40000000000E+01  0.51100000000E-03 0.  1.
    9000002   -1    0    0    0    0 -0.00000000000E+00 -0.00000000000E+00  0.00000000000E+00  0.93800000000E+00  0.93800000000E+00 0.  1.
         11    1    1    2    0    0 -0.58289540976E-01 -0.85881372043E-01  0.58612133134E+00  0.59524092335E+00  0.51100000000E-03 0.  1.
    9000002    1    1    2    0    0  0.30105383748E+00  0.49543751242E+00  0.23376080984E+00  0.11272000080E+01  0.93800000000E+00 0.  1.
         22    1    1    2    0    0 -0.24276429650E+00 -0.40955614038E+00  0.31801178262E+01  0.32155590687E+01  0.00000000000E+00 0.  1.
</event>
<event>
 5    1  0.3490044E+002  0.1530970E+01  0.7818608E-02  0.3431872E+00
         11   -1    0    0    0    0  0.00000000000E+00  0.00000000000E+00  0.39999999674E+01  0.40000000000E+01  0.51100000000E-03 0. -1.
    9000002   -1    0    0    0    0 -0.00000000000E+00 -0.00000000000E+00  0.00000000000E+00  0.93800000000E+00  0.93800000000E+00 0. -1.
         11    1    1    2    0    0  0.27080491351E+00 -0.27753232031E+00  0.19237907879E+01  0.19624807634E+01  0.51100000000E-03 0. -1.
    9000002    1    1    2    0    0 -0.31254448502E+00 -0.32105055836E-01  0.12225962992E+00  0.99674781506E+00  0.93800000000E+00 0.  1.
         22    1    1    2    0    0  0.41739571507E-01  0.30963737614E+00  0.19539495496E+01  0.19787714216E+01  0.00000000000E+00 0.  1.
</event>
<event>
 5    1  0.3490044E+002  0.1599202E+01  0.7818608E-02  0.3354230E+00
         11   -1    0    0    0    0  0.00000000000E+00  0.00000000000E+00  0.39999999674E+01  0.40000000000E+01  0.51100000000E-03 0.  1.
    9000002   -1    0    0    0    0 -0.00000000000E+00 -0.00000000000E+00  0.00000000000E+00  0.93800000000E+00  0.93800000000E+00 0.  1.
         11    1    1    2    0    0 -0.97371886265E-01  0.28664263374E-01  0.11151328921E+01  0.11197430743E+01  0.51100000000E-03 0.  1.
    9000002    1    1    2    0    0  0.35896726048E+00 -0.19303560734E-01  0.87127231497E-01  0.10082982079E+01  0.93800000000E+00 0.  1.
         22    1    1    2    0    0 -0.26159537422E+00 -0.93607026395E-02  0.27977398438E+01  0.28099587179E+01  0.00000000000E+00 0.  1.
</event>
<event>
 5    1  0.3490044E+002  0.1557785E+01  0.7818608E-02  0.3400496E+00
         11   -1    0    0    0    0  0.00000000000E+00  0.00000000000E+00  0.39999999674E+01  0.40000000000E+01  0.51100000000E-03 0. -1.
    9000002   -1    0    0    0    0 -0.00000000000E+00 -0.00000000000E+00  0.00000000000E+00  0.93800000000E+00  0.93800000000E+00 0. -1.
         11    1    1    2    0    0  0.36778417169E-01  0.15105701872E+00  0.46990285642E+00  0.49495437211E+00  0.51100000000E-03 0. -1.
    9000002    1    1    2    0    0  0.14240286843E+00  0.39583781041E-02  0.44914372034E-01  0.94981869139E+00  0.93800000000E+00 0. -1.
         22    1    1    2    0    0 -0.17918128560E+00 -0.15501539682E+00  0.34851827389E+01  0.34932269365E+01  0.00000000000E+00 0. -1.
</event>
<event>
 5    1  0.3490044E+002  0.1539327E+01  0.7818608E-02  0.3421968E+00
         11   -1    0    0    0    0  0.00000000000E+00  0.00000000000E+00  0.39999999674E+01  0.40000000000E+01  0.51100000000E-03 0. -1.
    9000002   -1    0    0    0    0 -0.00000000000E+00 -0.00000000000E+00  0.00000000000E+00  0.93800000000E+00  0.93800000000E+00 0. -1.
         11    1    1    2    0    0  0.16495105507E+00 -0.38649680263E-01  0.35147486092E+00  0.39017622600E+00  0.51100000000E-03 0. -1.
    9000002    1    1    2    0    0  0.46969040634E-01  0.89673608919E-01  0.52190126458E-01  0.94488901794E+00  0.93800000000E+00 0. -1.
         22    1    1    2    0    0 -0.21192009570E+00 -0.51023928656E-01  0.35963349800E+01  0.36029347561E+01  0.00000000000E+00 0. -1.
</event>
<event>
 5    1  0.3490044E+002  0.1599673E+01  0.7818608E-02  0.3353718E+00
         11   -1    0    0    0    0  0.00000000000E+00  0.00000000000E+00  0.39999999674E+01  0.40000000000E+01  0.51100000000E-03 0. -1.
    9000002   -1    0    0    0    0 -0.00000000000E+00 -0.00000000000E+00  0.00000000000E+00  0.93800000000E+00  0.93800000000E+00 0.  1.
         11    1    1    2    0    0 -0.44220185141E-01 -0.10408215455E+00  0.12421052993E+01  0.12472427011E+01  0.51100000000E-03 0. -1.
    9000002    1    1    2    0    0  0.14064578497E+00  0.33434228955E+00  0.88345669401E-01  0.10095617667E+01  0.93800000000E+00 0.  1.
         22    1    1    2    0    0 -0.96425599831E-01 -0.23026013499E+00  0.26695489986E+01  0.26811955323E+01  0.00000000000E+00 0. -1.
</event>
<event>
 5    1  0.3490044E+002  0.1595917E+01  0.7818608E-02  0.3357807E+00
         11   -1    0    0    0    0  0.00000000000E+00  0.00000000000E+00  0.39999999674E+01  0.40000000000E+01  0.51100000000E-03 0. -1.
    9000002   -1    0    0    0    0 -0.00000000000E+00 -0.00000000000E+00  0.00000000000E+00  0.93800000000E+00  0.93800000000E+00 0. -1.
         11    1    1    2    0    0  0.32079935241E-01 -0.81943062813E-02  0.42484500070E+00  0.42613355259E+00  0.51100000000E-03 0. -1.
    9000002    1    1    2    0    0 -0.56111437241E+00  0.36922310993E+00  0.32414963246E+00  0.11983705721E+01  0.93800000000E+00 0. -1.
         22    1    1    2    0    0  0.52903443717E+00 -0.36102880365E+00  0.32510053342E+01  0.33134958753E+01  0.00000000000E+00 0. -1.
</event>
<event>
 5    1  0.3490044E+002  0.1578596E+01  0.7818608E-02  0.3376927E+00
         11   -1    0    0    0    0  0.00000000000E+00  0.00000000000E+00  0.39999999674E+01  0.40000000000E+01  0.51100000000E-03 0. -1.
    9000002   -1    0    0    0    0 -0.00000000000E+00 -0.00000000000E+00  0.00000000000E+00  0.93800000000E+00  0.93800000000E+00 0.  1.
         11    1    1    2    0    0 -0.83575236029E-01  0.85381250162E-02  0.22787306028E+01  0.22802787419E+01  0.51100000000E-03 0. -1.
    9000002    1    1    2    0    0 -0.15202389858E+00  0.32204593871E-01  0.31695091655E-01  0.95131329248E+00  0.93800000000E+00 0.  1.
         22    1    1    2    0    0  0.23559913461E+00 -0.40742718887E-01  0.16895742729E+01  0.17064079656E+01  0.00000000000E+00 0. -1.
</event>
<event>
 5    1  0.3490044E+002  0.1598809E+01  0.7818608E-02  0.3354657E+00
         11   -1    0    0    0    0  0.00000000000E+00  0.00000000000E+00  0.39999999674E+01  0.40000000000E+01  0.51100000000E-03 0.  1.
    9000002   -1    0    0    0    0 -0.00000000000E+00 -0.00000000000E+00  0.00000000000E+00  0.93800000000E+00  0.93800000000E+00 0.  1.
         11    1    1    2    0    0  0.16952739580E+00  0.40166029031E-01  0.19601981187E+01  0.19679252460E+01  0.51100000000E-03 0.  1.
    9000002    1    1    2    0    0 -0.36918555943E+00 -0.16646239772E-01  0.92486516165E-01  0.10124094183E+01  0.93800000000E+00 0.  1.
         22    1    1    2    0    0  0.19965816362E+00 -0.23519789259E-01  0.19473153324E+01  0.19576653357E+01  0.00000000000E+00 0.  1.
</event>
<event>
 5    1  0.3490044E+002  0.1599675E+01  0.7818608E-02  0.3353716E+00
         11   -1    0    0    0    0  0.00000000000E+00  0.00000000000E+00  0.39999999674E+01  0.40000000000E+01  0.51100000000E-03 0. -1.
    9000002   -1    0    0    0    0 -0.00000000000E+00 -0.00000000000E+00  0.00000000000E+00  0.93800000000E+00  0.93800000000E+00 0.  1.
         11    1    1    2    0    0 -0.72763232371E-01  0.39431482081E-01  0.88116836120E+00  0.88504647994E+00  0.51100000000E-03 0. -1.
    9000002    1    1    2    0    0  0.32874891865E+00 -0.17649872695E+00  0.93602673367E-01  0.10138210456E+01  0.93800000000E+00 0.  1.
         22    1    1    2    0    0 -0.25598568628E+00  0.13706724487E+00  0.30252289328E+01  0.30391324744E+01  0.00000000000E+00 0. -1.
</event>
<event>
 5    1  0.3490044E+002  0.1578114E+01  0.7818608E-02  0.3377466E+00
         11   -1    0    0    0    0  0.00000000000E+00  0.00000000000E+00  0.39999999674E+01  0.40000000000E+01  0.51100000000E-03 0.  1.
    9000002   -1    0    0    0    0 -0.00000000000E+00 -0.00000000000E+00  0.00000000000E+00  0.93800000000E+00  0.93800000000E+00 0. -1.
         11    1    1    2    0    0  0.32238248345E-01 -0.13852953374E+00  0.11160681722E+01  0.11250947349E+01  0.51100000000E-03 0.  1.
    9000002    1    1    2    0    0  0.22648076130E+00  0.41722886776E-01  0.51705098585E-01  0.96723924225E+00  0.93800000000E+00 0. -1.
         22    1    1    2    0    0 -0.25871900965E+00  0.96806646967E-01  0.28322266966E+01  0.28456660229E+01  0.00000000000E+00 0.  1.
</event>
<event>
 5    1  0.3490044E+002  0.1599672E+01  0.7818608E-02  0.3353719E+00
         11   -1    0    0    0    0  0.00000000000E+00  0.00000000000E+00  0.39999999674E+01  0.40000000000E+01  0.51100000000E-03 0. -1.
    9000002   -1    0    0    0    0 -0.00000000000E+00 -0.00000000000E+00  0.00000000000E+00  0.93800000000E+00  0.93800000000E+00 0.  1.
         11    1    1    2    0    0  0.94985429194E-02  0.41109294345E-02  0.14285119139E+00  0.14322655502E+00  0.51100000000E-03 0.  1.
    9000002    1    1    2    0    0 -0.25494734201E+00 -0.13638389555E+00  0.55718219390E-01  0.98313134124E+00  0.93800000000E+00 0.  1.
         22    1    1    2    0    0  0.24544879909E+00  0.13227296611E+00  0.38014305566E+01  0.38116421037E+01  0.00000000000E+00 0. -1.
</event>
<event>
 5    1  0.3490044E+002  0.1599534E+01  0.7818608E-02  0.3353870E+00
         11   -1    0    0    0    0  0.00000000000E+00  0.00000000000E+00  0.39999999674E+01  0.40000000000E+01  0.51100000000E-03 0. -1.
    9000002   -1    0    0    0    0 -0.00000000000E+00 -0.00000000000E+00  0.00000000000E+00  0.93800000000E+00  0.93800000000E+00 0.  1.
         11    1    1    2    0    0  0.25566482189E-01  0.30313585794E+00  0.22006468300E+01  0.22215741547E+01  0.51100000000E-03 0. -1.
    9000002    1    1    2    0    0 -0.60519387728E-01 -0.54122224980E+00  0.20477669956E+00  0.11037941913E+01  0.93800000000E+00 0.  1.
         22    1    1    2    0    0  0.34952905539E-01  0.23808639187E+00  0.15945764378E+01  0.16126316540E+01  0.00000000000E+00 0. -1.
</event>
<event>
 5    1  0.3490044E+002  0.1538171E+01  0.7818608E-02  0.3423331E+00
         11   -1    0    0    0    0  0.00000000000E+00  0.00000000000E+00  0.39999999674E+01  0.40000000000E+01  0.51100000000E-03 0.  1.
    9000002   -1    0    0    0    0 -0.00000000000E+00 -0.00000000000E+00  0.00000000000E+00  0.93800000000E+00  0.93800000000E+00 0. -1.
         11    1    1    2    0    0  0.29058639125E+00 -0.15374334090E-01  0.17359165815E+01  0.17601373412E+01  0.51100000000E-03 0.  1.
    9000002    1    1    2    0    0 -0.12958924741E+00 -0.37647831127E+00  0.15992190869E+00  0.10314787001E+01  0.93800000000E+00 0. -1.
         22    1    1    2    0    0 -0.16099714384E+00  0.39185264536E+00  0.21041614771E+01  0.21463839586E+01  0.00000000000E+00 0. -1.
</event>
<event>
 5    1  0.3490044E+002  0.1594933E+01  0.7818608E-02  0.3358881E+00
         11   -1    0    0    0    0  0.00000000000E+00  0.00000000000E+00  0.39999999674E+01  0.40000000000E+01  0.51100000000E-03 0.  1.
    9000002   -1    0    0    0    0 -0.00000000000E+00 -0.00000000000E+00  0.00000000000E+00  0.93800000000E+00  0.93800000000E+00 0.  1.
         11    1    1    2    0    0  0.92090654278E-02 -0.52856677142E-01  0.18851291239E+01  0.18858925500E+01  0.51100000000E-03 0.  1.
    9000002    1    1    2    0    0 -0.12759382093E+00  0.24633797068E+00  0.54919337418E-01  0.97970542132E+00  0.93800000000E+00 0.  1.
         22    1    1    2    0    0  0.11838475550E+00 -0.19348129354E+00  0.20599515060E+01  0.20724020287E+01  0.00000000000E+00 0.  1.
</event>
<event>
 5    1  0.3490044E+002  0.1546673E+01  0.7818608E-02  0.3413357E+00
         11   -1    0    0    0    0  0.00000000000E+00  0.00000000000E+00  0.39999999674E+01  0.40000000000E+01  0.51100000000E-03 0.  1.
    9000002   -1    0    0    0    0 -0.00000000000E+00 -0.00000000000E+00  0.00000000000E+00  0.93800000000E+00  0.93800000000E+00 0.  1.
         11    1    1    2    0    0  0.26574249909E+00 -0.27884345393E+00  0.30338898232E+01  0.30582446710E+01  0.51100000000E-03 0.  1.
    9000002    1    1    2    0    0 -0.47131575301E-01  0.33697426724E+00  0.12126164524E+00  0.10051474662E+01  0.93800000000E+00 0.  1.
         22    1    1    2    0    0 -0.21861092379E+00 -0.58130813316E-01  0.84484849895E+00  0.87460786278E+00  0.00000000000E+00 0.  1.
</event>
<event>
 5    1  0.3490044E+002  0.1599653E+01  0.7818608E-02  0.3353740E+00
         11   -1    0    0    0    0  0.00000000000E+00  0.00000000000E+00  0.39999999674E+01  0.40000000000E+01  0.51100000000E-03 0. -1.
    9000002   -1    0    0    0    0 -0.00000000000E+00 -0.00000000000E+00  0.00000000000E+00  0.93800000000E+00  0.93800000000E+00 0.  1.
         11    1    1    2    0    0 -0.12089665352E+00  0.94973774654E-01  0.15025366084E+01  0.15103815874E+01  0.51100000000E-03 0. -1.
    9000002    1    1    2    0    0  0.31099648114E+00 -0.26050095207E+00  0.11111375640E+00  0.10279931051E+01  0.93800000000E+00 0.  1.
         22    1    1    2    0    0 -0.19009982761E+00  0.16552717742E+00  0.23863496025E+01  0.23996253075E+01  0.00000000000E+00 0. -1.
</event>
<event>
 5    1  0.3490044E+002  0.1598427E+01  0.7818608E-02  0.3355073E+00
         11   -1    0    0    0    0  0.00000000000E+00  0.00000000000E+00  0.39999999674E+01  0.40000000000E+01  0.51100000000E-03 0. -1.
    9000002   -1    0    0    0    0 -0.00000000000E+00 -0.00000000000E+00  0.00000000000E+00  0.93800000000E+00  0.93800000000E+00 0. -1.
         11    1    1    2    0    0 -0.74837914361E-02  0.17417461504E+00  0.12395352875E+01  0.12517351132E+01  0.51100000000E-03 0. -1.
    9000002    1    1    2    0    0  0.23640604319E-01 -0.42007896961E+00  0.12079159109E+00  0.10351134370E+01  0.93800000000E+00 0. -1.
         22    1    1    2    0    0 -0.16156812883E-01  0.24590435457E+00  0.26396730888E+01  0.26511514498E+01  0.00000000000E+00 0. -1.
</event>
<event>
 5    1  0.3490044E+002  0.1599665E+01  0.7818608E-02  0.3353727E+00
         11   -1    0    0    0    0  0.00000000000E+00  0.00000000000E+00  0.39999999674E+01  0.40000000000E+01  0.51100000000E-03 0.  1.
    9000002   -1    0    0    0    0 -0.00000000000E+00 -0.00000000000E+00  0.00000000000E+00  0.93800000000E+00  0.93800000000E+00 0.  1.
         11    1    1    2    0    0 -0.22386723453E-01 -0.80109600659E-03  0.30406616470E+00  0.30489063741E+00  0.51100000000E-03 0.  1.
    9000002    1    1    2    0    0  0.27062303670E+00  0.29865122581E-01  0.49340118283E-01  0.97796073582E+00  0.93800000000E+00 0.  1.
         22    1    1    2    0    0 -0.24823631324E+00 -0.29064026575E-01  0.36465936844E+01  0.36551486268E+01  0.00000000000E+00 0.  1.
</event>
<event>
 5    1  0.3490044E+002  0.1591771E+01  0.7818608E-02  0.3362344E+00
         11   -1    0    0    0    0  0.00000000000E+00  0.00000000000E+00  0.39999999674E+01  0.40000000000E+01  0.51100000000E-03 0. -1.
    9000002   -1    0    0    0    0 -0.00000000000E+00 -0.00000000000E+00  0.00000000000E+00  0.93800000000E+00  0.93800000000E+00 0.  1.
         11    1    1    2    0    0  0.35816107005E-01  0.16703966353E-01  0.12783868037E+01  0.12789976142E+01  0.51100000000E-03 0. -1.
    9000002    1    1    2    0    0 -0.39296637501E+00  0.64522866240E-01  0.11354422582E+00  0.10253399745E+01  0.93800000000E+00 0.  1.
         22    1    1    2    0    0  0.35715026801E+00 -0.81226832593E-01  0.26080689378E+01  0.26336624113E+01  0.00000000000E+00 0. -1.
</event>
<event>
 5    1  0.3490044E+002  0.1599677E+01  0.7818608E-02  0.3353714E+00
         11   -1    0    0    0    0  0.00000000000E+00  0.00000000000E+00  0.39999999674E+01  0.40000000000E+01  0.51100000000E-03 0. -1.
    9000002   -1    0    0    0    0 -0.00000000000E+00 -0.00000000000E+00  0.00000000000E+00  0.93800000000E+00  0.93800000000E+00 0.  1.
         11    1    1    2    0    0 -0.11564497307E-01 -0.61249711007E-01  0.76268925275E+00  0.76523226675E+00  0.51100000000E-03 0. -1.
    9000002    1    1    2    0    0  0.61129905201E-01  0.31360161226E+00  0.68229144823E-01  0.99326836893E+00  0.93800000000E+00 0.  1.
         22    1    1    2    0    0 -0.49565407894E-01 -0.25235190125E+00  0.31690815698E+01  0.31794993643E+01  0.00000000000E+00 0. -1.
</event>
<event>
 5    1  0.3490044E+002  0.1593760E+01  0.7818608E-02  0.3360164E+00
         11   -1    0    0    0    0  0.00000000000E+00  0.00000000000E+00  0.39999999674E+01  0.40000000000E+01  0.51100000000E-03 0.  1.
    9000002   -1    0    0    0    0 -0.00000000000E+00 -0.00000000000E+00  0.00000000000E+00  0.93800000000E+00  0.93800000000E+00 0.  1.
         11    1    1    2    0    0  0.17883661617E+00  0.17595526715E-01  0.11268675291E+01  0.11411059666E+01  0.51100000000E-03 0.  1.
    9000002    1    1    2    0    0 -0.43552262931E+00  0.16875156191E+00  0.15375030097E+00  0.10590751651E+01  0.93800000000E+00 0.  1.
         22    1    1    2    0    0  0.25668601314E+00 -0.18634708862E+00  0.27193821373E+01  0.27378188683E+01  0.00000000000E+00 0.  1.
</event>
<event>
 5    1  0.3490044E+002  0.1593739E+01  0.7818608E-02  0.3360187E+00
         11   -1    0    0    0    0  0.00000000000E+00  0.00000000000E+00  0.39999999674E+01  0.40000000000E+01  0.51100000000E-03 0. -1.
    9000002   -1    0    0    0    0 -0.00000000000E+00 -0.00000000000E+00  0.00000000000E+00  0.93800000000E+00  0.93800000000E+00 0.  1.
         11    1    1    2    0    0  0.18818731343E-01 -0.18754927453E-01  0.10642985994E+00  0.10969716569E+00  0.51100000000E-03 0. -1.
    9000002    1    1    2    0    0 -0.41129864222E-01 -0.20859396213E+00  0.34432466223E-01  0.96240984071E+00  0.93800000000E+00 0.  1.
         22    1    1    2    0    0  0.22311132878E-01  0.22734888958E+00  0.38591376412E+01  0.38658929936E+01  0.00000000000E+00 0. -1.
</event>
<event>
 5    1  0.3490044E+002  0.1549078E+01  0.7818608E-02  0.3410557E+00
         11   -1    0    0    0    0  0.00000000000E+00  0.00000000000E+00  0.39999999674E+01  0.40000000000E+01  0.51100000000E-03 0.  1.
    9000002   -1    0    0    0    0 -0.00000000000E+00 -0.00000000000E+00  0.00000000000E+00  0.93800000000E+00  0.93800000000E+00 0. -1.
         11    1    1    2    0    0  0.12328402974E+00  0.19601677097E+00  0.10481970713E+01  0.10734704877E+01  0.51100000000E-03 0.  1.
    9000002    1    1    2    0    0 -0.79680753235E-01  0.77309459458E-01  0.46097635112E-01  0.94567159570E+00  0.93800000000E+00 0. -1.
         22    1    1    2    0    0 -0.43603276509E-01 -0.27332623043E+00  0.29057052610E+01  0.29188579166E+01  0.00000000000E+00 0.  1.
</event>
<event>
 5    1  0.3490044E+002  0.1599673E+01  0.7818608E-02  0.3353719E+00
         11   -1    0    0    0    0  0.00000000000E+00  0.00000000000E+00  0.39999999674E+01  0.40000000000E+01  0.51100000000E-03 0. -1.
    9000002   -1    0    0    0    0 -0.00000000000E+00 -0.00000000000E+00  0.00000000000E+00  0.93800000000E+00  0.93800000000E+00 0. -1.
         11    1    1    2    0    0  0.96672556787E-01  0.93228664952E-01  0.10255107053E+01  0.10342676806E+01  0.51100000000E-03 0. -1.
    9000002    1    1    2    0    0 -0.36431780031E+00 -0.35468443618E+00  0.17723523444E+00  0.10815659190E+01  0.93800000000E+00 0. -1.
         22    1    1    2    0    0  0.26764524352E+00  0.26145577123E+00  0.27972540276E+01  0.28221664004E+01  0.00000000000E+00 0. -1.
</event>
<event>
 5    1  0.3490044E+002  0.1599677E+01  0.7818608E-02  0.3353714E+00
         11   -1    0    0    0    0  0.00000000000E+00  0.00000000000E+00  0.39999999674E+01  0.40000000000E+01  0.51100000000E-03 0.  1.
    9000002   -1    0    0    0    0 -0.00000000000E+00 -0.00000000000E+00  0.00000000000E+00  0.93800000000E+00  0.93800000000E+00 0. -1.
         11    1    1    2    0    0  0.40127670378E-01 -0.24768660020E+00  0.19874652589E+01  0.20032416974E+01  0.51100000000E-03 0. -1.
    9000002    1    1    2    0    0 -0.77894721587E-01  0.47907171436E+00  0.16087736956E+00  0.10683177538E+01  0.93800000000E+00 0. -1.
         22    1    1    2    0    0  0.37767051210E-01 -0.23138511417E+00  0.18516573389E+01  0.18664405488E+01  0.00000000000E+00 0.  1.
</event>
<event>
 5    1  0.3490044E+002  0.1598713E+01  0.7818608E-02  0.3354761E+00
         11   -1    0    0    0    0  0.00000000000E+00  0.00000000000E+00  0.39999999674E+01  0.40000000000E+01  0.51100000000E-03 0.  1.
    9000002   -1    0    0    0    0 -0.00000000000E+00 -0.00000000000E+00  0.00000000000E+00  0.93800000000E+00  0.93800000000E+00 0. -1.
         11    1    1    2    0    0  0.11226899271E+00  0.20187894214E-01  0.11205555802E+01  0.11263467261E+01  0.51100000000E-03 0.  1.
    9000002    1    1    2    0    0 -0.29116037134E+00 -0.12990561640E+00  0.68697095558E-01  0.99308263601E+00  0.93800000000E+00 0. -1.
         22    1    1    2    0    0  0.17889137863E+00  0.10971772219E+00  0.28107472916E+01  0.28185706379E+01  0.00000000000E+00 0.  1.
</event>
<event>
 5    1  0.3490044E+002  0.1529572E+01  0.7818608E-02  0.3433539E+00
         11   -1    0    0    0    0  0.00000000000E+00  0.00000000000E+00  0.39999999674E+01  0.40000000000E+01  0.51100000000E-03 0.  1.
    9000002   -1    0    0    0    0 -0.00000000000E+00 -0.00000000000E+00  0.00000000000E+00  0.93800000000E+00  0.93800000000E+00 0. -1.
         11    1    1    2    0    0 -0.37890342556E-01 -0.37360865889E-01  0.23886942839E+01  0.23892869555E+01  0.51100000000E-03 0.  1.
    9000002    1    1    2    0    0 -0.30643651664E+00 -0.27847396152E+00  0.17734629269E+00  0.10405511970E+01  0.93800000000E+00 0. -1.
         22    1    1    2    0    0  0.34432685920E+00  0.31583482741E+00  0.14339593907E+01  0.15081618476E+01  0.00000000000E+00 0.  1.
</event>
<event>
 5    1  0.3490044E+002  0.1599677E+01  0.7818608E-02  0.3353714E+00
         11   -1    0    0    0    0  0.00000000000E+00  0.00000000000E+00  0.39999999674E+01  0.40000000000E+01  0.51100000000E-03 0.  1.
    9000002   -1    0    0    0    0 -0.00000000000E+00 -0.00000000000E+00  0.00000000000E+00  0.93800000000E+00  0.93800000000E+00 0.  1.
         11    1    1    2    0    0 -0.83857301176E-01 -0.28866345590E+00  0.22298083004E+01  0.22499786566E+01  0.51100000000E-03 0.  1.
    9000002    1    1    2    0    0  0.14352439483E+00  0.49464494690E+00  0.18206223645E+00  0.10854784813E+01  0.93800000000E+00 0.  1.
         22    1    1    2    0    0 -0.59667093650E-01 -0.20598149099E+00  0.15881294305E+01  0.16025428621E+01  0.00000000000E+00 0. -1.
</event>
<event>
 5    1  0.3490044E+002  0.1599677E+01  0.7818608E-02  0.3353714E+00
         11   -1    0    0    0    0  0.00000000000E+00  0.00000000000E+00  0.39999999674E+01  0.40000000000E+01  0.51100000000E-03 0.  1.
    9000002   -1    0    0    0    0 -0.00000000000E+00 -0.00000000000E+00  0.00000000000E+00  0.93800000000E+00  0.93800000000E+00 0. -1.
         11    1    1    2    0    0 -0.14753006610E-01 -0.89929316012E-01  0.67033851619E+00  0.67650493014E+00  0.51100000000E-03 0. -1.
    9000002    1    1    2    0    0  0.82449392770E-01  0.51140040354E+00  0.18425475773E+00  0.10872543819E+01  0.93800000000E+00 0. -1.
         22    1    1    2    0    0 -0.67696386159E-01 -0.42147108753E+00  0.31454066934E+01  0.31742406880E+01  0.00000000000E+00 0.  1.
</event>
<event>
 5    1  0.3490044E+002  0.1591802E+01  0.7818608E-02  0.3362309E+00
         11   -1    0    0    0    0  0.00000000000E+00  0.00000000000E+00  0.39999999674E+01  0.40000000000E+01  0.51100000000E-03 0.  1.
    9000002   -1    0    0    0    0 -0.00000000000E+00 -0.00000000000E+00  0.00000000000E+00  0.93800000000E+00  0.93800000000E+00 0. -1.
         11    1    1    2    0    0 -0.44080640852E-02 -0.42713715793E-01  0.13120272724E+01  0.13127298721E+01  0.51100000000E-03 0.  1.
    9000002    1    1    2    0    0 -0.59615330081E-01 -0.16600270530E+00  0.26447277491E-01  0.95480591967E+00  0.93800000000E+00 0. -1.
         22    1    1    2    0    0  0.64023394166E-01  0.20871642110E+00  0.26615254175E+01  0.26704642082E+01  0.00000000000E+00 0.  1.
</event>
<event>
 5    1  0.3490044E+002  0.1599629E+01  0.7818608E-02  0.3353766E+00
         11   -1    0    0    0    0  0.00000000000E+00  0.00000000000E+00  0.39999999674E+01  0.40000000000E+01  0.51100000000E-03 0.  1.
    9000002   -1    0    0    0    0 -0.00000000000E+00 -0.00000000000E+00  0.00000000000E+00  0.93800000000E+00  0.93800000000E+00 0. -1.
         11    1    1    2    0    0 -0.58450897532E-01  0.20078438899E+00  0.19363668643E+01  0.19476261891E+01  0.51100000000E-03 0.  1.
    9000002    1    1    2    0    0  0.12786313738E+00 -0.38988608204E+00  0.11375547628E+00  0.10301186569E+01  0.93800000000E+00 0. -1.
         22    1    1    2    0    0 -0.69412239852E-01  0.18910169305E+00  0.19498776268E+01  0.19602551540E+01  0.00000000000E+00 0.  1.
</event>
<event>
 5    1  0.3490044E+002  0.1599635E+01  0.7818608E-02  0.3353759E+00
         11   -1    0    0    0    0  0.00000000000E+00  0.00000000000E+00  0.39999999674E+01  0.40000000000E+01  0.51100000000E-03 0. -1.
    9000002   -1    0    0    0    0 -0.00000000000E+00 -0.00000000000E+00  0.00000000000E+00  0.93800000000E+00  0.93800000000E+00 0. -1.
         11    1    1    2    0    0 -0.15420193727E-01 -0.37357340115E-01  0.61192538077E+00  0.61325874310E+00  0.51100000000E-03 0. -1.
    9000002    1    1    2    0    0  0.63526473149E-01  0.23883711032E+00  0.40597168604E-01  0.97086091082E+00  0.93800000000E+00 0. -1.
         22    1    1    2    0    0 -0.48106279422E-01 -0.20147977020E+00  0.33474774180E+01  0.33538803461E+01  0.00000000000E+00 0. -1.
</event>
<event>
 5    1  0.3490044E+002  0.1539650E+01  0.7818608E-02  0.3421588E+00
         11   -1    0    0    0    0  0.00000000000E+00  0.00000000000E+00  0.39999999674E+01  0.40000000000E+01  0.51100000000E-03 0.  1.
    9000002   -1    0    0    0    0 -0.00000000000E+00 -0.00000000000E+00  0.00000000000E+00  0.93800000000E+00  0.93800000000E+00 0. -1.
         11    1    1    2    0    0 -0.10704841823E+00  0.20915796641E+00  0.83379932237E+00  0.86627246861E+00  0.51100000000E-03 0.  1.
    9000002    1    1    2    0    0 -0.17166923098E+00 -0.67013947055E-01  0.68625541472E-01  0.95839170432E+00  0.93800000000E+00 0. -1.
         22    1    1    2    0    0  0.27871764921E+00 -0.14214401935E+00  0.30975751035E+01  0.31133358271E+01  0.00000000000E+00 0.  1.
</event>
<event>
 5    1  0.3490044E+002  0.1599440E+01  0.7818608E-02  0.3353971E+00
         11   -1    0    0    0    0  0.00000000000E+00  0.00000000000E+00  0.39999999674E+01  0.40000000000E+01  0.51100000000E-03 0. -1.
    9000002   -1    0    0    0    0 -0.00000000000E+00 -0.00000000000E+00  0.00000000000E+00  0.93800000000E+00  0.93800000000E+00 0.  1.
         11    1    1    2    0    0  0.58872212131E-01 -0.51058936543E-01  0.85025757043E+00  0.85382149748E+00  0.51100000000E-03 0. -1.
    9000002    1    1    2    0    0 -0.25975424264E+00  0.16688325603E+00  0.63829422970E-01  0.98956580526E+00  0.93800000000E+00 0.  1.
         22    1    1    2    0    0  0.20088203051E+00 -0.11582431949E+00  0.30859129740E+01  0.30946126973E+01  0.00000000000E+00 0. -1.
</event>
<event>
 5    1  0.3490044E+002  0.1599676E+01  0.7818608E-02  0.3353715E+00
         11   -1    0    0    0    0  0.00000000000E+00  0.00000000000E+00  0.39999999674E+01  0.40000000000E+01  0.51100000000E-03 0.  1.
    9000002   -1    0    0    0    0 -0.00000000000E+00 -0.00000000000E+00  0.00000000000E+00  0.93800000000E+00  0.93800000000E+00 0.  1.
         11    1    1    2    0    0 -0.16719332395E-01 -0.56252643253E-02  0.22462488722E+00  0.22531706716E+00  0.51100000000E-03 0. -1.
    9000002    1    1    2    0    0  0.29519005426E+00  0.10392023487E+00  0.65416128146E-01  0.99098933050E+00  0.93800000000E+00 0.  1.
         22    1    1    2    0    0 -0.27847072187E+00 -0.98294970546E-01  0.37099589520E+01  0.37216936023E+01  0.00000000000E+00 0.  1.
</event>
<event>
 5    1  0.3490044E+002  0.1599631E+01  0.7818608E-02  0.3353764E+00
         11   -1    0    0    0    0  0.00000000000E+00  0.00000000000E+00  0.39999999674E+01  0.40000000000E+01  0.51100000000E-03 0. -1.
    9000002   -1    0    0    0    0 -0.00000000000E+00 -0.00000000000E+00  0.00000000000E+00  0.93800000000E+00  0.93800000000E+00 0.  1.
         11    1    1    2    0    0  0.53514197699E-02 -0.69955570946E-01  0.91456178071E+00  0.91724911091E+00  0.51100000000E-03 0. -1.
    9000002    1    1    2    0    0 -0.19783003552E-01  0.27244080217E+00  0.49694371634E-01  0.97822742166E+00  0.93800000000E+00 0.  1.
         22    1    1    2    0    0  0.14431583782E-01 -0.20248523123E+00  0.30357438150E+01  0.30425234674E+01  0.00000000000E+00 0. -1.
</event>
<event>
 5    1  0.3490044E+002  0.1599677E+01  0.7818608E-02  0.3353714E+00
         11   -1    0    0    0    0  0.00000000000E+00  0.00000000000E+00  0.39999999674E+01  0.40000000000E+01  0.51100000000E-03 0. -1.
    9000002   -1    0    0    0    0 -0.00000000000E+00 -0.00000000000E+00  0.00000000000E+00  0.93800000000E+00  0.93800000000E+00 0.  1.
         11    1    1    2    0    0 -0.36566547634E-01 -0.18542901968E+00  0.16700742454E+01  0.16807347441E+01  0.51100000000E-03 0. -1.
    9000002    1    1    2    0    0  0.86472620852E-01  0.42991579418E+00  0.13039346842E+00  0.10436242431E+01  0.93800000000E+00 0.  1.
         22    1    1    2    0    0 -0.49906073218E-01 -0.24448677450E+00  0.21995322535E+01  0.22136410128E+01  0.00000000000E+00 0. -1.
</event>
<event>
 5    1  0.3490044E+002  0.1599677E+01  0.7818608E-02  0.3353714E+00
         11   -1    0    0    0    0  0.00000000000E+00  0.00000000000E+00  0.39999999674E+01  0.40000000000E+01  0.51100000000E-03 0.  1.
    9000002   -1    0    0    0    0 -0.00000000000E+00 -0.00000000000E+00  0.00000000000E+00  0.93800000000E+00  0.93800000000E+00 0.  1.
         11    1    1    2    0    0 -0.32830412471E+00 -0.11710153417E+00  0.23678863039E+01  0.23934038892E+01  0.51100000000E-03 0. -1.
    9000002    1    1    2    0    0  0.52470914362E+00  0.18703560508E+00  0.21461523483E+00  0.11118478772E+01  0.93800000000E+00 0.  1.
         22    1    1    2    0    0 -0.19640501891E+00 -0.69934070907E-01  0.14174984286E+01  0.14327482336E+01  0.00000000000E+00 0.  1.
</event>
<event>
 5    1  0.3490044E+002  0.1599189E+01  0.7818608E-02  0.3354244E+00
         11   -1    0    0    0    0  0.00000000000E+00  0.00000000000E+00  0.39999999674E+01  0.40000000000E+01  0.51100000000E-03 0. -1.
    9000002   -1    0    0    0    0 -0.00000000000E+00 -0.00000000000E+00  0.00000000000E+00  0.93800000000E+00  0.93800000000E+00 0.  1.
         11    1    1    2    0    0  0.11026789245E+00 -0.10725343173E+00  0.11306657933E+01  0.11410818130E+01  0.51100000000E-03 0. -1.
    9000002    1    1    2    0    0 -0.30833438803E+00  0.31963473024E+00  0.13426406806E+00  0.10464737434E+01  0.93800000000E+00 0.  1.
         22    1    1    2    0    0  0.19806649557E+00 -0.21238129851E+00  0.27350701060E+01  0.27504444436E+01  0.00000000000E+00 0. -1.
</event>
<event>
 5    1  0.3490044E+002  0.1599089E+01  0.7818608E-02  0.3354353E+00
         11   -1    0    0    0    0  0.00000000000E+00  0.00000000000E+00  0.39999999674E+01  0.40000000000E+01  0.51100000000E-03 0. -1.
    9000002   -1    0    0    0    0 -0.00000000000E+00 -0.00000000000E+00  0.00000000000E+00  0.93800000000E+00  0.93800000000E+00 0. -1.
         11    1    1    2    0    0  0.11972696314E+00 -0.10333249442E+00  0.16502655737E+01  0.16578265516E+01  0.51100000000E-03 0. -1.
    9000002    1    1    2    0    0 -0.31456398649E+00  0.18393910303E+00  0.89655599552E-01  0.10102802689E+01  0.93800000000E+00 0. -1.
         22    1    1    2    0    0  0.19483702335E+00 -0.80606608615E-01  0.22600787941E+01  0.22698931795E+01  0.00000000000E+00 0. -1.
</event>
<event>
 5    1  0.3490044E+002  0.1597229E+01  0.7818608E-02  0.3356377E+00
         11   -1    0    0    0    0  0.00000000000E+00  0.00000000000E+00  0.39999999674E+01  0.40000000000E+01  0.51100000000E-03 0.  1.
    9000002   -1    0    0    0    0 -0.00000000000E+00 -0.00000000000E+00  0.00000000000E+00  0.93800000000E+00  0.93800000000E+00 0. -1.
         11    1    1    2    0    0 -0.18199028715E+00  0.18016444030E+00  0.22373691463E+01  0.22519770532E+01  0.51100000000E-03 0.  1.
    9000002    1    1    2    0    0  0.31675497002E+00 -0.40764194727E+00  0.18518732235E+00  0.10865744395E+01  0.93800000000E+00 0. -1.
         22    1    1    2    0    0 -0.13476468287E+00  0.22747750697E+00  0.15774434987E+01  0.15994485073E+01  0.00000000000E+00 0.  1.
</event>
<event>
 5    1  0.3490044E+002  0.1569369E+01  0.7818608E-02  0.3387295E+00
         11   -1    0    0    0    0  0.00000000000E+00  0.00000000000E+00  0.39999999674E+01  0.40000000000E+01  0.51100000000E-03 0.  1.
    9000002   -1    0    0    0    0 -0.00000000000E+00 -0.00000000000E+00  0.00000000000E+00  0.93800000000E+00  0.93800000000E+00 0. -1.
         11    1    1    2    0    0  0.10516753118E-02  0.11404557906E+00  0.30164831854E+01  0.30186385290E+01  0.51100000000E-03 0.  1.
    9000002    1    1    2    0    0  0.14074773014E+00  0.38222075973E-01  0.36729597074E-01  0.94998100714E+00  0.93800000000E+00 0. -1.
         22    1    1    2    0    0 -0.14179940545E+00 -0.15226765503E+00  0.94678718493E+00  0.96938046385E+00  0.00000000000E+00 0.  1.
</event>
<event>
 5    1  0.3490044E+002  0.1599677E+01  0.7818608E-02  0.3353714E+00
         11   -1    0    0    0    0  0.00000000000E+00  0.00000000000E+00  0.39999999674E+01  0.40000000000E+01  0.51100000000E-03 0.  1.
    9000002   -1    0    0    0    0 -0.00000000000E+00 -0.00000000000E+00  0.00000000000E+00  0.93800000000E+00  0.93800000000E+00 0.  1.
         11    1    1    2    0    0 -0.20037948108E+00 -0.24624684429E-01  0.17664078324E+01  0.17779075350E+01  0.51100000000E-03 0. -1.
    9000002    1    1    2    0    0  0.43836844781E+00  0.54406896581E-01  0.13236748606E+00  0.10452234966E+01  0.93800000000E+00 0.  1.
         22    1    1    2    0    0 -0.23798896673E+00 -0.29782212153E-01  0.21012246489E+01  0.21148689685E+01  0.00000000000E+00 0.  1.
</event>
<event>
 5    1  0.3490044E+002  0.1599639E+01  0.7818608E-02  0.3353755E+00
         11   -1    0    0    0    0  0.00000000000E+00  0.00000000000E+00  0.39999999674E+01  0.40000000000E+01  0.51100000000E-03 0. -1.
    9000002   -1    0    0    0    0 -0.00000000000E+00 -0.00000000000E+00  0.00000000000E+00  0.93800000000E+00  0.93800000000E+00 0. -1.
         11    1    1    2    0    0  0.33922781658E-01 -0.26340226417E-01  0.75226526697E+00  0.75349044828E+00  0.51100000000E-03 0. -1.
    9000002    1    1    2    0    0 -0.19227568239E+00  0.16579212549E+00  0.42859914165E-01  0.97269622142E+00  0.93800000000E+00 0. -1.
         22    1    1    2    0    0  0.15835290073E+00 -0.13945189908E+00  0.32048747862E+01  0.32118133303E+01  0.00000000000E+00 0. -1.
</event>
<event>
 5    1  0.3490044E+002  0.1598933E+01  0.7818608E-02  0.3354522E+00
         11   -1    0    0    0    0  0.00000000000E+00  0.00000000000E+00  0.39999999674E+01  0.40000000000E+01  0.51100000000E-03 0. -1.
    9000002   -1    0    0    0    0 -0.00000000000E+00 -0.00000000000E+00  0.00000000000E+00  0.93800000000E+00  0.93800000000E+00 0. -1.
         11    1    1    2    0    0 -0.44829326149E-01  0.21002022056E+00  0.15685791692E+01  0.15832116197E+01  0.51100000000E-03 0. -1.
    9000002    1    1    2    0    0  0.30533487879E-01 -0.51027172157E+00  0.17989919885E+00  0.10832900099E+01  0.93800000000E+00 0. -1.
         22    1    1    2    0    0  0.14295838270E-01  0.30025150100E+00  0.22515215993E+01  0.22714983704E+01  0.00000000000E+00 0. -1.
</event>
<event>
 5    1  0.3490044E+002  0.1596687E+01  0.7818608E-02  0.3356967E+00
         11   -1    0    0    0    0  0.00000000000E+00  0.00000000000E+00  0.39999999674E+01  0.40000000000E+01  0.51100000000E-03 0. -1.
    9000002   -1    0    0    0    0 -0.00000000000E+00 -0.00000000000E+00  0.00000000000E+00  0.93800000000E+00  0.93800000000E+00 0.  1.
         11    1    1    2    0    0  0.11187382893E+00  0.38388974883E-01  0.14961208945E+01  0.15007889455E+01  0.51100000000E-03 0. -1.
    9000002    1    1    2    0    0 -0.28487658828E+00  0.66791121438E-01  0.59411092000E-01  0.98437259323E+00  0.93800000000E+00 0.  1.
         22    1    1    2    0    0  0.17300275935E+00 -0.10518009632E+00  0.24444679809E+01  0.24528384612E+01  0.00000000000E+00 0. -1.
</event>
<event>
 5    1  0.3490044E+002  0.1489334E+01  0.7818608E-02  0.3482991E+00
         11   -1    0    0    0    0  0.00000000000E+00  0.00000000000E+00  0.39999999674E+01  0.40000000000E+01  0.51100000000E-03 0.  1.
    9000002   -1    0    0    0    0 -0.00000000000E+00 -0.00000000000E+00  0.00000000000E+00  0.93800000000E+00  0.93800000000E+00 0. -1.
         11    1    1    2    0    0  0.62063016703E-01 -0.69619299614E-01  0.18544164964E-01  0.95093701665E-01  0.51100000000E-03 0.  1.
    9000002    1    1    2    0    0  0.17888186616E+00 -0.34916355337E-01  0.10920984459E+00  0.96176330979E+00  0.93800000000E+00 0. -1.
         22    1    1    2    0    0 -0.24094488287E+00  0.10453565495E+00  0.38722459578E+01  0.38811429885E+01  0.00000000000E+00 0.  1.
</event>
<event>
 5    1  0.3490044E+002  0.1590021E+01  0.7818608E-02  0.3364266E+00
         11   -1    0    0    0    0  0.00000000000E+00  0.00000000000E+00  0.39999999674E+01  0.40000000000E+01  0.51100000000E-03 0.  1.
    9000002   -1    0    0    0    0 -0.00000000000E+00 -0.00000000000E+00  0.00000000000E+00  0.93800000000E+00  0.93800000000E+00 0. -1.
         11    1    1    2    0    0  0.31846233175E+00  0.13441659648E-01  0.15894127701E+01  0.16210589594E+01  0.51100000000E-03 0.  1.
    9000002    1    1    2    0    0 -0.76269178047E+00  0.22602619325E+00  0.47794177608E+00  0.13194919224E+01  0.93800000000E+00 0. -1.
         22    1    1    2    0    0  0.44422944873E+00 -0.23946785290E+00  0.19326454211E+01  0.19974491181E+01  0.00000000000E+00 0.  1.
</event>
<event>
 5    1  0.3490044E+002  0.1599627E+01  0.7818608E-02  0.3353769E+00
         11   -1    0    0    0    0  0.00000000000E+00  0.00000000000E+00  0.39999999674E+01  0.40000000000E+01  0.51100000000E-03 0.  1.
    9000002   -1    0    0    0    0 -0.00000000000E+00 -0.00000000000E+00  0.00000000000E+00  0.93800000000E+00  0.93800000000E+00 0.  1.
         11    1    1    2    0    0  0.11766412554E+00 -0.25918244775E+00  0.22401115019E+01  0.22581231565E+01  0.51100000000E-03 0.  1.
    9000002    1    1    2    0    0 -0.18748618221E+00  0.44681776783E+00  0.16036837845E+00  0.10678760242E+01  0.93800000000E+00 0.  1.
         22    1    1    2    0    0  0.69822056661E-01 -0.18763532008E+00  0.15995200870E+01  0.16120008193E+01  0.00000000000E+00 0.  1.
</event>
<event>
 5    1  0.3490044E+002  0.1599575E+01  0.7818608E-02  0.3353825E+00
         11   -1    0    0    0    0  0.00000000000E+00  0.00000000000E+00  0.39999999674E+01  0.40000000000E+01  0.51100000000E-03 0.  1.
    9000002   -1    0    0    0    0 -0.00000000000E+00 -0.00000000000E+00  0.00000000000E+00  0.93800000000E+00  0.93800000000E+00 0.  1.
         11    1    1    2    0    0 -0.18409532923E-01 -0.12984187284E-01  0.39712150787E+00  0.39776029610E+00  0.51100000000E-03 0.  1.
    9000002    1    1    2    0    0  0.25415952370E+00  0.14322410076E+00  0.56814823079E-01  0.98396246404E+00  0.93800000000E+00 0.  1.
         22    1    1    2    0    0 -0.23574999078E+00 -0.13023991348E+00  0.35460636364E+01  0.35562772399E+01  0.00000000000E+00 0.  1.
</event>
<event>
 5    1  0.3490044E+002  0.1594902E+01  0.7818608E-02  0.3358915E+00
         11   -1    0    0    0    0  0.00000000000E+00  0.00000000000E+00  0.39999999674E+01  0.40000000000E+01  0.51100000000E-03 0. -1.
    9000002   -1    0    0    0    0 -0.00000000000E+00 -0.00000000000E+00  0.00000000000E+00  0.93800000000E+00  0.93800000000E+00 0. -1.
         11    1    1    2    0    0  0.66091137182E-01  0.28247153970E-01  0.97701737593E+00  0.97965767190E+00  0.51100000000E-03 0. -1.
    9000002    1    1    2    0    0 -0.53069743010E+00 -0.32421782963E-01  0.19903306532E+00  0.10964255996E+01  0.93800000000E+00 0. -1.
         22    1    1    2    0    0  0.46460629292E+00  0.41746289924E-02  0.28239495261E+01  0.28619167285E+01  0.00000000000E+00 0. -1.
</event>
<event>
 5    1  0.3490044E+002  0.1599641E+01  0.7818608E-02  0.3353753E+00
         11   -1    0    0    0    0  0.00000000000E+00  0.00000000000E+00  0.39999999674E+01  0.40000000000E+01  0.51100000000E-03 0.  1.
    9000002   -1    0    0    0    0 -0.00000000000E+00 -0.00000000000E+00  0.00000000000E+00  0.93800000000E+00  0.93800000000E+00 0. -1.
         11    1    1    2    0    0  0.39614938139E-02  0.45255882453E-01  0.76518217903E+00  0.76652972321E+00  0.51100000000E-03 0.  1.
    9000002    1    1    2    0    0  0.68000142974E-02 -0.24539397923E+00  0.40046910126E-01  0.97041856961E+00  0.93800000000E+00 0. -1.
         22    1    1    2    0    0 -0.10761508111E-01  0.20013809678E+00  0.31947708782E+01  0.32010517072E+01  0.00000000000E+00 0.  1.
</event>
<event>
 5    1  0.3490044E+002  0.1599675E+01  0.7818608E-02  0.3353716E+00
         11   -1    0    0    0    0  0.00000000000E+00  0.00000000000E+00  0.39999999674E+01  0.40000000000E+01  0.51100000000E-03 0. -1.
    9000002   -1    0    0    0    0 -0.00000000000E+00 -0.00000000000E+00  0.00000000000E+00  0.93800000000E+00  0.93800000000E+00 0.  1.
         11    1    1    2    0    0 -0.67033376480E-01  0.42153141840E-01  0.10458116143E+01  0.10488052988E+01  0.51100000000E-03 0. -1.
    9000002    1    1    2    0    0  0.24959508026E+00 -0.16344644985E+00  0.59373688139E-01  0.98609415418E+00  0.93800000000E+00 0.  1.
         22    1    1    2    0    0 -0.18256170378E+00  0.12129330801E+00  0.28948146649E+01  0.29031005470E+01  0.00000000000E+00 0.  1.
</event>
<event>
 5    1  0.3490044E+002  0.1599631E+01  0.7818608E-02  0.3353764E+00
         11   -1    0    0    0    0  0.00000000000E+00  0.00000000000E+00  0.39999999674E+01  0.40000000000E+01  0.51100000000E-03 0. -1.
    9000002   -1    0    0    0    0 -0.00000000000E+00 -0.00000000000E+00  0.00000000000E+00  0.93800000000E+00  0.93800000000E+00 0.  1.
         11    1    1    2    0    0  0.75257793161E-01  0.12900123211E-02  0.83786401613E+00  0.84123823629E+00  0.51100000000E-03 0. -1.
    9000002    1    1    2    0    0 -0.33296299743E+00 -0.30584527414E-01  0.74873802678E-01  0.99862398194E+00  0.93800000000E+00 0.  1.
         22    1    1    2    0    0  0.25770520427E+00  0.29294515093E-01  0.30872621486E+01  0.30981377818E+01  0.00000000000E+00 0. -1.
</event>
<event>
 5    1  0.3490044E+002  0.1493485E+01  0.7818608E-02  0.3477757E+00
         11   -1    0    0    0    0  0.00000000000E+00  0.00000000000E+00  0.39999999674E+01  0.40000000000E+01  0.51100000000E-03 0.  1.
    9000002   -1    0    0    0    0 -0.00000000000E+00 -0.00000000000E+00  0.00000000000E+00  0.93800000000E+00  0.93800000000E+00 0.  1.
         11    1    1    2    0    0  0.58667103355E-01  0.30846022931E+00  0.20878203132E+01  0.21112989991E+01  0.51100000000E-03 0.  1.
    9000002    1    1    2    0    0 -0.14500088557E+00  0.15385585765E+00  0.11427072677E+00  0.96829679373E+00  0.93800000000E+00 0.  1.
         22    1    1    2    0    0  0.86333782217E-01 -0.46231608696E+00  0.17979089273E+01  0.18584042072E+01  0.00000000000E+00 0.  1.
</event>
<event>
 5    1  0.3490044E+002  0.1597711E+01  0.7818608E-02  0.3355851E+00
         11   -1    0    0    0    0  0.00000000000E+00  0.00000000000E+00  0.39999999674E+01  0.40000000000E+01  0.51100000000E-03 0.  1.
    9000002   -1    0    0    0    0 -0.00000000000E+00 -0.00000000000E+00  0.00000000000E+00  0.93800000000E+00  0.93800000000E+00 0. -1.
         11    1    1    2    0    0 -0.17484685211E-01 -0.81627373859E-01  0.11221593507E+01  0.11252602418E+01  0.51100000000E-03 0.  1.
    9000002    1    1    2    0    0 -0.10508033143E+00  0.25701279594E+00  0.52852953692E-01  0.97966059839E+00  0.93800000000E+00 0. -1.
         22    1    1    2    0    0  0.12256501664E+00 -0.17538542208E+00  0.28249876630E+01  0.28330791598E+01  0.00000000000E+00 0.  1.
</event>
<event>
 5    1  0.3490044E+002  0.1599667E+01  0.7818608E-02  0.3353724E+00
         11   -1    0    0    0    0  0.00000000000E+00  0.00000000000E+00  0.39999999674E+01  0.40000000000E+01  0.51100000000E-03 0.  1.
    9000002   -1    0    0    0    0 -0.00000000000E+00 -0.00000000000E+00  0.00000000000E+00  0.93800000000E+00  0.93800000000E+00 0. -1.
         11    1    1    2    0    0 -0.32097692900E+00  0.31708580265E+00  0.24113525280E+01  0.24532001286E+01  0.51100000000E-03 0.  1.
    9000002    1    1    2    0    0  0.49275758278E+00 -0.48201033755E+00  0.33862033769E+00  0.12122919343E+01  0.93800000000E+00 0. -1.
         22    1    1    2    0    0 -0.17178065379E+00  0.16492453490E+00  0.12500271016E+01  0.12725079371E+01  0.00000000000E+00 0.  1.
</event>
<event>
 5    1  0.3490044E+002  0.1599669E+01  0.7818608E-02  0.3353722E+00
         11   -1    0    0    0    0  0.00000000000E+00  0.00000000000E+00  0.39999999674E+01  0.40000000000E+01  0.51100000000E-03 0. -1.
    9000002   -1    0    0    0    0 -0.00000000000E+00 -0.00000000000E+00  0.00000000000E+00  0.93800000000E+00  0.93800000000E+00 0.  1.
         11    1    1    2    0    0 -0.59056990621E-01  0.51214821303E-01  0.80088346694E+00  0.80468955182E+00  0.51100000000E-03 0. -1.
    9000002    1    1    2    0    0  0.28568544464E+00 -0.23705500864E+00  0.92634104032E-01  0.10130332313E+01  0.93800000000E+00 0.  1.
         22    1    1    2    0    0 -0.22662845402E+00  0.18584018734E+00  0.31064823964E+01  0.31202772169E+01  0.00000000000E+00 0. -1.
</event>
<event>
 5    1  0.3490044E+002  0.1599676E+01  0.7818608E-02  0.3353715E+00
         11   -1    0    0    0    0  0.00000000000E+00  0.00000000000E+00  0.39999999674E+01  0.40000000000E+01  0.51100000000E-03 0.  1.
    9000002   -1    0    0    0    0 -0.00000000000E+00 -0.00000000000E+00  0.00000000000E+00  0.93800000000E+00  0.93800000000E+00 0.  1.
         11    1    1    2    0    0 -0.23872711025E+00 -0.26783612920E+00  0.23641010822E+01  0.23911714730E+01  0.51100000000E-03 0.  1.
    9000002    1    1    2    0    0  0.37927679302E+00  0.42736692515E+00  0.22645196112E+00  0.11214356268E+01  0.93800000000E+00 0.  1.
         22    1    1    2    0    0 -0.14054968277E+00 -0.15953079595E+00  0.14094469240E+01  0.14253929002E+01  0.00000000000E+00 0.  1.
</event>
<event>
 5    1  0.3490044E+002  0.1594279E+01  0.7818608E-02  0.3359596E+00
         11   -1    0    0    0    0  0.00000000000E+00  0.00000000000E+00  0.39999999674E+01  0.40000000000E+01  0.51100000000E-03 0. -1.
    9000002   -1    0    0    0    0 -0.00000000000E+00 -0.00000000000E+00  0.00000000000E+00  0.93800000000E+00  0.93800000000E+00 0.  1.
         11    1    1    2    0    0  0.10560604620E+00 -0.30288787848E-01  0.66004878212E+00  0.66912981069E+00  0.51100000000E-03 0. -1.
    9000002    1    1    2    0    0 -0.23407139960E+00  0.19609986358E+00  0.66484752626E-01  0.98869044647E+00  0.93800000000E+00 0.  1.
         22    1    1    2    0    0  0.12846535340E+00 -0.16581107573E+00  0.32734664326E+01  0.32801797428E+01  0.00000000000E+00 0. -1.
</event>
<event>
 5    1  0.3490044E+002  0.1599593E+01  0.7818608E-02  0.3353805E+00
         11   -1    0    0    0    0  0.00000000000E+00  0.00000000000E+00  0.39999999674E+01  0.40000000000E+01  0.51100000000E-03 0. -1.
    9000002   -1    0    0    0    0 -0.00000000000E+00 -0.00000000000E+00  0.00000000000E+00  0.93800000000E+00  0.93800000000E+00 0. -1.
         11    1    1    2    0    0  0.17445175814E-01  0.24471467628E-02  0.27053501313E+00  0.27110842321E+00  0.51100000000E-03 0. -1.
    9000002    1    1    2    0    0 -0.31481564685E+00  0.17256239084E-01  0.66478432232E-01  0.99180141724E+00  0.93800000000E+00 0. -1.
         22    1    1    2    0    0  0.29737047104E+00 -0.19703385847E-01  0.36629865220E+01  0.36750901595E+01  0.00000000000E+00 0. -1.
</event>
<event>
 5    1  0.3490044E+002  0.1599666E+01  0.7818608E-02  0.3353726E+00
         11   -1    0    0    0    0  0.00000000000E+00  0.00000000000E+00  0.39999999674E+01  0.40000000000E+01  0.51100000000E-03 0.  1.
    9000002   -1    0    0    0    0 -0.00000000000E+00 -0.00000000000E+00  0.00000000000E+00  0.93800000000E+00  0.93800000000E+00 0.  1.
         11    1    1    2    0    0  0.13375490734E+00 -0.77631254006E-01  0.14796566922E+01  0.14877167657E+01  0.51100000000E-03 0.  1.
    9000002    1    1    2    0    0 -0.34190639646E+00  0.20682166706E+00  0.10770774941E+00  0.10252415058E+01  0.93800000000E+00 0.  1.
         22    1    1    2    0    0  0.20815148912E+00 -0.12919041305E+00  0.24126355257E+01  0.24250417286E+01  0.00000000000E+00 0. -1.
</event>
<event>
 5    1  0.3490044E+002  0.1598455E+01  0.7818608E-02  0.3355042E+00
         11   -1    0    0    0    0  0.00000000000E+00  0.00000000000E+00  0.39999999674E+01  0.40000000000E+01  0.51100000000E-03 0.  1.
    9000002   -1    0    0    0    0 -0.00000000000E+00 -0.00000000000E+00  0.00000000000E+00  0.93800000000E+00  0.93800000000E+00 0. -1.
         11    1    1    2    0    0  0.74418076360E-01  0.12508623965E-01  0.10612680579E+01  0.10639476808E+01  0.51100000000E-03 0.  1.
    9000002    1    1    2    0    0 -0.26113970151E+00  0.91326559415E-01  0.51896905762E-01  0.97932209869E+00  0.93800000000E+00 0. -1.
         22    1    1    2    0    0  0.18672162515E+00 -0.10383518338E+00  0.28868350037E+01  0.28947302205E+01  0.00000000000E+00 0.  1.
</event>
<event>
 5    1  0.3490044E+002  0.1599673E+01  0.7818608E-02  0.3353719E+00
         11   -1    0    0    0    0  0.00000000000E+00  0.00000000000E+00  0.39999999674E+01  0.40000000000E+01  0.51100000000E-03 0. -1.
    9000002   -1    0    0    0    0 -0.00000000000E+00 -0.00000000000E+00  0.00000000000E+00  0.93800000000E+00  0.93800000000E+00 0.  1.
         11    1    1    2    0    0  0.37625137697E-01  0.10452195699E+00  0.99130140322E+00  0.99750650305E+00  0.51100000000E-03 0. -1.
    9000002    1    1    2    0    0 -0.13919329813E+00 -0.41191403277E+00  0.12812039550E+00  0.10417805817E+01  0.93800000000E+00 0.  1.
         22    1    1    2    0    0  0.10156816043E+00  0.30739207578E+00  0.28805781686E+01  0.28987129153E+01  0.00000000000E+00 0. -1.
</event>
<event>
 5    1  0.3490044E+002  0.1597719E+01  0.7818608E-02  0.3355843E+00
         11   -1    0    0    0    0  0.00000000000E+00  0.00000000000E+00  0.39999999674E+01  0.40000000000E+01  0.51100000000E-03 0. -1.
    9000002   -1    0    0    0    0 -0.00000000000E+00 -0.00000000000E+00  0.00000000000E+00  0.93800000000E+00  0.93800000000E+00 0. -1.
         11    1    1    2    0    0 -0.12919232695E+00 -0.12497039238E-01  0.67094343197E+00  0.68338289659E+00  0.51100000000E-03 0. -1.
    9000002    1    1    2    0    0  0.66917579730E+00 -0.15375658390E+00  0.33789108014E+00  0.12105584318E+01  0.93800000000E+00 0. -1.
         22    1    1    2    0    0 -0.53998347035E+00  0.16625362314E+00  0.29911654552E+01  0.30440586716E+01  0.00000000000E+00 0. -1.
</event>
<event>
 5    1  0.3490044E+002  0.1594586E+01  0.7818608E-02  0.3359261E+00
         11   -1    0    0    0    0  0.00000000000E+00  0.00000000000E+00  0.39999999674E+01  0.40000000000E+01  0.51100000000E-03 0.  1.
    9000002   -1    0    0    0    0 -0.00000000000E+00 -0.00000000000E+00  0.00000000000E+00  0.93800000000E+00  0.93800000000E+00 0.  1.
         11    1    1    2    0    0  0.30669854823E+00  0.18816429171E-01  0.21071706274E+01  0.21294568255E+01  0.51100000000E-03 0.  1.
    9000002    1    1    2    0    0 -0.66677823696E+00  0.40295714924E-01  0.32176073411E+00  0.11956550221E+01  0.93800000000E+00 0.  1.
         22    1    1    2    0    0  0.36007968874E+00 -0.59112144094E-01  0.15710686058E+01  0.16128881524E+01  0.00000000000E+00 0.  1.
</event>
<event>
 5    1  0.3490044E+002  0.1591061E+01  0.7818608E-02  0.3363123E+00
         11   -1    0    0    0    0  0.00000000000E+00  0.00000000000E+00  0.39999999674E+01  0.40000000000E+01  0.51100000000E-03 0.  1.
    9000002   -1    0    0    0    0 -0.00000000000E+00 -0.00000000000E+00  0.00000000000E+00  0.93800000000E+00  0.93800000000E+00 0. -1.
         11    1    1    2    0    0 -0.28998324362E+00  0.14220053537E+00  0.16029532372E+01  0.16351668464E+01  0.51100000000E-03 0.  1.
    9000002    1    1    2    0    0  0.64895245025E+00 -0.72925602224E-01  0.31030806739E+00  0.11843109908E+01  0.93800000000E+00 0. -1.
         22    1    1    2    0    0 -0.35896920663E+00 -0.69274933150E-01  0.20867386628E+01  0.21185221629E+01  0.00000000000E+00 0. -1.
</event>
<event>
 5    1  0.3490044E+002  0.1599578E+01  0.7818608E-02  0.3353822E+00
         11   -1    0    0    0    0  0.00000000000E+00  0.00000000000E+00  0.39999999674E+01  0.40000000000E+01  0.51100000000E-03 0. -1.
    9000002   -1    0    0    0    0 -0.00000000000E+00 -0.00000000000E+00  0.00000000000E+00  0.93800000000E+00  0.93800000000E+00 0.  1.
         11    1    1    2    0    0  0.94276912488E-01 -0.32244887011E-01  0.11736937979E+01  0.11779156427E+01  0.51100000000E-03 0. -1.
    9000002    1    1    2    0    0 -0.28492556951E+00  0.12768220526E+00  0.65187429163E-01  0.99074655014E+00  0.93800000000E+00 0.  1.
         22    1    1    2    0    0  0.19064865702E+00 -0.95437318245E-01  0.27611187403E+01  0.27693378072E+01  0.00000000000E+00 0. -1.
</event>
<event>
 5    1  0.3490044E+002  0.1599677E+01  0.7818608E-02  0.3353714E+00
         11   -1    0    0    0    0  0.00000000000E+00  0.00000000000E+00  0.39999999674E+01  0.40000000000E+01  0.51100000000E-03 0. -1.
    9000002   -1    0    0    0    0 -0.00000000000E+00 -0.00000000000E+00  0.00000000000E+00  0.93800000000E+00  0.93800000000E+00 0. -1.
         11    1    1    2    0    0 -0.75732815729E-01 -0.18537205982E-01  0.74388379233E+00  0.74795885247E+00  0.51100000000E-03 0.  1.
    9000002    1    1    2    0    0  0.39649820484E+00  0.97676521381E-01  0.11259948831E+00  0.10292104615E+01  0.93800000000E+00 0. -1.
         22    1    1    2    0    0 -0.32076538912E+00 -0.79139315399E-01  0.31435166867E+01  0.31608306860E+01  0.00000000000E+00 0. -1.
</event>
<event>
 5    1  0.3490044E+002  0.1599676E+01  0.7818608E-02  0.3353715E+00
         11   -1    0    0    0    0  0.00000000000E+00  0.00000000000E+00  0.39999999674E+01  0.40000000000E+01  0.51100000000E-03 0. -1.
    9000002   -1    0    0    0    0 -0.00000000000E+00 -0.00000000000E+00  0.00000000000E+00  0.93800000000E+00  0.93800000000E+00 0.  1.
         11    1    1    2    0    0  0.41321081086E-01  0.35933630522E-02  0.56220198299E+00  0.56373014360E+00  0.51100000000E-03 0. -1.
    9000002    1    1    2    0    0 -0.28626501541E+00 -0.29957798230E-01  0.55206723601E-01  0.98271914149E+00  0.93800000000E+00 0.  1.
         22    1    1    2    0    0  0.24494393432E+00  0.26364435178E-01  0.33825912608E+01  0.33915507149E+01  0.00000000000E+00 0. -1.
</event>
<event>
 5    1  0.3490044E+002  0.1585908E+01  0.7818608E-02  0.3368802E+00
         11   -1    0    0    0    0  0.00000000000E+00  0.00000000000E+00  0.39999999674E+01  0.40000000000E+01  0.51100000000E-03 0.  1.
    9000002   -1    0    0    0    0 -0.00000000000E+00 -0.00000000000E+00  0.00000000000E+00  0.93800000000E+00  0.93800000000E+00 0. -1.
         11    1    1    2    0    0  0.32616799133E-01  0.30047614473E-01  0.79154463018E-01  0.90732600854E-01  0.51100000000E-03 0.  1.
    9000002    1    1    2    0    0 -0.23818786830E+00  0.10634646837E-01  0.48274873093E-01  0.96903096942E+00  0.93800000000E+00 0. -1.
         22    1    1    2    0    0  0.20557106916E+00 -0.40682261310E-01  0.38725706312E+01  0.38782364297E+01  0.00000000000E+00 0.  1.
</event>
<event>
 5    1  0.3490044E+002  0.1585371E+01  0.7818608E-02  0.3369396E+00
         11   -1    0    0    0    0  0.00000000000E+00  0.00000000000E+00  0.39999999674E+01  0.40000000000E+01  0.51100000000E-03 0.  1.
    9000002   -1    0    0    0    0 -0.00000000000E+00 -0.00000000000E+00  0.00000000000E+00  0.93800000000E+00  0.93800000000E+00 0.  1.
         11    1    1    2    0    0 -0.43511045338E-01 -0.63770158092E-01  0.35350665432E+00  0.36183844448E+00  0.51100000000E-03 0.  1.
    9000002    1    1    2    0    0  0.15196151992E+00 -0.14508449411E+00  0.40078818056E-01  0.96207698529E+00  0.93800000000E+00 0.  1.
         22    1    1    2    0    0 -0.10845047459E+00  0.20885465221E+00  0.36064144950E+01  0.36140845702E+01  0.00000000000E+00 0.  1.
</event>
<event>
 5    1  0.3490044E+002  0.1596529E+01  0.7818608E-02  0.3357139E+00
         11   -1    0    0    0    0  0.00000000000E+00  0.00000000000E+00  0.39999999674E+01  0.40000000000E+01  0.51100000000E-03 0.  1.
    9000002   -1    0    0    0    0 -0.00000000000E+00 -0.00000000000E+00  0.00000000000E+00  0.93800000000E+00  0.93800000000E+00 0.  1.
         11    1    1    2    0    0  0.42480704736E+00  0.82870889048E-01  0.22056307474E+01  0.22476956793E+01  0.51100000000E-03 0.  1.
    9000002    1    1    2    0    0 -0.75972034075E+00 -0.20697835082E+00  0.45880766998E+00  0.13078086679E+01  0.93800000000E+00 0.  1.
         22    1    1    2    0    0  0.33491329340E+00  0.12410746177E+00  0.13355615499E+01  0.13824956527E+01  0.00000000000E+00 0.  1.
</event>
<event>
 5    1  0.3490044E+002  0.1599471E+01  0.7818608E-02  0.3353938E+00
         11   -1    0    0    0    0  0.00000000000E+00  0.00000000000E+00  0.39999999674E+01  0.40000000000E+01  0.51100000000E-03 0.  1.
    9000002   -1    0    0    0    0 -0.00000000000E+00 -0.00000000000E+00  0.00000000000E+00  0.93800000000E+00  0.93800000000E+00 0.  1.
         11    1    1    2    0    0 -0.42543360979E+00  0.40891070448E-01  0.18732805918E+01  0.19214177768E+01  0.51100000000E-03 0.  1.
    9000002    1    1    2    0    0  0.78068277129E+00 -0.56522025437E-01  0.44897659649E+00  0.13015699416E+01  0.93800000000E+00 0.  1.
         22    1    1    2    0    0 -0.35524916150E+00  0.15630954989E-01  0.16777427790E+01  0.17150122816E+01  0.00000000000E+00 0.  1.
</event>
<event>
 5    1  0.3490044E+002  0.1599444E+01  0.7818608E-02  0.3353967E+00
         11   -1    0    0    0    0  0.00000000000E+00  0.00000000000E+00  0.39999999674E+01  0.40000000000E+01  0.51100000000E-03 0.  1.
    9000002   -1    0    0    0    0 -0.00000000000E+00 -0.00000000000E+00  0.00000000000E+00  0.93800000000E+00  0.93800000000E+00 0.  1.
         11    1    1    2    0    0  0.83247362550E-01  0.10068771206E+00  0.13358014719E+01  0.13421750900E+01  0.51100000000E-03 0.  1.
    9000002    1    1    2    0    0 -0.23624622345E+00 -0.24506859496E+00  0.77798034721E-01  0.10008833241E+01  0.93800000000E+00 0.  1.
         22    1    1    2    0    0  0.15299886090E+00  0.14438088290E+00  0.25864004607E+01  0.25949415858E+01  0.00000000000E+00 0. -1.
</event>
<event>
 5    1  0.3490044E+002  0.1599674E+01  0.7818608E-02  0.3353717E+00
         11   -1    0    0    0    0  0.00000000000E+00  0.00000000000E+00  0.39999999674E+01  0.40000000000E+01  0.51100000000E-03 0.  1.
    9000002   -1    0    0    0    0 -0.00000000000E+00 -0.00000000000E+00  0.00000000000E+00  0.93800000000E+00  0.93800000000E+00 0.  1.
         11    1    1    2    0    0  0.26130299952E-01 -0.13990173962E-01  0.33143717663E+00  0.33276024510E+00  0.51100000000E-03 0.  1.
    9000002    1    1    2    0    0 -0.31125704313E+00  0.17646211452E+00  0.85915454014E-01  0.10075938120E+01  0.93800000000E+00 0.  1.
         22    1    1    2    0    0  0.28512674318E+00 -0.16247194056E+00  0.35826473367E+01  0.35976459429E+01  0.00000000000E+00 0.  1.
</event>
<event>
 5    1  0.3490044E+002  0.1599661E+01  0.7818608E-02  0.3353731E+00
         11   -1    0    0    0    0  0.00000000000E+00  0.00000000000E+00  0.39999999674E+01  0.40000000000E+01  0.51100000000E-03 0. -1.
    9000002   -1    0    0    0    0 -0.00000000000E+00 -0.00000000000E+00  0.00000000000E+00  0.93800000000E+00  0.93800000000E+00 0.  1.
         11    1    1    2    0    0 -0.46130115360E-01 -0.21120804182E+00  0.18913702369E+01  0.19036854936E+01  0.51100000000E-03 0. -1.
    9000002    1    1    2    0    0  0.10056352826E+00  0.42471207000E+00  0.12913982625E+00  0.10425998563E+01  0.93800000000E+00 0.  1.
         22    1    1    2    0    0 -0.54433412899E-01 -0.21350402819E+00  0.19794899042E+01  0.19917146501E+01  0.00000000000E+00 0. -1.
</event>
<event>
 5    1  0.3490044E+002  0.1598577E+01  0.7818608E-02  0.3354909E+00
         11   -1    0    0    0    0  0.00000000000E+00  0.00000000000E+00  0.39999999674E+01  0.40000000000E+01  0.51100000000E-03 0. -1.
    9000002   -1    0    0    0    0 -0.00000000000E+00 -0.00000000000E+00  0.00000000000E+00  0.93800000000E+00  0.93800000000E+00 0.  1.
         11    1    1    2    0    0 -0.22829754454E+00 -0.33647155407E+00  0.21969010223E+01  0.22342128901E+01  0.51100000000E-03 0. -1.
    9000002    1    1    2    0    0  0.35019469701E+00  0.51450917580E+00  0.27270941565E+00  0.11582618198E+01  0.93800000000E+00 0.  1.
         22    1    1    2    0    0 -0.12189715247E+00 -0.17803762174E+00  0.15303895294E+01  0.15455252901E+01  0.00000000000E+00 0. -1.
</event>
<event>
 5    1  0.3490044E+002  0.1599642E+01  0.7818608E-02  0.3353752E+00
         11   -1    0    0    0    0  0.00000000000E+00  0.00000000000E+00  0.39999999674E+01  0.40000000000E+01  0.51100000000E-03 0. -1.
    9000002   -1    0    0    0    0 -0.00000000000E+00 -0.00000000000E+00  0.00000000000E+00  0.93800000000E+00  0.93800000000E+00 0. -1.
         11    1    1    2    0    0  0.24453789696E+00  0.12423932252E+00  0.22701910690E+01  0.22867011049E+01  0.51100000000E-03 0. -1.
    9000002    1    1    2    0    0 -0.42540399469E+00 -0.21447522561E+00  0.15480706305E+00  0.10633801803E+01  0.93800000000E+00 0. -1.
         22    1    1    2    0    0  0.18086609773E+00  0.90235903088E-01  0.15750018353E+01  0.15879187148E+01  0.00000000000E+00 0. -1.
</event>
<event>
 5    1  0.3490044E+002  0.1599652E+01  0.7818608E-02  0.3353741E+00
         11   -1    0    0    0    0  0.00000000000E+00  0.00000000000E+00  0.39999999674E+01  0.40000000000E+01  0.51100000000E-03 0. -1.
    9000002   -1    0    0    0    0 -0.00000000000E+00 -0.00000000000E+00  0.00000000000E+00  0.93800000000E+00  0.93800000000E+00 0.  1.
         11    1    1    2    0    0 -0.26152301357E-02 -0.53440520473E-01  0.85559872379E+00  0.85727018258E+00  0.51100000000E-03 0. -1.
    9000002    1    1    2    0    0 -0.38621672794E-02  0.26343469843E+00  0.46178436886E-01  0.97539182112E+00  0.93800000000E+00 0.  1.
         22    1    1    2    0    0  0.64773974151E-02 -0.20999417796E+00  0.30982228067E+01  0.31053379963E+01  0.00000000000E+00 0. -1.
</event>
<event>
 5    1  0.3490044E+002  0.1599664E+01  0.7818608E-02  0.3353728E+00
         11   -1    0    0    0    0  0.00000000000E+00  0.00000000000E+00  0.39999999674E+01  0.40000000000E+01  0.51100000000E-03 0.  1.
    9000002   -1    0    0    0    0 -0.00000000000E+00 -0.00000000000E+00  0.00000000000E+00  0.93800000000E+00  0.93800000000E+00 0. -1.
         11    1    1    2    0    0  0.87791165317E-01  0.24636285192E+00  0.18142936305E+01  0.18330476214E+01  0.51100000000E-03 0.  1.
    9000002    1    1    2    0    0 -0.17458497933E+00 -0.51581424759E+00  0.20462546957E+00  0.11037480853E+01  0.93800000000E+00 0. -1.
         22    1    1    2    0    0  0.86793814008E-01  0.26945139566E+00  0.19810808673E+01  0.20012042933E+01  0.00000000000E+00 0.  1.
</event>
<event>
 5    1  0.3490044E+002  0.1599606E+01  0.7818608E-02  0.3353791E+00
         11   -1    0    0    0    0  0.00000000000E+00  0.00000000000E+00  0.39999999674E+01  0.40000000000E+01  0.51100000000E-03 0. -1.
    9000002   -1    0    0    0    0 -0.00000000000E+00 -0.00000000000E+00  0.00000000000E+00  0.93800000000E+00  0.93800000000E+00 0. -1.
         11    1    1    2    0    0 -0.99233027765E-01 -0.84225593688E-01  0.11011051597E+01  0.11087713824E+01  0.51100000000E-03 0. -1.
    9000002    1    1    2    0    0  0.35070794405E+00  0.26389189952E+00  0.13068437548E+00  0.10438186637E+01  0.93800000000E+00 0. -1.
         22    1    1    2    0    0 -0.25147491629E+00 -0.17966630583E+00  0.27682104321E+01  0.27854099539E+01  0.00000000000E+00 0. -1.
</event>
<event>
 5    1  0.3490044E+002  0.1589072E+01  0.7818608E-02  0.3365311E+00
         11   -1    0    0    0    0  0.00000000000E+00  0.00000000000E+00  0.39999999674E+01  0.40000000000E+01  0.51100000000E-03 0.  1.
    9000002   -1    0    0    0    0 -0.00000000000E+00 -0.00000000000E+00  0.00000000000E+00  0.93800000000E+00  0.93800000000E+00 0. -1.
         11    1    1    2    0    0 -0.23258272157E+00  0.65674729201E-01  0.13024785870E+01  0.13247107697E+01  0.51100000000E-03 0.  1.
    9000002    1    1    2    0    0  0.37317823313E+00 -0.34811366448E+00  0.18830879833E+00  0.10843197502E+01  0.93800000000E+00 0. -1.
         22    1    1    2    0    0 -0.14059551156E+00  0.28243893528E+00  0.25092125820E+01  0.25289694802E+01  0.00000000000E+00 0.  1.
</event>
<event>
 5    1  0.3490044E+002  0.1599673E+01  0.7818608E-02  0.3353719E+00
         11   -1    0    0    0    0  0.00000000000E+00  0.00000000000E+00  0.39999999674E+01  0.40000000000E+01  0.51100000000E-03 0.  1.
    9000002   -1    0    0    0    0 -0.00000000000E+00 -0.00000000000E+00  0.00000000000E+00  0.93800000000E+00  0.93800000000E+00 0. -1.
         11    1    1    2    0    0  0.34336647953E-01  0.13291470837E-02  0.60322986517E+00  0.60420799679E+00  0.51100000000E-03 0.  1.
    9000002    1    1    2    0    0 -0.23545826550E+00 -0.14780949015E-01  0.36938397402E-01  0.96791916834E+00  0.93800000000E+00 0. -1.
         22    1    1    2    0    0  0.20112161755E+00  0.13451801931E-01  0.33598317048E+01  0.33658728349E+01  0.00000000000E+00 0.  1.
</event>
<event>
 5    1  0.3490044E+002  0.1501691E+01  0.7818608E-02  0.3467501E+00
         11   -1    0    0    0    0  0.00000000000E+00  0.00000000000E+00  0.39999999674E+01  0.40000000000E+01  0.51100000000E-03 0. -1.
    9000002   -1    0    0    0    0 -0.00000000000E+00 -0.00000000000E+00  0.00000000000E+00  0.93800000000E+00  0.93800000000E+00 0. -1.
         11    1    1    2    0    0  0.17163733518E+00 -0.32002908346E+00  0.35216258482E+01  0.35403003919E+01  0.51100000000E-03 0. -1.
    9000002    1    1    2    0    0  0.34097353149E-01  0.39995759583E+00  0.19539416019E+00  0.10388222109E+01  0.93800000000E+00 0. -1.
         22    1    1    2    0    0 -0.20573468833E+00 -0.79928512363E-01  0.28297995900E+00  0.35887739726E+00  0.00000000000E+00 0. -1.
</event>
<event>
 5    1  0.3490044E+002  0.1598573E+01  0.7818608E-02  0.3354914E+00
         11   -1    0    0    0    0  0.00000000000E+00  0.00000000000E+00  0.39999999674E+01  0.40000000000E+01  0.51100000000E-03 0. -1.
    9000002   -1    0    0    0    0 -0.00000000000E+00 -0.00000000000E+00  0.00000000000E+00  0.93800000000E+00  0.93800000000E+00 0. -1.
         11    1    1    2    0    0  0.12745967733E+00 -0.18518651312E+00  0.19040139379E+01  0.19172400348E+01  0.51100000000E-03 0. -1.
    9000002    1    1    2    0    0 -0.17825935347E+00  0.38100348113E+00  0.12060877674E+00  0.10350509779E+01  0.93800000000E+00 0. -1.
         22    1    1    2    0    0  0.50799676142E-01 -0.19581696802E+00  0.19753772527E+01  0.19857089874E+01  0.00000000000E+00 0. -1.
</event>
<event>
 5    1  0.3490044E+002  0.1637681E+01  0.7818608E-02  0.3313455E+00
         11   -1    0    0    0    0  0.00000000000E+00  0.00000000000E+00  0.39999999674E+01  0.40000000000E+01  0.51100000000E-03 0. -1.
    9000002   -1    0    0    0    0 -0.00000000000E+00 -0.00000000000E+00  0.00000000000E+00  0.93800000000E+00  0.93800000000E+00 0.  1.
         11    1    1    2    0    0 -0.43510752968E+00  0.12821399516E+00  0.12735882203E+01  0.13519558450E+01  0.51100000000E-03 0. -1.
    9000002    1    1    2    0    0 -0.41943327267E+00  0.52024615136E+00  0.87531784440E+00  0.14465841341E+01  0.93800000000E+00 0.  1.
         22    1    1    2    0    0  0.85454080235E+00 -0.64846014652E+00  0.18510939027E+01  0.21394600209E+01  0.00000000000E+00 0.  1.
</event>
<event>
 5    1  0.3490044E+002  0.1583402E+01  0.7818608E-02  0.3371578E+00
         11   -1    0    0    0    0  0.00000000000E+00  0.00000000000E+00  0.39999999674E+01  0.40000000000E+01  0.51100000000E-03 0. -1.
    9000002   -1    0    0    0    0 -0.00000000000E+00 -0.00000000000E+00  0.00000000000E+00  0.93800000000E+00  0.93800000000E+00 0.  1.
         11    1    1    2    0    0 -0.57501492102E-01  0.11850404499E+00  0.20864223414E+01  0.20905760159E+01  0.51100000000E-03 0. -1.
    9000002    1    1    2    0    0 -0.17976467559E+00 -0.19617664480E+00  0.59726262652E-01  0.97683767383E+00  0.93800000000E+00 0.  1.
         22    1    1    2    0    0  0.23726616769E+00  0.77672599815E-01  0.18538513633E+01  0.18705863103E+01  0.00000000000E+00 0. -1.
</event>
<event>
 5    1  0.3490044E+002  0.1599664E+01  0.7818608E-02  0.3353728E+00
         11   -1    0    0    0    0  0.00000000000E+00  0.00000000000E+00  0.39999999674E+01  0.40000000000E+01  0.51100000000E-03 0. -1.
    9000002   -1    0    0    0    0 -0.00000000000E+00 -0.00000000000E+00  0.00000000000E+00  0.93800000000E+00  0.93800000000E+00 0.  1.
         11    1    1    2    0    0  0.10853961683E+00  0.15564559181E-01  0.67167501534E+00  0.68056644884E+00  0.51100000000E-03 0. -1.
    9000002    1    1    2    0    0 -0.62042468432E+00 -0.85810369463E-01  0.27530651508E+00  0.11610029654E+01  0.93800000000E+00 0.  1.
         22    1    1    2    0    0  0.51188506748E+00  0.70245810282E-01  0.30530184369E+01  0.30964305858E+01  0.00000000000E+00 0. -1.
</event>
<event>
 5    1  0.3490044E+002  0.1599676E+01  0.7818608E-02  0.3353715E+00
         11   -1    0    0    0    0  0.00000000000E+00  0.00000000000E+00  0.39999999674E+01  0.40000000000E+01  0.51100000000E-03 0. -1.
    9000002   -1    0    0    0    0 -0.00000000000E+00 -0.00000000000E+00  0.00000000000E+00  0.93800000000E+00  0.93800000000E+00 0. -1.
         11    1    1    2    0    0 -0.10309296172E-01  0.39224751567E-03  0.15346322738E+00  0.15381046363E+00  0.51100000000E-03 0.  1.
    9000002    1    1    2    0    0  0.27051108099E+00 -0.10863327144E-01  0.48770355376E-01  0.97750539864E+00  0.93800000000E+00 0. -1.
         22    1    1    2    0    0 -0.26020178482E+00  0.10471079629E-01  0.37977663846E+01  0.38066841377E+01  0.00000000000E+00 0. -1.
</event>
<event>
 5    1  0.3490044E+002  0.1594725E+01  0.7818608E-02  0.3359108E+00
         11   -1    0    0    0    0  0.00000000000E+00  0.00000000000E+00  0.39999999674E+01  0.40000000000E+01  0.51100000000E-03 0. -1.
    9000002   -1    0    0    0    0 -0.00000000000E+00 -0.00000000000E+00  0.00000000000E+00  0.93800000000E+00  0.93800000000E+00 0. -1.
         11    1    1    2    0    0  0.58765928839E-02 -0.23301862587E+00  0.16483444624E+01  0.16647438068E+01  0.51100000000E-03 0. -1.
    9000002    1    1    2    0    0 -0.20275072040E+00  0.55907238663E+00  0.25138767425E+00  0.11387315535E+01  0.93800000000E+00 0. -1.
         22    1    1    2    0    0  0.19687412752E+00 -0.32605376077E+00  0.21002678307E+01  0.21345246397E+01  0.00000000000E+00 0.  1.
</event>
<event>
 5    1  0.3490044E+002  0.1599674E+01  0.7818608E-02  0.3353717E+00
         11   -1    0    0    0    0  0.00000000000E+00  0.00000000000E+00  0.39999999674E+01  0.40000000000E+01  0.51100000000E-03 0. -1.
    9000002   -1    0    0    0    0 -0.00000000000E+00 -0.00000000000E+00  0.00000000000E+00  0.93800000000E+00  0.93800000000E+00 0. -1.
         11    1    1    2    0    0  0.54037670377E-01  0.68867037553E-01  0.10714527577E+01  0.10750227960E+01  0.51100000000E-03 0. -1.
    9000002    1    1    2    0    0 -0.20043877756E+00 -0.25892847030E+00  0.71722075023E-01  0.99609623648E+00  0.93800000000E+00 0. -1.
         22    1    1    2    0    0  0.14640110718E+00  0.19006143275E+00  0.28568251346E+01  0.28668809675E+01  0.00000000000E+00 0. -1.
</event>
<event>
 5    1  0.3490044E+002  0.1599651E+01  0.7818608E-02  0.3353742E+00
         11   -1    0    0    0    0  0.00000000000E+00  0.00000000000E+00  0.39999999674E+01  0.40000000000E+01  0.51100000000E-03 0.  1.
    9000002   -1    0    0    0    0 -0.00000000000E+00 -0.00000000000E+00  0.00000000000E+00  0.93800000000E+00  0.93800000000E+00 0.  1.
         11    1    1    2    0    0 -0.66797139580E-02 -0.25028977842E-01  0.36283626083E+00  0.36376019794E+00  0.51100000000E-03 0.  1.
    9000002    1    1    2    0    0  0.93243274014E-01  0.30331233350E+00  0.67305534488E-01  0.99250527191E+00  0.93800000000E+00 0.  1.
         22    1    1    2    0    0 -0.86563560056E-01 -0.27828335566E+00  0.35698581720E+01  0.35817345301E+01  0.00000000000E+00 0.  1.
</event>
<event>
 5    1  0.3490044E+002  0.1599677E+01  0.7818608E-02  0.3353714E+00
         11   -1    0    0    0    0  0.00000000000E+00  0.00000000000E+00  0.39999999674E+01  0.40000000000E+01  0.51100000000E-03 0.  1.
    9000002   -1    0    0    0    0 -0.00000000000E+00 -0.00000000000E+00  0.00000000000E+00  0.93800000000E+00  0.93800000000E+00 0. -1.
         11    1    1    2    0    0  0.15732216273E+00  0.53040778102E-02  0.12570046874E+01  0.12668225770E+01  0.51100000000E-03 0.  1.
    9000002    1    1    2    0    0 -0.47920563658E+00 -0.17207333996E-01  0.15687650191E+00  0.10650766974E+01  0.93800000000E+00 0. -1.
         22    1    1    2    0    0  0.32188347385E+00  0.11903256186E-01  0.25861187780E+01  0.26061007256E+01  0.00000000000E+00 0. -1.
</event>
<event>
 5    1  0.3490044E+002  0.1599676E+01  0.7818608E-02  0.3353715E+00
         11   -1    0    0    0    0  0.00000000000E+00  0.00000000000E+00  0.39999999674E+01  0.40000000000E+01  0.51100000000E-03 0.  1.
    9000002   -1    0    0    0    0 -0.00000000000E+00 -0.00000000000E+00  0.00000000000E+00  0.93800000000E+00  0.93800000000E+00 0. -1.
         11    1    1    2    0    0  0.20157835579E+00 -0.94488070290E-01  0.13990770921E+01  0.14166787920E+01  0.51100000000E-03 0.  1.
    9000002    1    1    2    0    0 -0.54069916448E+00  0.25643136414E+00  0.24977182033E+00  0.11403256523E+01  0.93800000000E+00 0. -1.
         22    1    1    2    0    0  0.33912080869E+00 -0.16194329385E+00  0.23511510549E+01  0.23809955557E+01  0.00000000000E+00 0.  1.
</event>
<event>
 5    1  0.3490044E+002  0.1588592E+01  0.7818608E-02  0.3365839E+00
         11   -1    0    0    0    0  0.00000000000E+00  0.00000000000E+00  0.39999999674E+01  0.40000000000E+01  0.51100000000E-03 0.  1.
    9000002   -1    0    0    0    0 -0.00000000000E+00 -0.00000000000E+00  0.00000000000E+00  0.93800000000E+00  0.93800000000E+00 0.  1.
         11    1    1    2    0    0  0.89031502541E-02 -0.39205749954E-01  0.14322904824E+00  0.14876551447E+00  0.51100000000E-03 0.  1.
    9000002    1    1    2    0    0  0.35324985612E+00 -0.91796604893E-01  0.98535719399E-01  0.10113186271E+01  0.93800000000E+00 0.  1.
         22    1    1    2    0    0 -0.36215300637E+00  0.13100235485E+00  0.37582351997E+01  0.37779158584E+01  0.00000000000E+00 0.  1.
</event>
<event>
 5    1  0.3490044E+002  0.1597239E+01  0.7818608E-02  0.3356365E+00
         11   -1    0    0    0    0  0.00000000000E+00  0.00000000000E+00  0.39999999674E+01  0.40000000000E+01  0.51100000000E-03 0.  1.
    9000002   -1    0    0    0    0 -0.00000000000E+00 -0.00000000000E+00  0.00000000000E+00  0.93800000000E+00  0.93800000000E+00 0.  1.
         11    1    1    2    0    0  0.83852210067E-02  0.19046233133E-03  0.60016637146E+00  0.60022519338E+00  0.51100000000E-03 0.  1.
    9000002    1    1    2    0    0 -0.11382544547E+00 -0.27553407932E+00  0.61188023708E-01  0.98613550547E+00  0.93800000000E+00 0.  1.
         22    1    1    2    0    0  0.10544022447E+00  0.27534361698E+00  0.33386455722E+01  0.33516393012E+01  0.00000000000E+00 0.  1.
</event>
<event>
 5    1  0.3490044E+002  0.1599597E+01  0.7818608E-02  0.3353801E+00
         11   -1    0    0    0    0  0.00000000000E+00  0.00000000000E+00  0.39999999674E+01  0.40000000000E+01  0.51100000000E-03 0. -1.
    9000002   -1    0    0    0    0 -0.00000000000E+00 -0.00000000000E+00  0.00000000000E+00  0.93800000000E+00  0.93800000000E+00 0.  1.
         11    1    1    2    0    0 -0.10644294908E+00  0.38728157108E+00  0.21914626427E+01  0.22279645177E+01  0.51100000000E-03 0. -1.
    9000002    1    1    2    0    0  0.17400862226E+00 -0.66488125473E+00  0.33652500415E+00  0.12105532462E+01  0.93800000000E+00 0.  1.
         22    1    1    2    0    0 -0.67565673186E-01  0.27759968365E+00  0.14720123205E+01  0.14994822361E+01  0.00000000000E+00 0. -1.
</event>
<event>
 5    1  0.3490044E+002  0.1599676E+01  0.7818608E-02  0.3353715E+00
         11   -1    0    0    0    0  0.00000000000E+00  0.00000000000E+00  0.39999999674E+01  0.40000000000E+01  0.51100000000E-03 0.  1.
    9000002   -1    0    0    0    0 -0.00000000000E+00 -0.00000000000E+00  0.00000000000E+00  0.93800000000E+00  0.93800000000E+00 0. -1.
         11    1    1    2    0    0  0.17195141792E+00 -0.22740139266E+00  0.21544837873E+01  0.21732646720E+01  0.51100000000E-03 0.  1.
    9000002    1    1    2    0    0 -0.30613550188E+00  0.40515992522E+00  0.17676354717E+00  0.10811858592E+01  0.93800000000E+00 0. -1.
         22    1    1    2    0    0  0.13418408396E+00 -0.17775853256E+00  0.16687526328E+01  0.16835494688E+01  0.00000000000E+00 0. -1.
</event>
<event>
 5    1  0.3490044E+002  0.1599662E+01  0.7818608E-02  0.3353730E+00
         11   -1    0    0    0    0  0.00000000000E+00  0.00000000000E+00  0.39999999674E+01  0.40000000000E+01  0.51100000000E-03 0.  1.
    9000002   -1    0    0    0    0 -0.00000000000E+00 -0.00000000000E+00  0.00000000000E+00  0.93800000000E+00  0.93800000000E+00 0.  1.
         11    1    1    2    0    0 -0.28705376299E-01 -0.39487420594E+00  0.23892164876E+01  0.24217979525E+01  0.51100000000E-03 0.  1.
    9000002    1    1    2    0    0  0.38810365803E-01  0.61994368289E+00  0.27046326597E+00  0.11570785594E+01  0.93800000000E+00 0.  1.
         22    1    1    2    0    0 -0.10104989504E-01 -0.22506947695E+00  0.13403202138E+01  0.13591234881E+01  0.00000000000E+00 0.  1.
</event>
<event>
 5    1  0.3490044E+002  0.1599651E+01  0.7818608E-02  0.3353742E+00
         11   -1    0    0    0    0  0.00000000000E+00  0.00000000000E+00  0.39999999674E+01  0.40000000000E+01  0.51100000000E-03 0.  1.
    9000002   -1    0    0    0    0 -0.00000000000E+00 -0.00000000000E+00  0.00000000000E+00  0.93800000000E+00  0.93800000000E+00 0.  1.
         11    1    1    2    0    0 -0.33297271917E+00  0.48780635845E-01  0.21854254520E+01  0.22111840831E+01  0.51100000000E-03 0.  1.
    9000002    1    1    2    0    0  0.56547848468E+00 -0.79560196697E-01  0.22618474277E+00  0.11212043879E+01  0.93800000000E+00 0.  1.
         22    1    1    2    0    0 -0.23250576551E+00  0.30779560852E-01  0.15883897726E+01  0.16056115290E+01  0.00000000000E+00 0.  1.
</event>
<event>
 5    1  0.3490044E+002  0.1599502E+01  0.7818608E-02  0.3353904E+00
         11   -1    0    0    0    0  0.00000000000E+00  0.00000000000E+00  0.39999999674E+01  0.40000000000E+01  0.51100000000E-03 0. -1.
    9000002   -1    0    0    0    0 -0.00000000000E+00 -0.00000000000E+00  0.00000000000E+00  0.93800000000E+00  0.93800000000E+00 0. -1.
         11    1    1    2    0    0 -0.42915792919E-01 -0.11574362344E+00  0.10896014603E+01  0.10965719105E+01  0.51100000000E-03 0. -1.
    9000002    1    1    2    0    0  0.11065609371E+00  0.38488930770E+00  0.10833525719E+00  0.10256534884E+01  0.93800000000E+00 0. -1.
         22    1    1    2    0    0 -0.67740300790E-01 -0.26914568426E+00  0.28020632499E+01  0.28157746011E+01  0.00000000000E+00 0. -1.
</event>
<event>
 5    1  0.3490044E+002  0.1599676E+01  0.7818608E-02  0.3353715E+00
         11   -1    0    0    0    0  0.00000000000E+00  0.00000000000E+00  0.39999999674E+01  0.40000000000E+01  0.51100000000E-03 0.  1.
    9000002   -1    0    0    0    0 -0.00000000000E+00 -0.00000000000E+00  0.00000000000E+00  0.93800000000E+00  0.93800000000E+00 0.  1.
         11    1    1    2    0    0  0.63325913713E-02  0.29494352613E-01  0.50954967019E+00  0.51044210844E+00  0.51100000000E-03 0. -1.
    9000002    1    1    2    0    0 -0.52820768373E-01 -0.23422933321E+00  0.38271096629E-01  0.96900056292E+00  0.93800000000E+00 0.  1.
         22    1    1    2    0    0  0.46488177002E-01  0.20473498059E+00  0.34521792005E+01  0.34585573286E+01  0.00000000000E+00 0.  1.
</event>
<event>
 5    1  0.3490044E+002  0.1598490E+01  0.7818608E-02  0.3355004E+00
         11   -1    0    0    0    0  0.00000000000E+00  0.00000000000E+00  0.39999999674E+01  0.40000000000E+01  0.51100000000E-03 0. -1.
    9000002   -1    0    0    0    0 -0.00000000000E+00 -0.00000000000E+00  0.00000000000E+00  0.93800000000E+00  0.93800000000E+00 0.  1.
         11    1    1    2    0    0 -0.87483937369E-02  0.44094260052E-02  0.28120750356E+00  0.28137856815E+00  0.51100000000E-03 0. -1.
    9000002    1    1    2    0    0 -0.14076138084E-01 -0.32744127043E+00  0.72797109333E-01  0.99627272490E+00  0.93800000000E+00 0.  1.
         22    1    1    2    0    0  0.22824531821E-01  0.32303184442E+00  0.36459953545E+01  0.36603487070E+01  0.00000000000E+00 0. -1.
</event>
<event>
 5    1  0.3490044E+002  0.1599648E+01  0.7818608E-02  0.3353746E+00
         11   -1    0    0    0    0  0.00000000000E+00  0.00000000000E+00  0.39999999674E+01  0.40000000000E+01  0.51100000000E-03 0.  1.
    9000002   -1    0    0    0    0 -0.00000000000E+00 -0.00000000000E+00  0.00000000000E+00  0.93800000000E+00  0.93800000000E+00 0.  1.
         11    1    1    2    0    0  0.19012486381E-03  0.48015740688E-03  0.20575207055E-01  0.20588029652E-01  0.51100000000E-03 0.  1.
    9000002    1    1    2    0    0 -0.14301936197E+00 -0.20154206982E+00  0.40584336950E-01  0.97085778166E+00  0.93800000000E+00 0.  1.
         22    1    1    2    0    0  0.14282923710E+00  0.20106191241E+00  0.39388404234E+01  0.39465541887E+01  0.00000000000E+00 0.  1.
</event>
<event>
 5    1  0.3490044E+002  0.1583977E+01  0.7818608E-02  0.3370940E+00
         11   -1    0    0    0    0  0.00000000000E+00  0.00000000000E+00  0.39999999674E+01  0.40000000000E+01  0.51100000000E-03 0.  1.
    9000002   -1    0    0    0    0 -0.00000000000E+00 -0.00000000000E+00  0.00000000000E+00  0.93800000000E+00  0.93800000000E+00 0.  1.
         11    1    1    2    0    0 -0.24746471787E-01 -0.82902424177E-01  0.79278884959E+00  0.79749584385E+00  0.51100000000E-03 0.  1.
    9000002    1    1    2    0    0  0.47857019452E-01 -0.18379830358E+00  0.35684965978E-01  0.95770012400E+00  0.93800000000E+00 0.  1.
         22    1    1    2    0    0 -0.23110547665E-01  0.26670072775E+00  0.31715261518E+01  0.31828040322E+01  0.00000000000E+00 0.  1.
</event>
<event>
 5    1  0.3490044E+002  0.1599607E+01  0.7818608E-02  0.3353790E+00
         11   -1    0    0    0    0  0.00000000000E+00  0.00000000000E+00  0.39999999674E+01  0.40000000000E+01  0.51100000000E-03 0. -1.
    9000002   -1    0    0    0    0 -0.00000000000E+00 -0.00000000000E+00  0.00000000000E+00  0.93800000000E+00  0.93800000000E+00 0.  1.
         11    1    1    2    0    0  0.24451746998E-01  0.28030222754E-01  0.49197835990E+00  0.49338276120E+00  0.51100000000E-03 0. -1.
    9000002    1    1    2    0    0 -0.16318933537E+00 -0.26620079141E+00  0.65169812086E-01  0.99074957731E+00  0.93800000000E+00 0.  1.
         22    1    1    2    0    0  0.13873758837E+00  0.23817056866E+00  0.34428517954E+01  0.34538676615E+01  0.00000000000E+00 0. -1.
</event>
<event>
 5    1  0.3490044E+002  0.1599655E+01  0.7818608E-02  0.3353738E+00
         11   -1    0    0    0    0  0.00000000000E+00  0.00000000000E+00  0.39999999674E+01  0.40000000000E+01  0.51100000000E-03 0.  1.
    9000002   -1    0    0    0    0 -0.00000000000E+00 -0.00000000000E+00  0.00000000000E+00  0.93800000000E+00  0.93800000000E+00 0.  1.
         11    1    1    2    0    0  0.22957129153E-02 -0.14383314617E-02  0.39705128951E-01  0.39800722119E-01  0.51100000000E-03 0.  1.
    9000002    1    1    2    0    0 -0.14837646366E+00  0.20564046168E+00  0.42745241056E-01  0.97261232260E+00  0.93800000000E+00 0.  1.
         22    1    1    2    0    0  0.14608075074E+00 -0.20420213022E+00  0.39175495974E+01  0.39255869553E+01  0.00000000000E+00 0.  1.
</event>
<event>
 5    1  0.3490044E+002  0.1573616E+01  0.7818608E-02  0.3382507E+00
         11   -1    0    0    0    0  0.00000000000E+00  0.00000000000E+00  0.39999999674E+01  0.40000000000E+01  0.51100000000E-03 0. -1.
    9000002   -1    0    0    0    0 -0.00000000000E+00 -0.00000000000E+00  0.00000000000E+00  0.93800000000E+00  0.93800000000E+00 0. -1.
         11    1    1    2    0    0 -0.99707911704E-01  0.12625116659E+00  0.12772198352E+01  0.12873118477E+01  0.51100000000E-03 0. -1.
    9000002    1    1    2    0    0  0.43232972071E-01  0.10468761931E+00  0.27779972449E-01  0.94522183342E+00  0.93800000000E+00 0. -1.
         22    1    1    2    0    0  0.56474939633E-01 -0.23093878591E+00  0.26950001597E+01  0.27054663188E+01  0.00000000000E+00 0. -1.
</event>
<event>
 5    1  0.3490044E+002  0.1599480E+01  0.7818608E-02  0.3353928E+00
         11   -1    0    0    0    0  0.00000000000E+00  0.00000000000E+00  0.39999999674E+01  0.40000000000E+01  0.51100000000E-03 0. -1.
    9000002   -1    0    0    0    0 -0.00000000000E+00 -0.00000000000E+00  0.00000000000E+00  0.93800000000E+00  0.93800000000E+00 0.  1.
         11    1    1    2    0    0 -0.66431098941E-01 -0.54128518851E-01  0.12500783467E+01  0.12530120197E+01  0.51100000000E-03 0. -1.
    9000002    1    1    2    0    0  0.20942715239E+00  0.22018185123E+00  0.61778249777E-01  0.98792729080E+00  0.93800000000E+00 0.  1.
         22    1    1    2    0    0 -0.14299605345E+00 -0.16605333238E+00  0.26881433709E+01  0.26970606895E+01  0.00000000000E+00 0. -1.
</event>
<event>
 5    1  0.3490044E+002  0.1564241E+01  0.7818608E-02  0.3393114E+00
         11   -1    0    0    0    0  0.00000000000E+00  0.00000000000E+00  0.39999999674E+01  0.40000000000E+01  0.51100000000E-03 0.  1.
    9000002   -1    0    0    0    0 -0.00000000000E+00 -0.00000000000E+00  0.00000000000E+00  0.93800000000E+00  0.93800000000E+00 0. -1.
         11    1    1    2    0    0 -0.16128737706E+00 -0.30935287049E-01  0.26917611508E+01  0.26967663903E+01  0.51100000000E-03 0.  1.
    9000002    1    1    2    0    0 -0.43715768680E-01 -0.90111688031E-01  0.32943711127E-01  0.94390702553E+00  0.93800000000E+00 0. -1.
         22    1    1    2    0    0  0.20500314574E+00  0.12104697508E+00  0.12752951055E+01  0.12973265842E+01  0.00000000000E+00 0. -1.
</event>
<event>
 5    1  0.3490044E+002  0.1599674E+01  0.7818608E-02  0.3353717E+00
         11   -1    0    0    0    0  0.00000000000E+00  0.00000000000E+00  0.39999999674E+01  0.40000000000E+01  0.51100000000E-03 0. -1.
    9000002   -1    0    0    0    0 -0.00000000000E+00 -0.00000000000E+00  0.00000000000E+00  0.93800000000E+00  0.93800000000E+00 0. -1.
         11    1    1    2    0    0  0.19820956833E-01  0.31551772261E-01  0.52272969453E+00  0.52405627496E+00  0.51100000000E-03 0. -1.
    9000002    1    1    2    0    0 -0.13930905166E+00 -0.23747906437E+00  0.50460823607E-01  0.97887364486E+00  0.93800000000E+00 0. -1.
         22    1    1    2    0    0  0.11948809482E+00  0.20592729211E+00  0.34268094492E+01  0.34350700802E+01  0.00000000000E+00 0. -1.
</event>
<event>
 5    1  0.3490044E+002  0.1599670E+01  0.7818608E-02  0.3353721E+00
         11   -1    0    0    0    0  0.00000000000E+00  0.00000000000E+00  0.39999999674E+01  0.40000000000E+01  0.51100000000E-03 0. -1.
    9000002   -1    0    0    0    0 -0.00000000000E+00 -0.00000000000E+00  0.00000000000E+00  0.93800000000E+00  0.93800000000E+00 0.  1.
         11    1    1    2    0    0  0.10551495857E+00 -0.16168788561E-01  0.13129982996E+01  0.13173304946E+01  0.51100000000E-03 0. -1.
    9000002    1    1    2    0    0 -0.32311290517E+00  0.52974562324E-01  0.71717127498E-01  0.99609015662E+00  0.93800000000E+00 0.  1.
         22    1    1    2    0    0  0.21759794660E+00 -0.36805773763E-01  0.26152845403E+01  0.26245793487E+01  0.00000000000E+00 0. -1.
</event>
<event>
 5    1  0.3490044E+002  0.1599676E+01  0.7818608E-02  0.3353715E+00
         11   -1    0    0    0    0  0.00000000000E+00  0.00000000000E+00  0.39999999674E+01  0.40000000000E+01  0.51100000000E-03 0.  1.
    9000002   -1    0    0    0    0 -0.00000000000E+00 -0.00000000000E+00  0.00000000000E+00  0.93800000000E+00  0.93800000000E+00 0.  1.
         11    1    1    2    0    0  0.10304676972E+00 -0.11771921346E-01  0.10305421331E+01  0.10357483112E+01  0.51100000000E-03 0.  1.
    9000002    1    1    2    0    0 -0.38680338406E+00  0.44654029945E-01  0.10212775478E+00  0.10207276417E+01  0.93800000000E+00 0.  1.
         22    1    1    2    0    0  0.28375661434E+00 -0.32882108599E-01  0.28673300795E+01  0.28815240471E+01  0.00000000000E+00 0.  1.
</event>
<event>
 5    1  0.3490044E+002  0.1598049E+01  0.7818608E-02  0.3355483E+00
         11   -1    0    0    0    0  0.00000000000E+00  0.00000000000E+00  0.39999999674E+01  0.40000000000E+01  0.51100000000E-03 0. -1.
    9000002   -1    0    0    0    0 -0.00000000000E+00 -0.00000000000E+00  0.00000000000E+00  0.93800000000E+00  0.93800000000E+00 0.  1.
         11    1    1    2    0    0  0.13984136614E-01 -0.63489246629E-01  0.43169602439E+00  0.43656403781E+00  0.51100000000E-03 0. -1.
    9000002    1    1    2    0    0 -0.12731913586E-01  0.32452556546E+00  0.71828519666E-01  0.99522976267E+00  0.93800000000E+00 0.  1.
         22    1    1    2    0    0 -0.12522230280E-02 -0.26103631883E+00  0.34964754233E+01  0.35062061995E+01  0.00000000000E+00 0. -1.
</event>
<event>
 5    1  0.3490044E+002  0.1580540E+01  0.7818608E-02  0.3374759E+00
         11   -1    0    0    0    0  0.00000000000E+00  0.00000000000E+00  0.39999999674E+01  0.40000000000E+01  0.51100000000E-03 0. -1.
    9000002   -1    0    0    0    0 -0.00000000000E+00 -0.00000000000E+00  0.00000000000E+00  0.93800000000E+00  0.93800000000E+00 0. -1.
         11    1    1    2    0    0  0.13764347888E+00  0.27146463047E+00  0.20082077362E+01  0.20311418822E+01  0.51100000000E-03 0. -1.
    9000002    1    1    2    0    0  0.34602989017E-01 -0.40954947271E+00  0.13033558477E+00  0.10323562864E+01  0.93800000000E+00 0. -1.
         22    1    1    2    0    0 -0.17224646790E+00  0.13808484225E+00  0.18614566464E+01  0.18745018314E+01  0.00000000000E+00 0.  1.
</event>
<event>
 5    1  0.3490044E+002  0.1599655E+01  0.7818608E-02  0.3353737E+00
         11   -1    0    0    0    0  0.00000000000E+00  0.00000000000E+00  0.39999999674E+01  0.40000000000E+01  0.51100000000E-03 0.  1.
    9000002   -1    0    0    0    0 -0.00000000000E+00 -0.00000000000E+00  0.00000000000E+00  0.93800000000E+00  0.93800000000E+00 0. -1.
         11    1    1    2    0    0 -0.32402334503E-01  0.55890819083E-01  0.75316014699E+00  0.75592603016E+00  0.51100000000E-03 0.  1.
    9000002    1    1    2    0    0  0.17486827590E+00 -0.31245617076E+00  0.86059573631E-01  0.10076993712E+01  0.93800000000E+00 0. -1.
         22    1    1    2    0    0 -0.14246594140E+00  0.25656535167E+00  0.31607802467E+01  0.31743745986E+01  0.00000000000E+00 0.  1.
</event>
<event>
 5    1  0.3490044E+002  0.1599671E+01  0.7818608E-02  0.3353720E+00
         11   -1    0    0    0    0  0.00000000000E+00  0.00000000000E+00  0.39999999674E+01  0.40000000000E+01  0.51100000000E-03 0.  1.
    9000002   -1    0    0    0    0 -0.00000000000E+00 -0.00000000000E+00  0.00000000000E+00  0.93800000000E+00  0.93800000000E+00 0. -1.
         11    1    1    2    0    0  0.16168148554E-01  0.77083540096E-03  0.21762535610E+00  0.21822708346E+00  0.51100000000E-03 0.  1.
    9000002    1    1    2    0    0 -0.31387241935E+00 -0.69792411293E-02  0.65845864552E-01  0.99133459705E+00  0.93800000000E+00 0. -1.
         22    1    1    2    0    0  0.29770427079E+00  0.62084057284E-02  0.37165287467E+01  0.37284383195E+01  0.00000000000E+00 0.  1.
</event>
<event>
 5    1  0.3490044E+002  0.1599351E+01  0.7818608E-02  0.3354068E+00
         11   -1    0    0    0    0  0.00000000000E+00  0.00000000000E+00  0.39999999674E+01  0.40000000000E+01  0.51100000000E-03 0. -1.
    9000002   -1    0    0    0    0 -0.00000000000E+00 -0.00000000000E+00  0.00000000000E+00  0.93800000000E+00  0.93800000000E+00 0. -1.
         11    1    1    2    0    0 -0.22283576423E-02  0.10053959882E+00  0.83294698735E+00  0.83899590069E+00  0.51100000000E-03 0. -1.
    9000002    1    1    2    0    0  0.27460969964E-01 -0.38844969057E+00  0.10242152058E+00  0.10207749188E+01  0.93800000000E+00 0. -1.
         22    1    1    2    0    0 -0.25232612321E-01  0.28791009175E+00  0.30646314594E+01  0.30782291805E+01  0.00000000000E+00 0. -1.
</event>
<event>
 5    1  0.3490044E+002  0.1575919E+01  0.7818608E-02  0.3379922E+00
         11   -1    0    0    0    0  0.00000000000E+00  0.00000000000E+00  0.39999999674E+01  0.40000000000E+01  0.51100000000E-03 0. -1.
    9000002   -1    0    0    0    0 -0.00000000000E+00 -0.00000000000E+00  0.00000000000E+00  0.93800000000E+00  0.93800000000E+00 0.  1.
         11    1    1    2    0    0 -0.92456523152E-01  0.49017308715E-01  0.34994079627E+00  0.36525296336E+00  0.51100000000E-03 0. -1.
    9000002    1    1    2    0    0  0.10296278396E+00  0.19011278799E+00  0.49104900313E-01  0.96384620053E+00  0.93800000000E+00 0.  1.
         22    1    1    2    0    0 -0.10506260808E-01 -0.23913009671E+00  0.36009542708E+01  0.36089008361E+01  0.00000000000E+00 0. -1.
</event>
<event>
 5    1  0.3490044E+002  0.1598257E+01  0.7818608E-02  0.3355257E+00
         11   -1    0    0    0    0  0.00000000000E+00  0.00000000000E+00  0.39999999674E+01  0.40000000000E+01  0.51100000000E-03 0.  1.
    9000002   -1    0    0    0    0 -0.00000000000E+00 -0.00000000000E+00  0.00000000000E+00  0.93800000000E+00  0.93800000000E+00 0. -1.
         11    1    1    2    0    0 -0.28087018077E-01 -0.48301424670E-03  0.59369508308E+00  0.59435950962E+00  0.51100000000E-03 0.  1.
    9000002    1    1    2    0    0  0.33008021394E+00 -0.15503361118E+00  0.90472285314E-01  0.10104541566E+01  0.93800000000E+00 0. -1.
         22    1    1    2    0    0 -0.30199319586E+00  0.15551662543E+00  0.33158325990E+01  0.33331863338E+01  0.00000000000E+00 0.  1.
</event>
<event>
 5    1  0.3490044E+002  0.1535238E+01  0.7818608E-02  0.3426799E+00
         11   -1    0    0    0    0  0.00000000000E+00  0.00000000000E+00  0.39999999674E+01  0.40000000000E+01  0.51100000000E-03 0. -1.
    9000002   -1    0    0    0    0 -0.00000000000E+00 -0.00000000000E+00  0.00000000000E+00  0.93800000000E+00  0.93800000000E+00 0.  1.
         11    1    1    2    0    0  0.55838054858E-01 -0.23890884228E+00  0.18164253298E+01  0.18329202282E+01  0.51100000000E-03 0. -1.
    9000002    1    1    2    0    0  0.29835265175E+00  0.98379998531E-02  0.11166478512E+00  0.99066851938E+00  0.93800000000E+00 0.  1.
         22    1    1    2    0    0 -0.35419070661E+00  0.22907084242E+00  0.20719098525E+01  0.21144112524E+01  0.00000000000E+00 0. -1.
</event>
<event>
 5    1  0.3490044E+002  0.1585895E+01  0.7818608E-02  0.3368816E+00
         11   -1    0    0    0    0  0.00000000000E+00  0.00000000000E+00  0.39999999674E+01  0.40000000000E+01  0.51100000000E-03 0. -1.
    9000002   -1    0    0    0    0 -0.00000000000E+00 -0.00000000000E+00  0.00000000000E+00  0.93800000000E+00  0.93800000000E+00 0. -1.
         11    1    1    2    0    0  0.18453011450E+00 -0.83562943060E-01  0.74305901040E+00  0.77017600759E+00  0.51100000000E-03 0. -1.
    9000002    1    1    2    0    0 -0.40677308308E+00  0.22280821696E+00  0.15853780276E+00  0.10583411915E+01  0.93800000000E+00 0. -1.
         22    1    1    2    0    0  0.22224296857E+00 -0.13924527390E+00  0.30984031542E+01  0.31094828009E+01  0.00000000000E+00 0.  1.
</event>
<event>
 5    1  0.3490044E+002  0.1599675E+01  0.7818608E-02  0.3353716E+00
         11   -1    0    0    0    0  0.00000000000E+00  0.00000000000E+00  0.39999999674E+01  0.40000000000E+01  0.51100000000E-03 0.  1.
    9000002   -1    0    0    0    0 -0.00000000000E+00 -0.00000000000E+00  0.00000000000E+00  0.93800000000E+00  0.93800000000E+00 0.  1.
         11    1    1    2    0    0  0.20036486977E-02  0.56902118391E-01  0.84386674994E+00  0.84578556293E+00  0.51100000000E-03 0.  1.
    9000002    1    1    2    0    0 -0.16138220901E-01 -0.26652692513E+00  0.47427622488E-01  0.97641713595E+00  0.93800000000E+00 0.  1.
         22    1    1    2    0    0  0.14134572203E-01  0.20962480674E+00  0.31087055949E+01  0.31157973011E+01  0.00000000000E+00 0.  1.
</event>
<event>
 5    1  0.3490044E+002  0.1597545E+01  0.7818608E-02  0.3356032E+00
         11   -1    0    0    0    0  0.00000000000E+00  0.00000000000E+00  0.39999999674E+01  0.40000000000E+01  0.51100000000E-03 0.  1.
    9000002   -1    0    0    0    0 -0.00000000000E+00 -0.00000000000E+00  0.00000000000E+00  0.93800000000E+00  0.93800000000E+00 0. -1.
         11    1    1    2    0    0 -0.36087066435E+00  0.63926521633E-01  0.20669248092E+01  0.20991647541E+01  0.51100000000E-03 0.  1.
    9000002    1    1    2    0    0  0.55684819594E+00 -0.12198777780E+00  0.22738382051E+00  0.11209408250E+01  0.93800000000E+00 0. -1.
         22    1    1    2    0    0 -0.19597753159E+00  0.58061256169E-01  0.17056913376E+01  0.17178944210E+01  0.00000000000E+00 0.  1.
</event>
<event>
 5    1  0.3490044E+002  0.1597378E+01  0.7818608E-02  0.3356214E+00
         11   -1    0    0    0    0  0.00000000000E+00  0.00000000000E+00  0.39999999674E+01  0.40000000000E+01  0.51100000000E-03 0.  1.
    9000002   -1    0    0    0    0 -0.00000000000E+00 -0.00000000000E+00  0.00000000000E+00  0.93800000000E+00  0.93800000000E+00 0.  1.
         11    1    1    2    0    0  0.14428298346E+00  0.22925346695E+00  0.16499496974E+01  0.16720373790E+01  0.51100000000E-03 0.  1.
    9000002    1    1    2    0    0 -0.20372132302E+00 -0.56003409063E+00  0.24984551133E+00  0.11390379009E+01  0.93800000000E+00 0.  1.
         22    1    1    2    0    0  0.59438339561E-01  0.33078062368E+00  0.21002047586E+01  0.21269247202E+01  0.00000000000E+00 0.  1.
</event>
<event>
 5    1  0.3490044E+002  0.1599653E+01  0.7818608E-02  0.3353741E+00
         11   -1    0    0    0    0  0.00000000000E+00  0.00000000000E+00  0.39999999674E+01  0.40000000000E+01  0.51100000000E-03 0. -1.
    9000002   -1    0    0    0    0 -0.00000000000E+00 -0.00000000000E+00  0.00000000000E+00  0.93800000000E+00  0.93800000000E+00 0. -1.
         11    1    1    2    0    0 -0.36208822768E-02 -0.16448567963E-02  0.54467332552E-01  0.54614721263E-01  0.51100000000E-03 0. -1.
    9000002    1    1    2    0    0  0.23612171487E+00  0.29511710386E-01  0.37599857403E-01  0.96844316021E+00  0.93800000000E+00 0. -1.
         22    1    1    2    0    0 -0.23250083259E+00 -0.27866853590E-01  0.39079327774E+01  0.39149421185E+01  0.00000000000E+00 0. -1.
</event>
<event>
 5    1  0.3490044E+002  0.1583193E+01  0.7818608E-02  0.3371810E+00
         11   -1    0    0    0    0  0.00000000000E+00  0.00000000000E+00  0.39999999674E+01  0.40000000000E+01  0.51100000000E-03 0. -1.
    9000002   -1    0    0    0    0 -0.00000000000E+00 -0.00000000000E+00  0.00000000000E+00  0.93800000000E+00  0.93800000000E+00 0. -1.
         11    1    1    2    0    0 -0.35130000806E+00  0.43664396827E-01  0.28907512457E+01  0.29123463567E+01  0.51100000000E-03 0. -1.
    9000002    1    1    2    0    0  0.47827862501E+00  0.11752778210E+00  0.18074347769E+00  0.10747443545E+01  0.93800000000E+00 0. -1.
         22    1    1    2    0    0 -0.12697861695E+00 -0.16119217892E+00  0.92850524392E+00  0.95090928889E+00  0.00000000000E+00 0. -1.
</event>
