<event>
 5    1  0.2028858E-012  0.2000694E+01  0.7818608E-02  0.3998219E+00
         11   -1    0    0    0    0  0.00000000000E+00  0.00000000000E+00  0.39999999609E+01  0.39999999935E+01  0.51100000000E-03 0. -1.
          4   -1    0    0  501    0 -0.00000000000E+00 -0.00000000000E+00  0.23577793099E+00  0.14394412919E+01  0.14200000000E+01 0. -1.
         11    1    1    2    0    0 -0.39791535176E+00  0.10225711304E+01  0.12739158386E+01  0.16813239333E+01  0.51100000000E-03 0. -1.
         22    1    1    2    0    0 -0.11250801403E+00  0.29114304530E+00  0.37726916956E+00  0.48964717129E+00  0.00000000000E+00 0.  1.
          4    1    1    2  501    0  0.51042336580E+00 -0.13137141757E+01  0.25845928837E+01  0.32684701808E+01  0.14200000000E+01 0. -1.
<mgrwt>
<rscale>  0 0.20006941E+01</rscale>
<asrwt>0</asrwt>
<pdfrwt beam="1">  1       11 0.10000000E+01 0.14095054E+01</pdfrwt>
<pdfrwt beam="2">  1        4 0.99938049E+00 0.20006941E+01</pdfrwt>
<totfact> 0.16256711E-10</totfact>
</mgrwt>
</event>
<event>
 5    1  0.2028858E-012  0.2000137E+01  0.7818608E-02  0.3998925E+00
         11   -1    0    0    0    0  0.00000000000E+00  0.00000000000E+00  0.39999999707E+01  0.40000000034E+01  0.51100000000E-03 0. -1.
          4   -1    0    0  501    0 -0.00000000000E+00 -0.00000000000E+00  0.23604040793E+00  0.14394843084E+01  0.14200000000E+01 0. -1.
         11    1    1    2    0    0  0.74008595920E+00  0.10945654969E+01  0.17523805362E+01  0.21946841820E+01  0.51100000000E-03 0. -1.
         22    1    1    2    0    0  0.48169823590E-01  0.72825926885E-01  0.12079345369E+00  0.14904699254E+00  0.00000000000E+00 0.  1.
          4    1    1    2  501    0 -0.78825578279E+00 -0.11673914238E+01  0.23628663887E+01  0.30957531372E+01  0.14200000000E+01 0. -1.
<mgrwt>
<rscale>  0 0.20001375E+01</rscale>
<asrwt>0</asrwt>
<pdfrwt beam="1">  1       11 0.10000000E+01 0.14086501E+01</pdfrwt>
<pdfrwt beam="2">  1        4 0.99922983E+00 0.20001375E+01</pdfrwt>
<totfact> 0.20050415E-10</totfact>
</mgrwt>
</event>
<event>
 5    1  0.2028858E-012  0.2000606E+01  0.7818608E-02  0.3998330E+00
         11   -1    0    0    0    0  0.00000000000E+00  0.00000000000E+00  0.39999999455E+01  0.39999999781E+01  0.51100000000E-03 0. -1.
         -4   -1    0    0    0  501 -0.00000000000E+00 -0.00000000000E+00  0.23748817115E+00  0.14397224147E+01  0.14200000000E+01 0. -1.
         11    1    1    2    0    0 -0.13784009548E+01 -0.13564123515E+00  0.17870199521E+01  0.22609352727E+01  0.51100000000E-03 0. -1.
         22    1    1    2    0    0 -0.24069083573E-01 -0.25740254022E-02  0.28415495732E-01  0.37328096503E-01  0.00000000000E+00 0.  1.
         -4    1    1    2    0  501  0.14024700384E+01  0.13821526055E+00  0.24220526688E+01  0.31414590236E+01  0.14200000000E+01 0. -1.
<mgrwt>
<rscale>  0 0.20006063E+01</rscale>
<asrwt>0</asrwt>
<pdfrwt beam="1">  1       11 0.10000000E+01 0.14093291E+01</pdfrwt>
<pdfrwt beam="2">  1       -4 0.99839936E+00 0.20006063E+01</pdfrwt>
<totfact> 0.40053110E-10</totfact>
</mgrwt>
</event>
<event>
 5    1  0.2028858E-012  0.2000034E+01  0.7818608E-02  0.3999056E+00
         11   -1    0    0    0    0  0.00000000000E+00  0.00000000000E+00  0.39999999701E+01  0.40000000028E+01  0.51100000000E-03 0. -1.
         -4   -1    0    0    0  501 -0.00000000000E+00 -0.00000000000E+00  0.23995249195E+00  0.14401309657E+01  0.14200000000E+01 0.  1.
         11    1    1    2    0    0  0.54556895624E+00  0.12109635957E+01  0.16517216517E+01  0.21194959287E+01  0.51100000000E-03 0. -1.
         22    1    1    2    0    0  0.33633341297E-01  0.72882599567E-01  0.98554628508E-01  0.12710660788E+00  0.00000000000E+00 0. -1.
         -4    1    1    2    0  501 -0.57920229753E+00 -0.12838461953E+01  0.24896761819E+01  0.31935284319E+01  0.14200000000E+01 0.  1.
<mgrwt>
<rscale>  0 0.20000341E+01</rscale>
<asrwt>0</asrwt>
<pdfrwt beam="1">  1       11 0.10000000E+01 0.14084594E+01</pdfrwt>
<pdfrwt beam="2">  1       -4 0.99698804E+00 0.20000341E+01</pdfrwt>
<totfact> 0.70337110E-10</totfact>
</mgrwt>
</event>
<event>
 5    1  0.2028858E-012  0.2000533E+01  0.7818608E-02  0.3998423E+00
         11   -1    0    0    0    0  0.00000000000E+00  0.00000000000E+00  0.39999999632E+01  0.39999999958E+01  0.51100000000E-03 0. -1.
         -4   -1    0    0    0  501 -0.00000000000E+00 -0.00000000000E+00  0.23825759731E+00  0.14398495347E+01  0.14200000000E+01 0.  1.
         11    1    1    2    0    0  0.57616113870E+00  0.10595233478E+01  0.15369727422E+01  0.19536726578E+01  0.51100000000E-03 0. -1.
         22    1    1    2    0    0  0.10051713823E+00  0.17653505664E+00  0.25682755979E+00  0.32745796183E+00  0.00000000000E+00 0.  1.
         -4    1    1    2    0  501 -0.67667827693E+00 -0.12360584045E+01  0.24444572585E+01  0.31587189110E+01  0.14200000000E+01 0.  1.
<mgrwt>
<rscale>  0 0.20005334E+01</rscale>
<asrwt>0</asrwt>
<pdfrwt beam="1">  1       11 0.10000000E+01 0.14091974E+01</pdfrwt>
<pdfrwt beam="2">  1       -4 0.99795841E+00 0.20005334E+01</pdfrwt>
<totfact> 0.50002954E-10</totfact>
</mgrwt>
</event>
<event>
 5    1  0.2028858E-012  0.2001297E+01  0.7818608E-02  0.3997456E+00
         11   -1    0    0    0    0  0.00000000000E+00  0.00000000000E+00  0.39999999536E+01  0.39999999863E+01  0.51100000000E-03 0.  1.
          4   -1    0    0  501    0 -0.00000000000E+00 -0.00000000000E+00  0.23632701185E+00  0.14395313323E+01  0.14200000000E+01 0.  1.
         11    1    1    2    0    0  0.11801763617E+01  0.72698287376E+00  0.17632551368E+01  0.22428529337E+01  0.51100000000E-03 0.  1.
         22    1    1    2    0    0  0.20597917346E-01  0.12563968713E-01  0.32649960325E-01  0.40597381911E-01  0.00000000000E+00 0.  1.
          4    1    1    2  501    0 -0.12007742791E+01 -0.73954684247E+00  0.24404218683E+01  0.31560810029E+01  0.14200000000E+01 0.  1.
<mgrwt>
<rscale>  0 0.20012967E+01</rscale>
<asrwt>0</asrwt>
<pdfrwt beam="1">  1       11 0.10000000E+01 0.14102731E+01</pdfrwt>
<pdfrwt beam="2">  1        4 0.99906534E+00 0.20012967E+01</pdfrwt>
<totfact> 0.24173713E-10</totfact>
</mgrwt>
</event>
<event>
 5    1  0.2028858E-012  0.2000422E+01  0.7818608E-02  0.3998563E+00
         11   -1    0    0    0    0  0.00000000000E+00  0.00000000000E+00  0.39999999526E+01  0.39999999853E+01  0.51100000000E-03 0. -1.
         -4   -1    0    0    0  501 -0.00000000000E+00 -0.00000000000E+00  0.23878128147E+00  0.14399362834E+01  0.14200000000E+01 0. -1.
         11    1    1    2    0    0  0.80896141510E+00  0.10987285763E+01  0.17257231402E+01  0.21999417432E+01  0.51100000000E-03 0. -1.
         22    1    1    2    0    0  0.25858451659E-01  0.36333291470E-01  0.55323438717E-01  0.71059485381E-01  0.00000000000E+00 0.  1.
         -4    1    1    2    0  501 -0.83481986675E+00 -0.11350618678E+01  0.24577346552E+01  0.31689350402E+01  0.14200000000E+01 0.  1.
<mgrwt>
<rscale>  0 0.20004224E+01</rscale>
<asrwt>0</asrwt>
<pdfrwt beam="1">  1       11 0.10000000E+01 0.14090137E+01</pdfrwt>
<pdfrwt beam="2">  1       -4 0.99765844E+00 0.20004224E+01</pdfrwt>
<totfact> 0.56514309E-10</totfact>
</mgrwt>
</event>
<event>
 5    1  0.2028858E-012  0.2001668E+01  0.7818608E-02  0.3996986E+00
         11   -1    0    0    0    0  0.00000000000E+00  0.00000000000E+00  0.39999999544E+01  0.39999999871E+01  0.51100000000E-03 0. -1.
          4   -1    0    0  501    0 -0.00000000000E+00 -0.00000000000E+00  0.23561616240E+00  0.14394148033E+01  0.14200000000E+01 0. -1.
         11    1    1    2    0    0  0.11330550714E+01  0.50737144547E+00  0.15111343177E+01  0.19557010932E+01  0.51100000000E-03 0. -1.
         22    1    1    2    0    0  0.15464635822E+00  0.68908331819E-01  0.20459466831E+00  0.26556135375E+00  0.00000000000E+00 0. -1.
          4    1    1    2  501    0 -0.12877014297E+01 -0.57627977729E+00  0.25198871308E+01  0.32181523435E+01  0.14200000000E+01 0. -1.
<mgrwt>
<rscale>  0 0.20016676E+01</rscale>
<asrwt>0</asrwt>
<pdfrwt beam="1">  1       11 0.10000000E+01 0.14107739E+01</pdfrwt>
<pdfrwt beam="2">  1        4 0.99947336E+00 0.20016676E+01</pdfrwt>
<totfact> 0.13898113E-10</totfact>
</mgrwt>
</event>
<event>
 5    1  0.2028858E-012  0.2000169E+01  0.7818608E-02  0.3998884E+00
         11   -1    0    0    0    0  0.00000000000E+00  0.00000000000E+00  0.39999999723E+01  0.40000000049E+01  0.51100000000E-03 0.  1.
         -4   -1    0    0    0  501 -0.00000000000E+00 -0.00000000000E+00  0.23549289551E+00  0.14393946310E+01  0.14200000000E+01 0.  1.
         11    1    1    2    0    0  0.16856061980E+00 -0.10551347258E+01  0.14257922028E+01  0.17817423042E+01  0.51100000000E-03 0.  1.
         22    1    1    2    0    0  0.53994949349E-01 -0.33581692547E+00  0.45571349894E+00  0.56865038038E+00  0.00000000000E+00 0. -1.
         -4    1    1    2    0  501 -0.22255556914E+00  0.13909516512E+01  0.23539871661E+01  0.30890019514E+01  0.14200000000E+01 0.  1.
<mgrwt>
<rscale>  0 0.20001694E+01</rscale>
<asrwt>0</asrwt>
<pdfrwt beam="1">  1       11 0.10000000E+01 0.14086455E+01</pdfrwt>
<pdfrwt beam="2">  1       -4 0.99954414E+00 0.20001694E+01</pdfrwt>
<totfact> 0.12049317E-10</totfact>
</mgrwt>
</event>
<event>
 5    1  0.2028858E-012  0.2000341E+01  0.7818608E-02  0.3998667E+00
         11   -1    0    0    0    0  0.00000000000E+00  0.00000000000E+00  0.39999999600E+01  0.39999999926E+01  0.51100000000E-03 0.  1.
         -4   -1    0    0    0  501 -0.00000000000E+00 -0.00000000000E+00  0.23696359933E+00  0.14396359774E+01  0.14200000000E+01 0. -1.
         11    1    1    2    0    0 -0.48567663176E+00 -0.11279419949E-01  0.57281957095E+00  0.75108690438E+00  0.51100000000E-03 0.  1.
         22    1    1    2    0    0 -0.92286176380E+00 -0.20090704606E-01  0.10827089484E+01  0.14227916708E+01  0.00000000000E+00 0. -1.
         -4    1    1    2    0  501  0.14085383956E+01  0.31370124555E-01  0.25814350400E+01  0.32657573949E+01  0.14200000000E+01 0. -1.
<mgrwt>
<rscale>  0 0.20003411E+01</rscale>
<asrwt>0</asrwt>
<pdfrwt beam="1">  1       11 0.10000000E+01 0.14088915E+01</pdfrwt>
<pdfrwt beam="2">  1       -4 0.99870016E+00 0.20003411E+01</pdfrwt>
<totfact> 0.32992894E-10</totfact>
</mgrwt>
</event>
<event>
 5    1  0.2028858E-012  0.2000698E+01  0.7818608E-02  0.3998213E+00
         11   -1    0    0    0    0  0.00000000000E+00  0.00000000000E+00  0.39999999566E+01  0.39999999893E+01  0.51100000000E-03 0. -1.
          4   -1    0    0  501    0 -0.00000000000E+00 -0.00000000000E+00  0.23725148810E+00  0.14396833918E+01  0.14200000000E+01 0. -1.
         11    1    1    2    0    0 -0.76443837565E+00 -0.82351319538E+00  0.14271520559E+01  0.18163984323E+01  0.51100000000E-03 0. -1.
         22    1    1    2    0    0 -0.19353329494E+00 -0.21025885288E+00  0.38339308529E+00  0.47817797870E+00  0.00000000000E+00 0.  1.
          4    1    1    2  501    0  0.95797167059E+00  0.10337720483E+01  0.24267063036E+01  0.31451069701E+01  0.14200000000E+01 0. -1.
<mgrwt>
<rscale>  0 0.20006985E+01</rscale>
<asrwt>0</asrwt>
<pdfrwt beam="1">  1       11 0.10000000E+01 0.14096124E+01</pdfrwt>
<pdfrwt beam="2">  1        4 0.99853506E+00 0.20006985E+01</pdfrwt>
<totfact> 0.36903085E-10</totfact>
</mgrwt>
</event>
<event>
 5    1  0.2028858E-012  0.2001168E+01  0.7818608E-02  0.3997619E+00
         11   -1    0    0    0    0  0.00000000000E+00  0.00000000000E+00  0.39999999534E+01  0.39999999860E+01  0.51100000000E-03 0.  1.
          4   -1    0    0  501    0 -0.00000000000E+00 -0.00000000000E+00  0.23572083352E+00  0.14394319405E+01  0.14200000000E+01 0.  1.
         11    1    1    2    0    0 -0.13345659303E+01 -0.32543459102E+00  0.17577489106E+01  0.22308418566E+01  0.51100000000E-03 0.  1.
         22    1    1    2    0    0 -0.33789439051E-01 -0.14970069260E-01  0.39377907043E-01  0.54004154731E-01  0.00000000000E+00 0. -1.
          4    1    1    2  501    0  0.13683553693E+01  0.34040466028E+00  0.24385939692E+01  0.31545859152E+01  0.14200000000E+01 0. -1.
<mgrwt>
<rscale>  0 0.20011676E+01</rscale>
<asrwt>0</asrwt>
<pdfrwt beam="1">  1       11 0.10000000E+01 0.14109771E+01</pdfrwt>
<pdfrwt beam="2">  1        4 0.99941327E+00 0.20011676E+01</pdfrwt>
<totfact> 0.15429820E-10</totfact>
</mgrwt>
</event>
<event>
 5    1  0.2028858E-012  0.2000066E+01  0.7818608E-02  0.3999015E+00
         11   -1    0    0    0    0  0.00000000000E+00  0.00000000000E+00  0.39999999606E+01  0.39999999932E+01  0.51100000000E-03 0.  1.
         -4   -1    0    0    0  501 -0.00000000000E+00 -0.00000000000E+00  0.23777753520E+00  0.14397701748E+01  0.14200000000E+01 0.  1.
         11    1    1    2    0    0 -0.11669447346E+01 -0.68483638286E-01  0.13984293679E+01  0.18226505371E+01  0.51100000000E-03 0.  1.
         22    1    1    2    0    0 -0.23835649406E+00 -0.26348318624E-01  0.27107283916E+00  0.36192338455E+00  0.00000000000E+00 0.  1.
         -4    1    1    2    0  501  0.14053012287E+01  0.94831956910E-01  0.25682752887E+01  0.32551962463E+01  0.14200000000E+01 0.  1.
<mgrwt>
<rscale>  0 0.20000662E+01</rscale>
<asrwt>0</asrwt>
<pdfrwt beam="1">  1       11 0.10000000E+01 0.14089456E+01</pdfrwt>
<pdfrwt beam="2">  1       -4 0.99823350E+00 0.20000662E+01</pdfrwt>
<totfact> 0.43822127E-10</totfact>
</mgrwt>
</event>
<event>
 5    1  0.2028858E-012  0.2001323E+01  0.7818608E-02  0.3997423E+00
         11   -1    0    0    0    0  0.00000000000E+00  0.00000000000E+00  0.39999999621E+01  0.39999999947E+01  0.51100000000E-03 0. -1.
         -4   -1    0    0    0  501 -0.00000000000E+00 -0.00000000000E+00  0.23663233094E+00  0.14395814878E+01  0.14200000000E+01 0. -1.
         11    1    1    2    0    0  0.69228772672E+00  0.11196303378E+01  0.16113298927E+01  0.20806774556E+01  0.51100000000E-03 0. -1.
         22    1    1    2    0    0  0.49435471998E-01  0.79844151036E-01  0.11596082517E+00  0.14921751680E+00  0.00000000000E+00 0. -1.
         -4    1    1    2    0  501 -0.74172319872E+00 -0.11994744888E+01  0.25093415751E+01  0.32096865101E+01  0.14200000000E+01 0. -1.
<mgrwt>
<rscale>  0 0.20013227E+01</rscale>
<asrwt>0</asrwt>
<pdfrwt beam="1">  1       11 0.10000000E+01 0.14102838E+01</pdfrwt>
<pdfrwt beam="2">  1       -4 0.99889017E+00 0.20013227E+01</pdfrwt>
<totfact> 0.28463209E-10</totfact>
</mgrwt>
</event>
<event>
 5    1  0.2028858E-012  0.2000142E+01  0.7818608E-02  0.3998919E+00
         11   -1    0    0    0    0  0.00000000000E+00  0.00000000000E+00  0.39999999700E+01  0.40000000026E+01  0.51100000000E-03 0.  1.
         -4   -1    0    0    0  501 -0.00000000000E+00 -0.00000000000E+00  0.23564561772E+00  0.14394196251E+01  0.14200000000E+01 0.  1.
         11    1    1    2    0    0  0.58828780651E+00 -0.11557696359E+01  0.16617958871E+01  0.21079496735E+01  0.51100000000E-03 0.  1.
         22    1    1    2    0    0  0.25782421033E-01 -0.11193898494E+00  0.13042220278E+00  0.17379591641E+00  0.00000000000E+00 0. -1.
         -4    1    1    2    0  501 -0.61407022754E+00  0.12677086209E+01  0.24434274978E+01  0.31576740378E+01  0.14200000000E+01 0. -1.
<mgrwt>
<rscale>  0 0.20001418E+01</rscale>
<asrwt>0</asrwt>
<pdfrwt beam="1">  1       11 0.10000000E+01 0.14122030E+01</pdfrwt>
<pdfrwt beam="2">  1       -4 0.99945645E+00 0.20001418E+01</pdfrwt>
<totfact> 0.14306068E-10</totfact>
</mgrwt>
</event>
<event>
 5    1  0.2028858E-012  0.2000621E+01  0.7818608E-02  0.3998312E+00
         11   -1    0    0    0    0  0.00000000000E+00  0.00000000000E+00  0.39999999596E+01  0.39999999922E+01  0.51100000000E-03 0. -1.
          4   -1    0    0  501    0 -0.00000000000E+00 -0.00000000000E+00  0.23844476786E+00  0.14398805184E+01  0.14200000000E+01 0. -1.
         11    1    1    2    0    0  0.11685294130E+00 -0.10180828572E+01  0.12601094750E+01  0.16241993302E+01  0.51100000000E-03 0. -1.
         22    1    1    2    0    0  0.42734969307E-01 -0.38213650857E+00  0.47587591870E+00  0.61181081944E+00  0.00000000000E+00 0. -1.
          4    1    1    2  501    0 -0.15958791061E+00  0.14002193657E+01  0.25024593337E+01  0.32038703611E+01  0.14200000000E+01 0. -1.
<mgrwt>
<rscale>  0 0.20006205E+01</rscale>
<asrwt>0</asrwt>
<pdfrwt beam="1">  1       11 0.10000000E+01 0.14092899E+01</pdfrwt>
<pdfrwt beam="2">  1        4 0.99785118E+00 0.20006205E+01</pdfrwt>
<totfact> 0.52361499E-10</totfact>
</mgrwt>
</event>
<event>
 5    1  0.2028858E-012  0.2000829E+01  0.7818608E-02  0.3998049E+00
         11   -1    0    0    0    0  0.00000000000E+00  0.00000000000E+00  0.39999999616E+01  0.39999999943E+01  0.51100000000E-03 0.  1.
         -4   -1    0    0    0  501 -0.00000000000E+00 -0.00000000000E+00  0.23733476905E+00  0.14396971184E+01  0.14200000000E+01 0.  1.
         11    1    1    2    0    0 -0.13282799573E+01 -0.36659752125E+00  0.16620524937E+01  0.21589673783E+01  0.51100000000E-03 0.  1.
         22    1    1    2    0    0 -0.30202454424E-01 -0.94886210182E-02  0.38072348284E-01  0.49514905694E-01  0.00000000000E+00 0. -1.
         -4    1    1    2    0  501  0.13584824118E+01  0.37608614227E+00  0.25372098887E+01  0.32312148286E+01  0.14200000000E+01 0.  1.
<mgrwt>
<rscale>  0 0.20008286E+01</rscale>
<asrwt>0</asrwt>
<pdfrwt beam="1">  1       11 0.10000000E+01 0.14095998E+01</pdfrwt>
<pdfrwt beam="2">  1       -4 0.99848731E+00 0.20008286E+01</pdfrwt>
<totfact> 0.38023799E-10</totfact>
</mgrwt>
</event>
<event>
 5    1  0.3991361E-012  0.2000534E+01  0.7818608E-02  0.3998422E+00
         11   -1    0    0    0    0  0.00000000000E+00  0.00000000000E+00  0.39999999507E+01  0.39999999834E+01  0.51100000000E-03 0. -1.
         -4   -1    0    0    0  501 -0.00000000000E+00 -0.00000000000E+00  0.23822207552E+00  0.14398436572E+01  0.14200000000E+01 0. -1.
         11    1    1    2    0    0  0.22942136584E+00 -0.13778613574E+01  0.16934692000E+01  0.21952162253E+01  0.51100000000E-03 0. -1.
         22    1    1    2    0    0  0.28467454610E-02 -0.12026814343E-01  0.14395874753E-01  0.18973387490E-01  0.00000000000E+00 0.  1.
         -4    1    1    2    0  501 -0.23226811130E+00  0.13898881717E+01  0.25303569515E+01  0.32256540278E+01  0.14200000000E+01 0. -1.
<mgrwt>
<rscale>  0 0.20005343E+01</rscale>
<asrwt>0</asrwt>
<pdfrwt beam="1">  1       11 0.10000000E+01 0.14091964E+01</pdfrwt>
<pdfrwt beam="2">  1       -4 0.99797876E+00 0.20005343E+01</pdfrwt>
<totfact> 0.49553483E-10</totfact>
</mgrwt>
</event>
<event>
 5    1  0.2028858E-012  0.2001225E+01  0.7818608E-02  0.3997546E+00
         11   -1    0    0    0    0  0.00000000000E+00  0.00000000000E+00  0.39999999496E+01  0.39999999822E+01  0.51100000000E-03 0. -1.
          4   -1    0    0  501    0 -0.00000000000E+00 -0.00000000000E+00  0.23698534640E+00  0.14396395571E+01  0.14200000000E+01 0. -1.
         11    1    1    2    0    0  0.12041281602E+00 -0.14195019841E+00  0.23212226369E+00  0.29754010068E+00  0.51100000000E-03 0. -1.
         22    1    1    2    0    0  0.78919335539E+00 -0.93560205970E+00  0.15301985343E+01  0.19595113985E+01  0.00000000000E+00 0. -1.
          4    1    1    2  501    0 -0.90960617141E+00  0.10775522581E+01  0.24746644980E+01  0.31825880402E+01  0.14200000000E+01 0. -1.
<mgrwt>
<rscale>  0 0.20012252E+01</rscale>
<asrwt>0</asrwt>
<pdfrwt beam="1">  1       11 0.10000000E+01 0.14101443E+01</pdfrwt>
<pdfrwt beam="2">  1        4 0.99868768E+00 0.20012252E+01</pdfrwt>
<totfact> 0.33324395E-10</totfact>
</mgrwt>
</event>
<event>
 5    1  0.2028858E-012  0.2001094E+01  0.7818608E-02  0.3997712E+00
         11   -1    0    0    0    0  0.00000000000E+00  0.00000000000E+00  0.39999999595E+01  0.39999999922E+01  0.51100000000E-03 0.  1.
         -4   -1    0    0    0  501 -0.00000000000E+00 -0.00000000000E+00  0.23493300518E+00  0.14393031359E+01  0.14200000000E+01 0.  1.
         11    1    1    2    0    0 -0.88847097211E+00 -0.30551455784E+00  0.11143075777E+01  0.14575326591E+01  0.51100000000E-03 0.  1.
         22    1    1    2    0    0 -0.44496892957E+00 -0.15265192238E+00  0.65099091926E+00  0.80317441110E+00  0.00000000000E+00 0.  1.
         -4    1    1    2    0  501  0.13334399017E+01  0.45816648022E+00  0.24696344677E+01  0.31785960579E+01  0.14200000000E+01 0.  1.
<mgrwt>
<rscale>  0 0.20010943E+01</rscale>
<asrwt>0</asrwt>
<pdfrwt beam="1">  1       11 0.10000000E+01 0.14122739E+01</pdfrwt>
<pdfrwt beam="2">  1       -4 0.99986570E+00 0.20010943E+01</pdfrwt>
<totfact> 0.36092552E-11</totfact>
</mgrwt>
</event>
<event>
 5    1  0.2028858E-012  0.2000172E+01  0.7818608E-02  0.3998881E+00
         11   -1    0    0    0    0  0.00000000000E+00  0.00000000000E+00  0.39999999644E+01  0.39999999971E+01  0.51100000000E-03 0. -1.
          4   -1    0    0  501    0 -0.00000000000E+00 -0.00000000000E+00  0.23934492991E+00  0.14400298592E+01  0.14200000000E+01 0. -1.
         11    1    1    2    0    0 -0.10477170439E+01  0.91138717858E+00  0.17498447047E+01  0.22338966729E+01  0.51100000000E-03 0. -1.
         22    1    1    2    0    0 -0.16668347913E-01  0.11311574539E-01  0.24914256050E-01  0.32039127567E-01  0.00000000000E+00 0. -1.
          4    1    1    2  501    0  0.10643853918E+01 -0.92269875312E+00  0.24645859335E+01  0.31740940558E+01  0.14200000000E+01 0. -1.
<mgrwt>
<rscale>  0 0.20001723E+01</rscale>
<asrwt>0</asrwt>
<pdfrwt beam="1">  1       11 0.10000000E+01 0.14087923E+01</pdfrwt>
<pdfrwt beam="2">  1        4 0.99733573E+00 0.20001723E+01</pdfrwt>
<totfact> 0.63286090E-10</totfact>
</mgrwt>
</event>
<event>
 5    1  0.2028858E-012  0.2000020E+01  0.7818608E-02  0.3999073E+00
         11   -1    0    0    0    0  0.00000000000E+00  0.00000000000E+00  0.39999999506E+01  0.39999999832E+01  0.51100000000E-03 0. -1.
         -4   -1    0    0    0  501 -0.00000000000E+00 -0.00000000000E+00  0.23811755811E+00  0.14398263685E+01  0.14200000000E+01 0. -1.
         11    1    1    2    0    0  0.10364902069E+01  0.70252234063E+00  0.16350402309E+01  0.20594189486E+01  0.51100000000E-03 0. -1.
         22    1    1    2    0    0  0.12975746393E+00  0.87128402527E-01  0.20446975644E+00  0.25736402094E+00  0.00000000000E+00 0.  1.
         -4    1    1    2    0  501 -0.11662476708E+01 -0.78965074316E+00  0.23986075213E+01  0.31230433822E+01  0.14200000000E+01 0. -1.
<mgrwt>
<rscale>  0 0.20000205E+01</rscale>
<asrwt>0</asrwt>
<pdfrwt beam="1">  1       11 0.10000000E+01 0.14084340E+01</pdfrwt>
<pdfrwt beam="2">  1       -4 0.99803864E+00 0.20000205E+01</pdfrwt>
<totfact> 0.48196331E-10</totfact>
</mgrwt>
</event>
<event>
 5    1  0.2028858E-012  0.2000000E+01  0.7818608E-02  0.3999099E+00
         11   -1    0    0    0    0  0.00000000000E+00  0.00000000000E+00  0.39999999608E+01  0.39999999935E+01  0.51100000000E-03 0.  1.
         -4   -1    0    0    0  501 -0.00000000000E+00 -0.00000000000E+00  0.23638722238E+00  0.14395412182E+01  0.14200000000E+01 0. -1.
         11    1    1    2    0    0  0.10281519534E+01 -0.89065625281E+00  0.18084672395E+01  0.22629447667E+01  0.51100000000E-03 0.  1.
         22    1    1    2    0    0  0.36277147055E-01 -0.31619354174E-01  0.65380041499E-01  0.81181061728E-01  0.00000000000E+00 0. -1.
         -4    1    1    2    0  501 -0.10644291004E+01  0.92227560699E+00  0.23625399022E+01  0.30954153832E+01  0.14200000000E+01 0. -1.
<mgrwt>
<rscale>  0 0.20000004E+01</rscale>
<asrwt>0</asrwt>
<pdfrwt beam="1">  1       11 0.10000000E+01 0.14084113E+01</pdfrwt>
<pdfrwt beam="2">  1       -4 0.99903080E+00 0.20000004E+01</pdfrwt>
<totfact> 0.24986509E-10</totfact>
</mgrwt>
</event>
<event>
 5    1  0.2028858E-012  0.2000090E+01  0.7818608E-02  0.3998985E+00
         11   -1    0    0    0    0  0.00000000000E+00  0.00000000000E+00  0.39999999727E+01  0.40000000053E+01  0.51100000000E-03 0.  1.
          4   -1    0    0  501    0 -0.00000000000E+00 -0.00000000000E+00  0.23784062740E+00  0.14397805958E+01  0.14200000000E+01 0. -1.
         11    1    1    2    0    0 -0.72318045195E+00  0.11611809333E+01  0.17423824141E+01  0.22152263685E+01  0.51100000000E-03 0.  1.
         22    1    1    2    0    0 -0.15896673523E-01  0.37870056422E-01  0.65669816447E-01  0.77455601441E-01  0.00000000000E+00 0.  1.
          4    1    1    2  501    0  0.73907712547E+00 -0.11990509897E+01  0.24297883696E+01  0.31470986312E+01  0.14200000000E+01 0. -1.
<mgrwt>
<rscale>  0 0.20000896E+01</rscale>
<asrwt>0</asrwt>
<pdfrwt beam="1">  1       11 0.10000000E+01 0.14097297E+01</pdfrwt>
<pdfrwt beam="2">  1        4 0.99819734E+00 0.20000896E+01</pdfrwt>
<totfact> 0.44642077E-10</totfact>
</mgrwt>
</event>
<event>
 5    1  0.2028858E-012  0.2000759E+01  0.7818608E-02  0.3998137E+00
         11   -1    0    0    0    0  0.00000000000E+00  0.00000000000E+00  0.39999999575E+01  0.39999999902E+01  0.51100000000E-03 0. -1.
          4   -1    0    0  501    0 -0.00000000000E+00 -0.00000000000E+00  0.23778062004E+00  0.14397706843E+01  0.14200000000E+01 0.  1.
         11    1    1    2    0    0  0.28801905648E+00  0.10487774471E+01  0.13304581801E+01  0.17184319423E+01  0.51100000000E-03 0. -1.
         22    1    1    2    0    0  0.83495288906E-01  0.31085952411E+00  0.38396666916E+00  0.50103443996E+00  0.00000000000E+00 0. -1.
          4    1    1    2  501    0 -0.37151434539E+00 -0.13596369712E+01  0.25233557283E+01  0.32203042921E+01  0.14200000000E+01 0. -1.
<mgrwt>
<rscale>  0 0.20007588E+01</rscale>
<asrwt>0</asrwt>
<pdfrwt beam="1">  1       11 0.10000000E+01 0.14095320E+01</pdfrwt>
<pdfrwt beam="2">  1        4 0.99823173E+00 0.20007588E+01</pdfrwt>
<totfact> 0.43897809E-10</totfact>
</mgrwt>
</event>
<event>
 5    1  0.2028858E-012  0.2000917E+01  0.7818608E-02  0.3997937E+00
         11   -1    0    0    0    0  0.00000000000E+00  0.00000000000E+00  0.39999999557E+01  0.39999999883E+01  0.51100000000E-03 0. -1.
          4   -1    0    0  501    0 -0.00000000000E+00 -0.00000000000E+00  0.23636263024E+00  0.14395371801E+01  0.14200000000E+01 0. -1.
         11    1    1    2    0    0 -0.93251822856E+00 -0.10950725471E+00  0.11131389962E+01  0.14562488700E+01  0.51100000000E-03 0. -1.
         22    1    1    2    0    0 -0.46731088796E+00 -0.57064509874E-01  0.56204325326E+00  0.73316331252E+00  0.00000000000E+00 0. -1.
          4    1    1    2  501    0  0.13998291165E+01  0.16657176459E+00  0.25611803365E+01  0.32501249860E+01  0.14200000000E+01 0. -1.
<mgrwt>
<rscale>  0 0.20009167E+01</rscale>
<asrwt>0</asrwt>
<pdfrwt beam="1">  1       11 0.10000000E+01 0.14097135E+01</pdfrwt>
<pdfrwt beam="2">  1        4 0.99904491E+00 0.20009167E+01</pdfrwt>
<totfact> 0.24666673E-10</totfact>
</mgrwt>
</event>
<event>
 5    1  0.2028858E-012  0.2000175E+01  0.7818608E-02  0.3998877E+00
         11   -1    0    0    0    0  0.00000000000E+00  0.00000000000E+00  0.39999999542E+01  0.39999999869E+01  0.51100000000E-03 0.  1.
         -4   -1    0    0    0  501 -0.00000000000E+00 -0.00000000000E+00  0.23689727999E+00  0.14396250627E+01  0.14200000000E+01 0. -1.
         11    1    1    2    0    0 -0.11871419534E+01 -0.64527789561E+00  0.15793380258E+01  0.20784605941E+01  0.51100000000E-03 0.  1.
         22    1    1    2    0    0 -0.49348122080E-01 -0.29551062410E-01  0.67382890663E-01  0.88594336142E-01  0.00000000000E+00 0. -1.
         -4    1    1    2    0  501  0.12364900755E+01  0.67482895802E+00  0.25901763177E+01  0.32725701194E+01  0.14200000000E+01 0. -1.
<mgrwt>
<rscale>  0 0.20001754E+01</rscale>
<asrwt>0</asrwt>
<pdfrwt beam="1">  1       11 0.10000000E+01 0.14087013E+01</pdfrwt>
<pdfrwt beam="2">  1       -4 0.99873819E+00 0.20001754E+01</pdfrwt>
<totfact> 0.32080109E-10</totfact>
</mgrwt>
</event>
<event>
 5    1  0.2028858E-012  0.2000509E+01  0.7818608E-02  0.3998454E+00
         11   -1    0    0    0    0  0.00000000000E+00  0.00000000000E+00  0.39999999513E+01  0.39999999840E+01  0.51100000000E-03 0. -1.
          4   -1    0    0  501    0 -0.00000000000E+00 -0.00000000000E+00  0.23871801660E+00  0.14399257937E+01  0.14200000000E+01 0. -1.
         11    1    1    2    0    0  0.10454919701E+01 -0.49847338155E+00  0.14238343513E+01  0.18354382836E+01  0.51100000000E-03 0. -1.
         22    1    1    2    0    0  0.22653603500E+00 -0.10781048697E+00  0.31322572704E+00  0.40131288583E+00  0.00000000000E+00 0.  1.
          4    1    1    2  501    0 -0.12720280051E+01  0.60628386852E+00  0.25016578896E+01  0.32031746083E+01  0.14200000000E+01 0. -1.
<mgrwt>
<rscale>  0 0.20005088E+01</rscale>
<asrwt>0</asrwt>
<pdfrwt beam="1">  1       11 0.10000000E+01 0.14091416E+01</pdfrwt>
<pdfrwt beam="2">  1        4 0.99769467E+00 0.20005088E+01</pdfrwt>
<totfact> 0.55743265E-10</totfact>
</mgrwt>
</event>
<event>
 5    1  0.2028858E-012  0.2000612E+01  0.7818608E-02  0.3998324E+00
         11   -1    0    0    0    0  0.00000000000E+00  0.00000000000E+00  0.39999999583E+01  0.39999999910E+01  0.51100000000E-03 0.  1.
          4   -1    0    0  501    0 -0.00000000000E+00 -0.00000000000E+00  0.23818577550E+00  0.14398376518E+01  0.14200000000E+01 0.  1.
         11    1    1    2    0    0 -0.77123419602E+00 -0.28141238113E+00  0.10038080769E+01  0.12967752426E+01  0.51100000000E-03 0.  1.
         22    1    1    2    0    0 -0.55770969811E+00 -0.18758118876E+00  0.71703225667E+00  0.92755704237E+00  0.00000000000E+00 0.  1.
          4    1    1    2  501    0  0.13289438941E+01  0.46899356989E+00  0.25173454003E+01  0.32155053579E+01  0.14200000000E+01 0.  1.
<mgrwt>
<rscale>  0 0.20006116E+01</rscale>
<asrwt>0</asrwt>
<pdfrwt beam="1">  1       11 0.10000000E+01 0.14093845E+01</pdfrwt>
<pdfrwt beam="2">  1        4 0.99799956E+00 0.20006116E+01</pdfrwt>
<totfact> 0.49097437E-10</totfact>
</mgrwt>
</event>
<event>
 5    1  0.2028858E-012  0.2000514E+01  0.7818608E-02  0.3998448E+00
         11   -1    0    0    0    0  0.00000000000E+00  0.00000000000E+00  0.39999999671E+01  0.39999999997E+01  0.51100000000E-03 0. -1.
         -4   -1    0    0    0  501 -0.00000000000E+00 -0.00000000000E+00  0.23814847769E+00  0.14398314823E+01  0.14200000000E+01 0. -1.
         11    1    1    2    0    0  0.12823380436E+01  0.35454149580E+00  0.16929174671E+01  0.21531512585E+01  0.51100000000E-03 0. -1.
         22    1    1    2    0    0  0.75466091031E-01  0.22317334388E-01  0.10589688570E+00  0.13193689670E+00  0.00000000000E+00 0.  1.
         -4    1    1    2    0  501 -0.13578041347E+01 -0.37685883019E+00  0.24393340920E+01  0.31547433268E+01  0.14200000000E+01 0. -1.
<mgrwt>
<rscale>  0 0.20005136E+01</rscale>
<asrwt>0</asrwt>
<pdfrwt beam="1">  1       11 0.10000000E+01 0.14092178E+01</pdfrwt>
<pdfrwt beam="2">  1       -4 0.99802093E+00 0.20005136E+01</pdfrwt>
<totfact> 0.48617715E-10</totfact>
</mgrwt>
</event>
<event>
 5    1  0.2028858E-012  0.2000733E+01  0.7818608E-02  0.3998170E+00
         11   -1    0    0    0    0  0.00000000000E+00  0.00000000000E+00  0.39999999566E+01  0.39999999892E+01  0.51100000000E-03 0. -1.
          4   -1    0    0  501    0 -0.00000000000E+00 -0.00000000000E+00  0.23775389950E+00  0.14397662716E+01  0.14200000000E+01 0. -1.
         11    1    1    2    0    0  0.84977111424E+00  0.10480423546E+01  0.17134587349E+01  0.21809275139E+01  0.51100000000E-03 0. -1.
         22    1    1    2    0    0  0.36465299680E-01  0.47912729629E-01  0.79683615920E-01  0.99874052623E-01  0.00000000000E+00 0. -1.
          4    1    1    2  501    0 -0.88623641392E+00 -0.10959550842E+01  0.24446115053E+01  0.31589646943E+01  0.14200000000E+01 0. -1.
<mgrwt>
<rscale>  0 0.20007330E+01</rscale>
<asrwt>0</asrwt>
<pdfrwt beam="1">  1       11 0.10000000E+01 0.14095021E+01</pdfrwt>
<pdfrwt beam="2">  1        4 0.99824705E+00 0.20007330E+01</pdfrwt>
<totfact> 0.43548611E-10</totfact>
</mgrwt>
</event>
<event>
 5    1  0.2028858E-012  0.2000029E+01  0.7818608E-02  0.3999062E+00
         11   -1    0    0    0    0  0.00000000000E+00  0.00000000000E+00  0.39999999558E+01  0.39999999884E+01  0.51100000000E-03 0. -1.
         -4   -1    0    0    0  501 -0.00000000000E+00 -0.00000000000E+00  0.23770108090E+00  0.14397575504E+01  0.14200000000E+01 0. -1.
         11    1    1    2    0    0  0.11850731690E+01  0.70960336075E+00  0.18114428594E+01  0.22779949165E+01  0.51100000000E-03 0. -1.
         22    1    1    2    0    0  0.23276903640E-01  0.14003524779E-01  0.36668068604E-01  0.45633980808E-01  0.00000000000E+00 0. -1.
         -4    1    1    2    0  501 -0.12083500727E+01 -0.72360688552E+00  0.23895901087E+01  0.31161286415E+01  0.14200000000E+01 0. -1.
<mgrwt>
<rscale>  0 0.20000292E+01</rscale>
<asrwt>0</asrwt>
<pdfrwt beam="1">  1       11 0.10000000E+01 0.14084521E+01</pdfrwt>
<pdfrwt beam="2">  1       -4 0.99827732E+00 0.20000292E+01</pdfrwt>
<totfact> 0.42824003E-10</totfact>
</mgrwt>
</event>
<event>
 5    1  0.2028858E-012  0.2000127E+01  0.7818608E-02  0.3998938E+00
         11   -1    0    0    0    0  0.00000000000E+00  0.00000000000E+00  0.39999999496E+01  0.39999999822E+01  0.51100000000E-03 0. -1.
          4   -1    0    0  501    0 -0.00000000000E+00 -0.00000000000E+00  0.23777507957E+00  0.14397697693E+01  0.14200000000E+01 0. -1.
         11    1    1    2    0    0 -0.97965548114E+00 -0.96153131469E+00  0.16198898715E+01  0.21232783114E+01  0.51100000000E-03 0. -1.
         22    1    1    2    0    0 -0.25901067386E-01 -0.24857438331E-01  0.42035647446E-01  0.55278867466E-01  0.00000000000E+00 0. -1.
          4    1    1    2  501    0  0.10055565485E+01  0.98638875302E+00  0.25758495102E+01  0.32612125726E+01  0.14200000000E+01 0. -1.
<mgrwt>
<rscale>  0 0.20001267E+01</rscale>
<asrwt>0</asrwt>
<pdfrwt beam="1">  1       11 0.10000000E+01 0.14085869E+01</pdfrwt>
<pdfrwt beam="2">  1        4 0.99823490E+00 0.20001267E+01</pdfrwt>
<totfact> 0.43793352E-10</totfact>
</mgrwt>
</event>
<event>
 5    1  0.2028858E-012  0.2000736E+01  0.7818608E-02  0.3998166E+00
         11   -1    0    0    0    0  0.00000000000E+00  0.00000000000E+00  0.39999999597E+01  0.39999999924E+01  0.51100000000E-03 0. -1.
         -4   -1    0    0    0  501 -0.00000000000E+00 -0.00000000000E+00  0.23806360466E+00  0.14398174467E+01  0.14200000000E+01 0. -1.
         11    1    1    2    0    0 -0.13836128953E+01 -0.11611140654E+00  0.17392541880E+01  0.22255048628E+01  0.51100000000E-03 0. -1.
         22    1    1    2    0    0 -0.20936632103E-01 -0.12923107041E-02  0.29430323094E-01  0.36140787875E-01  0.00000000000E+00 0.  1.
         -4    1    1    2    0  501  0.14045495274E+01  0.11740371725E+00  0.24693790533E+01  0.31781717884E+01  0.14200000000E+01 0. -1.
<mgrwt>
<rscale>  0 0.20007356E+01</rscale>
<asrwt>0</asrwt>
<pdfrwt beam="1">  1       11 0.10000000E+01 0.14095376E+01</pdfrwt>
<pdfrwt beam="2">  1       -4 0.99806956E+00 0.20007356E+01</pdfrwt>
<totfact> 0.47547271E-10</totfact>
</mgrwt>
</event>
<event>
 5    1  0.2028858E-012  0.2000037E+01  0.7818608E-02  0.3999053E+00
         11   -1    0    0    0    0  0.00000000000E+00  0.00000000000E+00  0.39999999585E+01  0.39999999911E+01  0.51100000000E-03 0.  1.
         -4   -1    0    0    0  501 -0.00000000000E+00 -0.00000000000E+00  0.23831901235E+00  0.14398596986E+01  0.14200000000E+01 0. -1.
         11    1    1    2    0    0 -0.10732819628E+01 -0.88918390222E+00  0.18140018607E+01  0.22876156136E+01  0.51100000000E-03 0.  1.
         22    1    1    2    0    0 -0.11646162863E-01 -0.89685011497E-02  0.19466389775E-01  0.24392774610E-01  0.00000000000E+00 0. -1.
         -4    1    1    2    0  501  0.10849281256E+01  0.89815240337E+00  0.24048507203E+01  0.31278513015E+01  0.14200000000E+01 0. -1.
<mgrwt>
<rscale>  0 0.20000367E+01</rscale>
<asrwt>0</asrwt>
<pdfrwt beam="1">  1       11 0.10000000E+01 0.14084662E+01</pdfrwt>
<pdfrwt beam="2">  1       -4 0.99792322E+00 0.20000367E+01</pdfrwt>
<totfact> 0.50748837E-10</totfact>
</mgrwt>
</event>
<event>
 5    1  0.2028858E-012  0.2000451E+01  0.7818608E-02  0.3998528E+00
         11   -1    0    0    0    0  0.00000000000E+00  0.00000000000E+00  0.39999999585E+01  0.39999999912E+01  0.51100000000E-03 0. -1.
          4   -1    0    0  501    0 -0.00000000000E+00 -0.00000000000E+00  0.23634253661E+00  0.14395338810E+01  0.14200000000E+01 0. -1.
         11    1    1    2    0    0  0.14798634683E+00  0.47471286065E-01  0.22094653887E+00  0.27013166421E+00  0.51100000000E-03 0. -1.
         22    1    1    2    0    0  0.11848317300E+01  0.40969202479E+00  0.16248642157E+01  0.20522810488E+01  0.00000000000E+00 0. -1.
          4    1    1    2  501    0 -0.13328180768E+01 -0.45716331086E+00  0.23905317405E+01  0.31171211592E+01  0.14200000000E+01 0. -1.
<mgrwt>
<rscale>  0 0.20004505E+01</rscale>
<asrwt>0</asrwt>
<pdfrwt beam="1">  1       11 0.10000000E+01 0.14094621E+01</pdfrwt>
<pdfrwt beam="2">  1        4 0.99905644E+00 0.20004505E+01</pdfrwt>
<totfact> 0.24368808E-10</totfact>
</mgrwt>
</event>
<event>
 5    1  0.2028858E-012  0.2000877E+01  0.7818608E-02  0.3997987E+00
         11   -1    0    0    0    0  0.00000000000E+00  0.00000000000E+00  0.39999999608E+01  0.39999999935E+01  0.51100000000E-03 0. -1.
         -4   -1    0    0    0  501 -0.00000000000E+00 -0.00000000000E+00  0.23658325475E+00  0.14395734217E+01  0.14200000000E+01 0. -1.
         11    1    1    2    0    0  0.75654310500E+00 -0.10189463486E+01  0.15241390868E+01  0.19833328888E+01  0.51100000000E-03 0. -1.
         22    1    1    2    0    0  0.86628395533E-01 -0.11073137232E+00  0.15926257841E+00  0.21243936690E+00  0.00000000000E+00 0.  1.
         -4    1    1    2    0  501 -0.84317150054E+00  0.11296777209E+01  0.25531815504E+01  0.32438011594E+01  0.14200000000E+01 0. -1.
<mgrwt>
<rscale>  0 0.20008773E+01</rscale>
<asrwt>0</asrwt>
<pdfrwt beam="1">  1       11 0.10000000E+01 0.14098144E+01</pdfrwt>
<pdfrwt beam="2">  1       -4 0.99891832E+00 0.20008773E+01</pdfrwt>
<totfact> 0.27764164E-10</totfact>
</mgrwt>
</event>
<event>
 5    1  0.2028858E-012  0.2000523E+01  0.7818608E-02  0.3998436E+00
         11   -1    0    0    0    0  0.00000000000E+00  0.00000000000E+00  0.39999999504E+01  0.39999999830E+01  0.51100000000E-03 0.  1.
          4   -1    0    0  501    0 -0.00000000000E+00 -0.00000000000E+00  0.23870282479E+00  0.14399232752E+01  0.14200000000E+01 0. -1.
         11    1    1    2    0    0 -0.20870364651E+00  0.13124158547E+00  0.30889335996E+00  0.39521757903E+00  0.51100000000E-03 0.  1.
         22    1    1    2    0    0 -0.99003270536E+00  0.60951587671E+00  0.14556196320E+01  0.18629285747E+01  0.00000000000E+00 0.  1.
          4    1    1    2  501    0  0.11987363519E+01 -0.74075746218E+00  0.24741897832E+01  0.31817771045E+01  0.14200000000E+01 0. -1.
<mgrwt>
<rscale>  0 0.20005225E+01</rscale>
<asrwt>0</asrwt>
<pdfrwt beam="1">  1       11 0.10000000E+01 0.14091550E+01</pdfrwt>
<pdfrwt beam="2">  1        4 0.99770337E+00 0.20005225E+01</pdfrwt>
<totfact> 0.55557211E-10</totfact>
</mgrwt>
</event>
<event>
 5    1  0.2028858E-012  0.2000588E+01  0.7818608E-02  0.3998353E+00
         11   -1    0    0    0    0  0.00000000000E+00  0.00000000000E+00  0.39999999549E+01  0.39999999875E+01  0.51100000000E-03 0.  1.
         -4   -1    0    0    0  501 -0.00000000000E+00 -0.00000000000E+00  0.23773102170E+00  0.14397624938E+01  0.14200000000E+01 0.  1.
         11    1    1    2    0    0  0.61584142138E+00  0.12289890799E+01  0.16697769925E+01  0.21628292305E+01  0.51100000000E-03 0.  1.
         22    1    1    2    0    0  0.12224470418E-01  0.32552456829E-01  0.51509134274E-01  0.62147333300E-01  0.00000000000E+00 0.  1.
         -4    1    1    2    0  501 -0.62806589179E+00 -0.12615415367E+01  0.25164448499E+01  0.32147859175E+01  0.14200000000E+01 0.  1.
<mgrwt>
<rscale>  0 0.20005884E+01</rscale>
<asrwt>0</asrwt>
<pdfrwt beam="1">  1       11 0.10000000E+01 0.14098570E+01</pdfrwt>
<pdfrwt beam="2">  1       -4 0.99826016E+00 0.20005884E+01</pdfrwt>
<totfact> 0.43243009E-10</totfact>
</mgrwt>
</event>
<event>
 5    1  0.2028858E-012  0.2000758E+01  0.7818608E-02  0.3998138E+00
         11   -1    0    0    0    0  0.00000000000E+00  0.00000000000E+00  0.39999999660E+01  0.39999999986E+01  0.51100000000E-03 0. -1.
          4   -1    0    0  501    0 -0.00000000000E+00 -0.00000000000E+00  0.23803617081E+00  0.14398129110E+01  0.14200000000E+01 0.  1.
         11    1    1    2    0    0 -0.46721632626E+00 -0.12445679411E+01  0.16412088904E+01  0.21120623426E+01  0.51100000000E-03 0. -1.
         22    1    1    2    0    0 -0.26155743970E-01 -0.75741630395E-01  0.94633347272E-01  0.12400156424E+00  0.00000000000E+00 0. -1.
          4    1    1    2  501    0  0.49337207023E+00  0.13203095715E+01  0.25021938991E+01  0.32037490028E+01  0.14200000000E+01 0.  1.
<mgrwt>
<rscale>  0 0.20007582E+01</rscale>
<asrwt>0</asrwt>
<pdfrwt beam="1">  1       11 0.10000000E+01 0.14095515E+01</pdfrwt>
<pdfrwt beam="2">  1        4 0.99808528E+00 0.20007582E+01</pdfrwt>
<totfact> 0.47197245E-10</totfact>
</mgrwt>
</event>
<event>
 5    1  0.2028858E-012  0.2000915E+01  0.7818608E-02  0.3997939E+00
         11   -1    0    0    0    0  0.00000000000E+00  0.00000000000E+00  0.39999999506E+01  0.39999999833E+01  0.51100000000E-03 0. -1.
          4   -1    0    0  501    0 -0.00000000000E+00 -0.00000000000E+00  0.23658106312E+00  0.14395730615E+01  0.14200000000E+01 0. -1.
         11    1    1    2    0    0 -0.21244110148E+00  0.11445779500E+01  0.14986213043E+01  0.18976448509E+01  0.51100000000E-03 0. -1.
         22    1    1    2    0    0 -0.40946933117E-01  0.24216528331E+00  0.32169341479E+00  0.40473118103E+00  0.00000000000E+00 0. -1.
          4    1    1    2  501    0  0.25338803460E+00 -0.13867432333E+01  0.24162662946E+01  0.31371970129E+01  0.14200000000E+01 0. -1.
<mgrwt>
<rscale>  0 0.20009154E+01</rscale>
<asrwt>0</asrwt>
<pdfrwt beam="1">  1       11 0.10000000E+01 0.14097481E+01</pdfrwt>
<pdfrwt beam="2">  1        4 0.99891958E+00 0.20009154E+01</pdfrwt>
<totfact> 0.27734891E-10</totfact>
</mgrwt>
</event>
<event>
 5    1  0.2028858E-012  0.2000097E+01  0.7818608E-02  0.3998977E+00
         11   -1    0    0    0    0  0.00000000000E+00  0.00000000000E+00  0.39999999551E+01  0.39999999877E+01  0.51100000000E-03 0.  1.
         -4   -1    0    0    0  501 -0.00000000000E+00 -0.00000000000E+00  0.23809537798E+00  0.14398227005E+01  0.14200000000E+01 0. -1.
         11    1    1    2    0    0 -0.93220255274E+00  0.83409565582E+00  0.16316192186E+01  0.20559422896E+01  0.51100000000E-03 0.  1.
         22    1    1    2    0    0 -0.11668177867E+00  0.10602563522E+00  0.20374846980E+00  0.25762280905E+00  0.00000000000E+00 0. -1.
         -4    1    1    2    0  501  0.10488843314E+01 -0.94012129104E+00  0.24027276447E+01  0.31262575897E+01  0.14200000000E+01 0. -1.
<mgrwt>
<rscale>  0 0.20000966E+01</rscale>
<asrwt>0</asrwt>
<pdfrwt beam="1">  1       11 0.10000000E+01 0.14085485E+01</pdfrwt>
<pdfrwt beam="2">  1       -4 0.99805135E+00 0.20000966E+01</pdfrwt>
<totfact> 0.47917751E-10</totfact>
</mgrwt>
</event>
<event>
 5    1  0.2028858E-012  0.2000027E+01  0.7818608E-02  0.3999065E+00
         11   -1    0    0    0    0  0.00000000000E+00  0.00000000000E+00  0.39999999597E+01  0.39999999923E+01  0.51100000000E-03 0. -1.
          4   -1    0    0  501    0 -0.00000000000E+00 -0.00000000000E+00  0.23897720594E+00  0.14399687861E+01  0.14200000000E+01 0. -1.
         11    1    1    2    0    0  0.65435670335E+00  0.11785300309E+01  0.17097140654E+01  0.21772088039E+01  0.51100000000E-03 0. -1.
         22    1    1    2    0    0  0.22803827886E-01  0.56444691037E-01  0.83936351364E-01  0.10368861458E+00  0.00000000000E+00 0.  1.
          4    1    1    2  501    0 -0.67716053124E+00 -0.12349747219E+01  0.24453267488E+01  0.31590713600E+01  0.14200000000E+01 0. -1.
<mgrwt>
<rscale>  0 0.20000272E+01</rscale>
<asrwt>0</asrwt>
<pdfrwt beam="1">  1       11 0.10000000E+01 0.14090107E+01</pdfrwt>
<pdfrwt beam="2">  1        4 0.99754625E+00 0.20000272E+01</pdfrwt>
<totfact> 0.58874035E-10</totfact>
</mgrwt>
</event>
<event>
 5    1  0.2028858E-012  0.2001173E+01  0.7818608E-02  0.3997612E+00
         11   -1    0    0    0    0  0.00000000000E+00  0.00000000000E+00  0.39999999637E+01  0.39999999963E+01  0.51100000000E-03 0.  1.
          4   -1    0    0  501    0 -0.00000000000E+00 -0.00000000000E+00  0.23665848533E+00  0.14395857872E+01  0.14200000000E+01 0. -1.
         11    1    1    2    0    0  0.61796292332E+00 -0.12445773524E+01  0.17704299103E+01  0.22506162021E+01  0.51100000000E-03 0.  1.
         22    1    1    2    0    0  0.88825060003E-02 -0.18497899062E-01  0.24960238505E-01  0.32312299342E-01  0.00000000000E+00 0.  1.
          4    1    1    2  501    0 -0.62684542932E+00  0.12630752514E+01  0.24412683002E+01  0.31566572821E+01  0.14200000000E+01 0. -1.
<mgrwt>
<rscale>  0 0.20011732E+01</rscale>
<asrwt>0</asrwt>
<pdfrwt beam="1">  1       11 0.10000000E+01 0.14100840E+01</pdfrwt>
<pdfrwt beam="2">  1        4 0.99887517E+00 0.20011732E+01</pdfrwt>
<totfact> 0.28821933E-10</totfact>
</mgrwt>
</event>
<event>
 5    1  0.2028858E-012  0.2000399E+01  0.7818608E-02  0.3998593E+00
         11   -1    0    0    0    0  0.00000000000E+00  0.00000000000E+00  0.39999999605E+01  0.39999999932E+01  0.51100000000E-03 0. -1.
         -4   -1    0    0    0  501 -0.00000000000E+00 -0.00000000000E+00  0.23611892084E+00  0.14394971847E+01  0.14200000000E+01 0. -1.
         11    1    1    2    0    0  0.92380609094E+00  0.75046487495E+00  0.15777988472E+01  0.19763766558E+01  0.51100000000E-03 0. -1.
         22    1    1    2    0    0  0.17560937814E+00  0.13071729464E+00  0.24659730585E+00  0.32975126392E+00  0.00000000000E+00 0. -1.
         -4    1    1    2    0  501 -0.10994154691E+01 -0.88118216960E+00  0.24117227283E+01  0.31333692581E+01  0.14200000000E+01 0. -1.
<mgrwt>
<rscale>  0 0.20003991E+01</rscale>
<asrwt>0</asrwt>
<pdfrwt beam="1">  1       11 0.10000000E+01 0.14106044E+01</pdfrwt>
<pdfrwt beam="2">  1       -4 0.99918476E+00 0.20003991E+01</pdfrwt>
<totfact> 0.21184167E-10</totfact>
</mgrwt>
</event>
<event>
 5    1  0.2028858E-012  0.2000390E+01  0.7818608E-02  0.3998604E+00
         11   -1    0    0    0    0  0.00000000000E+00  0.00000000000E+00  0.39999999693E+01  0.40000000019E+01  0.51100000000E-03 0.  1.
         -4   -1    0    0    0  501 -0.00000000000E+00 -0.00000000000E+00  0.23895221724E+00  0.14399646392E+01  0.14200000000E+01 0.  1.
         11    1    1    2    0    0  0.13114932967E+01  0.35059285048E+00  0.17033042481E+01  0.21781128614E+01  0.51100000000E-03 0.  1.
         22    1    1    2    0    0  0.49279532285E-01  0.14726663528E-01  0.67025637474E-01  0.84485401104E-01  0.00000000000E+00 0.  1.
         -4    1    1    2    0  501 -0.13607728290E+01 -0.36531951401E+00  0.24686223009E+01  0.31773663786E+01  0.14200000000E+01 0.  1.
<mgrwt>
<rscale>  0 0.20003902E+01</rscale>
<asrwt>0</asrwt>
<pdfrwt beam="1">  1       11 0.10000000E+01 0.14090007E+01</pdfrwt>
<pdfrwt beam="2">  1       -4 0.99756056E+00 0.20003902E+01</pdfrwt>
<totfact> 0.58595625E-10</totfact>
</mgrwt>
</event>
<event>
 5    1  0.2028858E-012  0.2000447E+01  0.7818608E-02  0.3998533E+00
         11   -1    0    0    0    0  0.00000000000E+00  0.00000000000E+00  0.39999999575E+01  0.39999999901E+01  0.51100000000E-03 0. -1.
          4   -1    0    0  501    0 -0.00000000000E+00 -0.00000000000E+00  0.23872172640E+00  0.14399264088E+01  0.14200000000E+01 0. -1.
         11    1    1    2    0    0  0.23658005162E+00  0.44778734247E-02  0.28949087256E+00  0.37389222858E+00  0.51100000000E-03 0.  1.
         22    1    1    2    0    0  0.11721741490E+01  0.23780143506E-01  0.14323867100E+01  0.18510238836E+01  0.00000000000E+00 0. -1.
          4    1    1    2  501    0 -0.14087542006E+01 -0.28258016931E-01  0.25168441013E+01  0.32150102867E+01  0.14200000000E+01 0. -1.
<mgrwt>
<rscale>  0 0.20004467E+01</rscale>
<asrwt>0</asrwt>
<pdfrwt beam="1">  1       11 0.10000000E+01 0.14090391E+01</pdfrwt>
<pdfrwt beam="2">  1        4 0.99769255E+00 0.20004467E+01</pdfrwt>
<totfact> 0.55784884E-10</totfact>
</mgrwt>
</event>
<event>
 5    1  0.2028858E-012  0.2000119E+01  0.7818608E-02  0.3998948E+00
         11   -1    0    0    0    0  0.00000000000E+00  0.00000000000E+00  0.39999999714E+01  0.40000000041E+01  0.51100000000E-03 0.  1.
          4   -1    0    0  501    0 -0.00000000000E+00 -0.00000000000E+00  0.23930454115E+00  0.14400231468E+01  0.14200000000E+01 0.  1.
         11    1    1    2    0    0 -0.39064762856E+00 -0.12061703624E+01  0.15878404059E+01  0.20319177957E+01  0.51100000000E-03 0.  1.
         22    1    1    2    0    0 -0.43680075254E-01 -0.13376807651E+00  0.19114830323E+00  0.23735947652E+00  0.00000000000E+00 0.  1.
          4    1    1    2  501    0  0.43432770382E+00  0.13399384389E+01  0.24603158035E+01  0.31707458787E+01  0.14200000000E+01 0.  1.
<mgrwt>
<rscale>  0 0.20001189E+01</rscale>
<asrwt>0</asrwt>
<pdfrwt beam="1">  1       11 0.10000000E+01 0.14088359E+01</pdfrwt>
<pdfrwt beam="2">  1        4 0.99735885E+00 0.20001189E+01</pdfrwt>
<totfact> 0.62803497E-10</totfact>
</mgrwt>
</event>
<event>
 5    1  0.2028858E-012  0.2000516E+01  0.7818608E-02  0.3998445E+00
         11   -1    0    0    0    0  0.00000000000E+00  0.00000000000E+00  0.39999999611E+01  0.39999999938E+01  0.51100000000E-03 0.  1.
          4   -1    0    0  501    0 -0.00000000000E+00 -0.00000000000E+00  0.23872944916E+00  0.14399276891E+01  0.14200000000E+01 0. -1.
         11    1    1    2    0    0  0.13107711029E+01 -0.14161978452E+00  0.16364363182E+01  0.21014521485E+01  0.51100000000E-03 0.  1.
         22    1    1    2    0    0  0.90214262590E-01 -0.97227005814E-02  0.10894748743E+00  0.14178398745E+00  0.00000000000E+00 0. -1.
          4    1    1    2  501    0 -0.14009853655E+01  0.15134248510E+00  0.24933456047E+01  0.31966915470E+01  0.14200000000E+01 0. -1.
<mgrwt>
<rscale>  0 0.20005161E+01</rscale>
<asrwt>0</asrwt>
<pdfrwt beam="1">  1       11 0.10000000E+01 0.14091649E+01</pdfrwt>
<pdfrwt beam="2">  1        4 0.99768813E+00 0.20005161E+01</pdfrwt>
<totfact> 0.55884255E-10</totfact>
</mgrwt>
</event>
<event>
 5    1  0.2028858E-012  0.2000362E+01  0.7818608E-02  0.3998640E+00
         11   -1    0    0    0    0  0.00000000000E+00  0.00000000000E+00  0.39999999521E+01  0.39999999847E+01  0.51100000000E-03 0.  1.
          4   -1    0    0  501    0 -0.00000000000E+00 -0.00000000000E+00  0.23700028035E+00  0.14396420155E+01  0.14200000000E+01 0.  1.
         11    1    1    2    0    0 -0.18480403200E+00 -0.13036606008E+01  0.17109002041E+01  0.21589032544E+01  0.51100000000E-03 0.  1.
         22    1    1    2    0    0 -0.11894393453E-01 -0.91458236525E-01  0.13019265022E+00  0.15955002913E+00  0.00000000000E+00 0. -1.
          4    1    1    2  501    0  0.19669842545E+00  0.13951188373E+01  0.23959073781E+01  0.31211887167E+01  0.14200000000E+01 0.  1.
<mgrwt>
<rscale>  0 0.20003617E+01</rscale>
<asrwt>0</asrwt>
<pdfrwt beam="1">  1       11 0.10000000E+01 0.14091142E+01</pdfrwt>
<pdfrwt beam="2">  1        4 0.99867912E+00 0.20003617E+01</pdfrwt>
<totfact> 0.33493624E-10</totfact>
</mgrwt>
</event>
<event>
 5    1  0.2028858E-012  0.2000948E+01  0.7818608E-02  0.3997898E+00
         11   -1    0    0    0    0  0.00000000000E+00  0.00000000000E+00  0.39999999492E+01  0.39999999818E+01  0.51100000000E-03 0.  1.
         -4   -1    0    0    0  501 -0.00000000000E+00 -0.00000000000E+00  0.23635830697E+00  0.14395364703E+01  0.14200000000E+01 0.  1.
         11    1    1    2    0    0  0.51870839406E+00  0.12766303700E+01  0.17353731005E+01  0.22159340150E+01  0.51100000000E-03 0.  1.
         22    1    1    2    0    0  0.10360488423E-01  0.30074309517E-01  0.53914221138E-01  0.62598299132E-01  0.00000000000E+00 0. -1.
         -4    1    1    2    0  501 -0.52906888248E+00 -0.13067046795E+01  0.24470709345E+01  0.31610041380E+01  0.14200000000E+01 0.  1.
<mgrwt>
<rscale>  0 0.20009475E+01</rscale>
<asrwt>0</asrwt>
<pdfrwt beam="1">  1       11 0.10000000E+01 0.14107304E+01</pdfrwt>
<pdfrwt beam="2">  1       -4 0.99904739E+00 0.20009475E+01</pdfrwt>
<totfact> 0.24606497E-10</totfact>
</mgrwt>
</event>
<event>
 5    1  0.2028858E-012  0.2000911E+01  0.7818608E-02  0.3997944E+00
         11   -1    0    0    0    0  0.00000000000E+00  0.00000000000E+00  0.39999999620E+01  0.39999999946E+01  0.51100000000E-03 0.  1.
          4   -1    0    0  501    0 -0.00000000000E+00 -0.00000000000E+00  0.23661144847E+00  0.14395780554E+01  0.14200000000E+01 0.  1.
         11    1    1    2    0    0  0.11609028591E+01  0.69595377399E+00  0.17504642132E+01  0.22127296099E+01  0.51100000000E-03 0.  1.
         22    1    1    2    0    0  0.48665146658E-01  0.28056627757E-01  0.69175077199E-01  0.89110393141E-01  0.00000000000E+00 0.  1.
          4    1    1    2  501    0 -0.12095680057E+01 -0.72401040175E+00  0.24169721201E+01  0.31377380470E+01  0.14200000000E+01 0.  1.
<mgrwt>
<rscale>  0 0.20009112E+01</rscale>
<asrwt>0</asrwt>
<pdfrwt beam="1">  1       11 0.10000000E+01 0.14097447E+01</pdfrwt>
<pdfrwt beam="2">  1        4 0.99890215E+00 0.20009112E+01</pdfrwt>
<totfact> 0.28158440E-10</totfact>
</mgrwt>
</event>
<event>
 5    1  0.2028858E-012  0.2000153E+01  0.7818608E-02  0.3998905E+00
         11   -1    0    0    0    0  0.00000000000E+00  0.00000000000E+00  0.39999999542E+01  0.39999999868E+01  0.51100000000E-03 0. -1.
          4   -1    0    0  501    0 -0.00000000000E+00 -0.00000000000E+00  0.23879997644E+00  0.14399393837E+01  0.14200000000E+01 0. -1.
         11    1    1    2    0    0  0.12654471316E+01 -0.34967132491E+00  0.15763678576E+01  0.20514780920E+01  0.51100000000E-03 0. -1.
         22    1    1    2    0    0  0.92436795028E-01 -0.24979872455E-01  0.11582374514E+00  0.15027872452E+00  0.00000000000E+00 0.  1.
          4    1    1    2  501    0 -0.13578839266E+01  0.37465119737E+00  0.25466083279E+01  0.32381825540E+01  0.14200000000E+01 0. -1.
<mgrwt>
<rscale>  0 0.20001531E+01</rscale>
<asrwt>0</asrwt>
<pdfrwt beam="1">  1       11 0.10000000E+01 0.14086244E+01</pdfrwt>
<pdfrwt beam="2">  1        4 0.99764773E+00 0.20001531E+01</pdfrwt>
<totfact> 0.56725703E-10</totfact>
</mgrwt>
</event>
<event>
 5    1  0.2028858E-012  0.2000059E+01  0.7818608E-02  0.3999024E+00
         11   -1    0    0    0    0  0.00000000000E+00  0.00000000000E+00  0.39999999490E+01  0.39999999817E+01  0.51100000000E-03 0.  1.
          4   -1    0    0  501    0 -0.00000000000E+00 -0.00000000000E+00  0.23886109301E+00  0.14399495206E+01  0.14200000000E+01 0.  1.
         11    1    1    2    0    0 -0.14419567022E+00  0.13910833210E+01  0.17969277704E+01  0.22770276394E+01  0.51100000000E-03 0.  1.
         22    1    1    2    0    0  0.91348505672E-03  0.10096731208E-01  0.13704111420E-01  0.17046439682E-01  0.00000000000E+00 0.  1.
          4    1    1    2  501    0  0.14328218516E+00 -0.14011800523E+01  0.24282291602E+01  0.31458754231E+01  0.14200000000E+01 0.  1.
<mgrwt>
<rscale>  0 0.20000588E+01</rscale>
<asrwt>0</asrwt>
<pdfrwt beam="1">  1       11 0.10000000E+01 0.14086831E+01</pdfrwt>
<pdfrwt beam="2">  1        4 0.99761273E+00 0.20000588E+01</pdfrwt>
<totfact> 0.57465888E-10</totfact>
</mgrwt>
</event>
<event>
 5    1  0.2028858E-012  0.2000622E+01  0.7818608E-02  0.3998310E+00
         11   -1    0    0    0    0  0.00000000000E+00  0.00000000000E+00  0.39999999653E+01  0.39999999979E+01  0.51100000000E-03 0. -1.
         -4   -1    0    0    0  501 -0.00000000000E+00 -0.00000000000E+00  0.23764041682E+00  0.14397475361E+01  0.14200000000E+01 0. -1.
         11    1    1    2    0    0 -0.60244726013E+00  0.94957974410E+00  0.13497575545E+01  0.17568409458E+01  0.51100000000E-03 0. -1.
         22    1    1    2    0    0 -0.15397217995E+00  0.23950335017E+00  0.34225917096E+00  0.44520852086E+00  0.00000000000E+00 0. -1.
         -4    1    1    2    0  501  0.75641944009E+00 -0.11890830943E+01  0.25456236566E+01  0.32376980674E+01  0.14200000000E+01 0. -1.
<mgrwt>
<rscale>  0 0.20006221E+01</rscale>
<asrwt>0</asrwt>
<pdfrwt beam="1">  1       11 0.10000000E+01 0.14092918E+01</pdfrwt>
<pdfrwt beam="2">  1       -4 0.99831209E+00 0.20006221E+01</pdfrwt>
<totfact> 0.42059517E-10</totfact>
</mgrwt>
</event>
<event>
 5    1  0.2028858E-012  0.2001196E+01  0.7818608E-02  0.3997583E+00
         11   -1    0    0    0    0  0.00000000000E+00  0.00000000000E+00  0.39999999533E+01  0.39999999860E+01  0.51100000000E-03 0.  1.
         -4   -1    0    0    0  501 -0.00000000000E+00 -0.00000000000E+00  0.23580119793E+00  0.14394451031E+01  0.14200000000E+01 0.  1.
         11    1    1    2    0    0 -0.13090704939E+01  0.41002716420E+00  0.17751440509E+01  0.22434180386E+01  0.51100000000E-03 0.  1.
         22    1    1    2    0    0 -0.37028329250E-01  0.99774857642E-02  0.46980126795E-01  0.60644700534E-01  0.00000000000E+00 0.  1.
         -4    1    1    2    0  501  0.13460988232E+01 -0.42000464996E+00  0.24136769736E+01  0.31353823500E+01  0.14200000000E+01 0.  1.
<mgrwt>
<rscale>  0 0.20011961E+01</rscale>
<asrwt>0</asrwt>
<pdfrwt beam="1">  1       11 0.10000000E+01 0.14101662E+01</pdfrwt>
<pdfrwt beam="2">  1       -4 0.99936713E+00 0.20011961E+01</pdfrwt>
<totfact> 0.16606658E-10</totfact>
</mgrwt>
</event>
<event>
 5    1  0.2028858E-012  0.2001195E+01  0.7818608E-02  0.3997584E+00
         11   -1    0    0    0    0  0.00000000000E+00  0.00000000000E+00  0.39999999497E+01  0.39999999823E+01  0.51100000000E-03 0.  1.
          4   -1    0    0  501    0 -0.00000000000E+00 -0.00000000000E+00  0.23544825880E+00  0.14393873289E+01  0.14200000000E+01 0. -1.
         11    1    1    2    0    0  0.56480124686E+00 -0.11589779535E+01  0.16769124248E+01  0.21152460582E+01  0.51100000000E-03 0.  1.
         22    1    1    2    0    0  0.53483576518E-01 -0.10834429997E+00  0.15638416127E+00  0.19762334424E+00  0.00000000000E+00 0.  1.
          4    1    1    2  501    0 -0.61828482338E+00  0.12673222535E+01  0.24021516224E+01  0.31265179088E+01  0.14200000000E+01 0. -1.
<mgrwt>
<rscale>  0 0.20011951E+01</rscale>
<asrwt>0</asrwt>
<pdfrwt beam="1">  1       11 0.10000000E+01 0.14101023E+01</pdfrwt>
<pdfrwt beam="2">  1        4 0.99956977E+00 0.20011951E+01</pdfrwt>
<totfact> 0.11400264E-10</totfact>
</mgrwt>
</event>
<event>
 5    1  0.2028858E-012  0.2000701E+01  0.7818608E-02  0.3998210E+00
         11   -1    0    0    0    0  0.00000000000E+00  0.00000000000E+00  0.39999999507E+01  0.39999999833E+01  0.51100000000E-03 0. -1.
         -4   -1    0    0    0  501 -0.00000000000E+00 -0.00000000000E+00  0.23808711105E+00  0.14398213335E+01  0.14200000000E+01 0. -1.
         11    1    1    2    0    0 -0.72979016234E+00  0.11872145647E+01  0.17022410559E+01  0.21999311301E+01  0.51100000000E-03 0. -1.
         22    1    1    2    0    0 -0.84642627754E-02  0.13363105419E-01  0.20560516634E-01  0.25941302493E-01  0.00000000000E+00 0.  1.
         -4    1    1    2    0  501  0.73825442511E+00 -0.12005776701E+01  0.25152854892E+01  0.32139488843E+01  0.14200000000E+01 0.  1.
<mgrwt>
<rscale>  0 0.20007015E+01</rscale>
<asrwt>0</asrwt>
<pdfrwt beam="1">  1       11 0.10000000E+01 0.14094200E+01</pdfrwt>
<pdfrwt beam="2">  1       -4 0.99805609E+00 0.20007015E+01</pdfrwt>
<totfact> 0.47845911E-10</totfact>
</mgrwt>
</event>
<event>
 5    1  0.2028858E-012  0.2000942E+01  0.7818608E-02  0.3997905E+00
         11   -1    0    0    0    0  0.00000000000E+00  0.00000000000E+00  0.39999999664E+01  0.39999999990E+01  0.51100000000E-03 0. -1.
         -4   -1    0    0    0  501 -0.00000000000E+00 -0.00000000000E+00  0.23599238984E+00  0.14394764354E+01  0.14200000000E+01 0. -1.
         11    1    1    2    0    0 -0.13861239534E+01  0.71299013941E-01  0.18069275518E+01  0.22784667217E+01  0.51100000000E-03 0. -1.
         22    1    1    2    0    0 -0.21764371498E-01  0.94866586253E-03  0.28511020860E-01  0.35881278462E-01  0.00000000000E+00 0.  1.
         -4    1    1    2    0  501  0.14078883249E+01 -0.72247679804E-01  0.24005537836E+01  0.31251284342E+01  0.14200000000E+01 0. -1.
<mgrwt>
<rscale>  0 0.20009421E+01</rscale>
<asrwt>0</asrwt>
<pdfrwt beam="1">  1       11 0.10000000E+01 0.14097418E+01</pdfrwt>
<pdfrwt beam="2">  1       -4 0.99925738E+00 0.20009421E+01</pdfrwt>
<totfact> 0.19377502E-10</totfact>
</mgrwt>
</event>
<event>
 5    1  0.2028858E-012  0.2000277E+01  0.7818608E-02  0.3998748E+00
         11   -1    0    0    0    0  0.00000000000E+00  0.00000000000E+00  0.39999999717E+01  0.40000000043E+01  0.51100000000E-03 0. -1.
          4   -1    0    0  501    0 -0.00000000000E+00 -0.00000000000E+00  0.23862739042E+00  0.14399107720E+01  0.14200000000E+01 0.  1.
         11    1    1    2    0    0  0.10026287316E+01  0.97584507001E+00  0.17722744545E+01  0.22579847159E+01  0.51100000000E-03 0. -1.
         22    1    1    2    0    0  0.49028635228E-02  0.88319575712E-02  0.11136046000E-01  0.15035061216E-01  0.00000000000E+00 0. -1.
          4    1    1    2  501    0 -0.10075315951E+01 -0.98467702758E+00  0.24552168616E+01  0.31668909993E+01  0.14200000000E+01 0.  1.
<mgrwt>
<rscale>  0 0.20002772E+01</rscale>
<asrwt>0</asrwt>
<pdfrwt beam="1">  1       11 0.10000000E+01 0.14092785E+01</pdfrwt>
<pdfrwt beam="2">  1        4 0.99774658E+00 0.20002772E+01</pdfrwt>
<totfact> 0.54610931E-10</totfact>
</mgrwt>
</event>
<event>
 5    1  0.2028858E-012  0.2000422E+01  0.7818608E-02  0.3998565E+00
         11   -1    0    0    0    0  0.00000000000E+00  0.00000000000E+00  0.39999999671E+01  0.39999999997E+01  0.51100000000E-03 0.  1.
         -4   -1    0    0    0  501 -0.00000000000E+00 -0.00000000000E+00  0.23752709265E+00  0.14397288355E+01  0.14200000000E+01 0.  1.
         11    1    1    2    0    0 -0.11616682319E+01 -0.31054477602E+00  0.14313566257E+01  0.18694098508E+01  0.51100000000E-03 0.  1.
         22    1    1    2    0    0 -0.19688140585E+00 -0.63125107067E-01  0.24846187625E+00  0.32323423559E+00  0.00000000000E+00 0.  1.
         -4    1    1    2    0  501  0.13585496378E+01  0.37366988308E+00  0.25577085577E+01  0.32470847488E+01  0.14200000000E+01 0.  1.
<mgrwt>
<rscale>  0 0.20004215E+01</rscale>
<asrwt>0</asrwt>
<pdfrwt beam="1">  1       11 0.10000000E+01 0.14092196E+01</pdfrwt>
<pdfrwt beam="2">  1       -4 0.99837705E+00 0.20004215E+01</pdfrwt>
<totfact> 0.40558667E-10</totfact>
</mgrwt>
</event>
<event>
 5    1  0.2028858E-012  0.2000307E+01  0.7818608E-02  0.3998710E+00
         11   -1    0    0    0    0  0.00000000000E+00  0.00000000000E+00  0.39999999592E+01  0.39999999919E+01  0.51100000000E-03 0. -1.
          4   -1    0    0  501    0 -0.00000000000E+00 -0.00000000000E+00  0.23909558135E+00  0.14399884364E+01  0.14200000000E+01 0.  1.
         11    1    1    2    0    0 -0.10748997782E+01  0.70446146533E+00  0.16219683050E+01  0.20694098030E+01  0.51100000000E-03 0. -1.
         22    1    1    2    0    0 -0.10517177612E+00  0.65122496770E-01  0.15457205321E+00  0.19797616450E+00  0.00000000000E+00 0. -1.
          4    1    1    2  501    0  0.11800715543E+01 -0.76958396210E+00  0.24625551824E+01  0.31726024608E+01  0.14200000000E+01 0.  1.
<mgrwt>
<rscale>  0 0.20003071E+01</rscale>
<asrwt>0</asrwt>
<pdfrwt beam="1">  1       11 0.10000000E+01 0.14088802E+01</pdfrwt>
<pdfrwt beam="2">  1        4 0.99747847E+00 0.20003071E+01</pdfrwt>
<totfact> 0.60320907E-10</totfact>
</mgrwt>
</event>
<event>
 5    1  0.2028858E-012  0.2000833E+01  0.7818608E-02  0.3998043E+00
         11   -1    0    0    0    0  0.00000000000E+00  0.00000000000E+00  0.39999999625E+01  0.39999999951E+01  0.51100000000E-03 0.  1.
          4   -1    0    0  501    0 -0.00000000000E+00 -0.00000000000E+00  0.23769605616E+00  0.14397567208E+01  0.14200000000E+01 0.  1.
         11    1    1    2    0    0  0.56030163032E+00 -0.82991924008E+00  0.12680675521E+01  0.16157658988E+01  0.51100000000E-03 0.  1.
         22    1    1    2    0    0  0.23023498403E+00 -0.33712129059E+00  0.51775437369E+00  0.65933944514E+00  0.00000000000E+00 0.  1.
          4    1    1    2  501    0 -0.79053661435E+00  0.11670405307E+01  0.24518740928E+01  0.31646513719E+01  0.14200000000E+01 0.  1.
<mgrwt>
<rscale>  0 0.20008328E+01</rscale>
<asrwt>0</asrwt>
<pdfrwt beam="1">  1       11 0.10000000E+01 0.14095901E+01</pdfrwt>
<pdfrwt beam="2">  1        4 0.99828020E+00 0.20008328E+01</pdfrwt>
<totfact> 0.42798627E-10</totfact>
</mgrwt>
</event>
<event>
 5    1  0.2028858E-012  0.2001188E+01  0.7818608E-02  0.3997593E+00
         11   -1    0    0    0    0  0.00000000000E+00  0.00000000000E+00  0.39999999603E+01  0.39999999929E+01  0.51100000000E-03 0. -1.
          4   -1    0    0  501    0 -0.00000000000E+00 -0.00000000000E+00  0.23636861549E+00  0.14395381629E+01  0.14200000000E+01 0. -1.
         11    1    1    2    0    0 -0.27084884709E+00  0.11593875192E+01  0.15162743310E+01  0.19278554473E+01  0.51100000000E-03 0. -1.
         22    1    1    2    0    0 -0.36820779213E-01  0.21672782258E+00  0.27308274824E+00  0.35057225539E+00  0.00000000000E+00 0.  1.
          4    1    1    2  501    0  0.30766962630E+00 -0.13761153418E+01  0.24470114965E+01  0.31611104531E+01  0.14200000000E+01 0. -1.
<mgrwt>
<rscale>  0 0.20011882E+01</rscale>
<asrwt>0</asrwt>
<pdfrwt beam="1">  1       11 0.10000000E+01 0.14104730E+01</pdfrwt>
<pdfrwt beam="2">  1        4 0.99904147E+00 0.20011882E+01</pdfrwt>
<totfact> 0.24759304E-10</totfact>
</mgrwt>
</event>
<event>
 5    1  0.2028858E-012  0.2000534E+01  0.7818608E-02  0.3998421E+00
         11   -1    0    0    0    0  0.00000000000E+00  0.00000000000E+00  0.39999999531E+01  0.39999999857E+01  0.51100000000E-03 0. -1.
          4   -1    0    0  501    0 -0.00000000000E+00 -0.00000000000E+00  0.23849694309E+00  0.14398891596E+01  0.14200000000E+01 0. -1.
         11    1    1    2    0    0 -0.12977623917E+01 -0.63370497593E-01  0.16087714256E+01  0.20679334627E+01  0.51100000000E-03 0. -1.
         22    1    1    2    0    0 -0.10954751712E+00 -0.88586481984E-02  0.14634273351E+00  0.18301729374E+00  0.00000000000E+00 0.  1.
          4    1    1    2  501    0  0.14073099088E+01  0.72229145791E-01  0.24833827371E+01  0.31889383889E+01  0.14200000000E+01 0. -1.
<mgrwt>
<rscale>  0 0.20005345E+01</rscale>
<asrwt>0</asrwt>
<pdfrwt beam="1">  1       11 0.10000000E+01 0.14093806E+01</pdfrwt>
<pdfrwt beam="2">  1        4 0.99782129E+00 0.20005345E+01</pdfrwt>
<totfact> 0.53007643E-10</totfact>
</mgrwt>
</event>
<event>
 5    1  0.2028858E-012  0.2000797E+01  0.7818608E-02  0.3998089E+00
         11   -1    0    0    0    0  0.00000000000E+00  0.00000000000E+00  0.39999999619E+01  0.39999999945E+01  0.51100000000E-03 0. -1.
         -4   -1    0    0    0  501 -0.00000000000E+00 -0.00000000000E+00  0.23773793181E+00  0.14397636348E+01  0.14200000000E+01 0. -1.
         11    1    1    2    0    0 -0.10925572764E+01  0.47985870035E+00  0.14505862276E+01  0.18783360826E+01  0.51100000000E-03 0. -1.
         22    1    1    2    0    0 -0.19792202331E+00  0.87107295828E-01  0.26380959219E+00  0.34111040622E+00  0.00000000000E+00 0. -1.
         -4    1    1    2    0  501  0.12904792997E+01 -0.56696599618E+00  0.25233420739E+01  0.32203171405E+01  0.14200000000E+01 0. -1.
<mgrwt>
<rscale>  0 0.20007967E+01</rscale>
<asrwt>0</asrwt>
<pdfrwt beam="1">  1       11 0.10000000E+01 0.14095360E+01</pdfrwt>
<pdfrwt beam="2">  1       -4 0.99825620E+00 0.20007967E+01</pdfrwt>
<totfact> 0.43343667E-10</totfact>
</mgrwt>
</event>
<event>
 5    1  0.2028858E-012  0.2000215E+01  0.7818608E-02  0.3998826E+00
         11   -1    0    0    0    0  0.00000000000E+00  0.00000000000E+00  0.39999999499E+01  0.39999999825E+01  0.51100000000E-03 0.  1.
         -4   -1    0    0    0  501 -0.00000000000E+00 -0.00000000000E+00  0.23673764386E+00  0.14395988025E+01  0.14200000000E+01 0. -1.
         11    1    1    2    0    0  0.10238002092E+01 -0.89637624598E+00  0.17975529576E+01  0.22545186048E+01  0.51100000000E-03 0.  1.
         22    1    1    2    0    0  0.36171431532E-01 -0.31481872108E-01  0.59736617076E-01  0.76602507467E-01  0.00000000000E+00 0. -1.
         -4    1    1    2    0  501 -0.10599716407E+01  0.92785811809E+00  0.23794480190E+01  0.31084776727E+01  0.14200000000E+01 0. -1.
<mgrwt>
<rscale>  0 0.20002151E+01</rscale>
<asrwt>0</asrwt>
<pdfrwt beam="1">  1       11 0.10000000E+01 0.14087587E+01</pdfrwt>
<pdfrwt beam="2">  1       -4 0.99882976E+00 0.20002151E+01</pdfrwt>
<totfact> 0.29885572E-10</totfact>
</mgrwt>
</event>
<event>
 5    1  0.2028858E-012  0.2000446E+01  0.7818608E-02  0.3998533E+00
         11   -1    0    0    0    0  0.00000000000E+00  0.00000000000E+00  0.39999999565E+01  0.39999999891E+01  0.51100000000E-03 0.  1.
         -4   -1    0    0    0  501 -0.00000000000E+00 -0.00000000000E+00  0.23776348968E+00  0.14397678553E+01  0.14200000000E+01 0. -1.
         11    1    1    2    0    0  0.12240902104E+01  0.66975094480E+00  0.16657864455E+01  0.21729721384E+01  0.51100000000E-03 0.  1.
         22    1    1    2    0    0  0.12265130507E-01  0.61266943168E-02  0.16473502261E-01  0.21432360727E-01  0.00000000000E+00 0. -1.
         -4    1    1    2    0  501 -0.12363553409E+01 -0.67587763912E+00  0.25555034984E+01  0.32453633452E+01  0.14200000000E+01 0. -1.
<mgrwt>
<rscale>  0 0.20004462E+01</rscale>
<asrwt>0</asrwt>
<pdfrwt beam="1">  1       11 0.10000000E+01 0.14090474E+01</pdfrwt>
<pdfrwt beam="2">  1       -4 0.99824155E+00 0.20004462E+01</pdfrwt>
<totfact> 0.43658877E-10</totfact>
</mgrwt>
</event>
<event>
 5    1  0.2028858E-012  0.2001393E+01  0.7818608E-02  0.3997333E+00
         11   -1    0    0    0    0  0.00000000000E+00  0.00000000000E+00  0.39999999492E+01  0.39999999818E+01  0.51100000000E-03 0. -1.
         -4   -1    0    0    0  501 -0.00000000000E+00 -0.00000000000E+00  0.23606608226E+00  0.14394885186E+01  0.14200000000E+01 0.  1.
         11    1    1    2    0    0  0.98303566509E+00  0.98786169069E+00  0.17757017632E+01  0.22572874987E+01  0.51100000000E-03 0. -1.
         22    1    1    2    0    0  0.11399918195E-01  0.12274369654E-01  0.21902852564E-01  0.27574503363E-01  0.00000000000E+00 0.  1.
         -4    1    1    2    0  501 -0.99443558328E+00 -0.10001360603E+01  0.24384614156E+01  0.31546264983E+01  0.14200000000E+01 0.  1.
<mgrwt>
<rscale>  0 0.20013931E+01</rscale>
<asrwt>0</asrwt>
<pdfrwt beam="1">  1       11 0.10000000E+01 0.14103943E+01</pdfrwt>
<pdfrwt beam="2">  1       -4 0.99921509E+00 0.20013931E+01</pdfrwt>
<totfact> 0.20450602E-10</totfact>
</mgrwt>
</event>
<event>
 5    1  0.2028858E-012  0.2000713E+01  0.7818608E-02  0.3998195E+00
         11   -1    0    0    0    0  0.00000000000E+00  0.00000000000E+00  0.39999999681E+01  0.40000000007E+01  0.51100000000E-03 0.  1.
         -4   -1    0    0    0  501 -0.00000000000E+00 -0.00000000000E+00  0.23811663882E+00  0.14398262165E+01  0.14200000000E+01 0.  1.
         11    1    1    2    0    0 -0.79823015109E+00  0.11453873516E+01  0.17098160264E+01  0.22073863877E+01  0.51100000000E-03 0.  1.
         22    1    1    2    0    0 -0.75554875030E-02  0.10970089683E-01  0.15983138883E-01  0.20805984418E-01  0.00000000000E+00 0.  1.
         -4    1    1    2    0  501  0.80578563859E+00 -0.11563574413E+01  0.25123174416E+01  0.32116338451E+01  0.14200000000E+01 0.  1.
<mgrwt>
<rscale>  0 0.20007131E+01</rscale>
<asrwt>0</asrwt>
<pdfrwt beam="1">  1       11 0.10000000E+01 0.14094185E+01</pdfrwt>
<pdfrwt beam="2">  1       -4 0.99803917E+00 0.20007131E+01</pdfrwt>
<totfact> 0.48223351E-10</totfact>
</mgrwt>
</event>
<event>
 5    1  0.2028858E-012  0.2000760E+01  0.7818608E-02  0.3998135E+00
         11   -1    0    0    0    0  0.00000000000E+00  0.00000000000E+00  0.39999999564E+01  0.39999999891E+01  0.51100000000E-03 0. -1.
         -4   -1    0    0    0  501 -0.00000000000E+00 -0.00000000000E+00  0.23788708314E+00  0.14397882707E+01  0.14200000000E+01 0. -1.
         11    1    1    2    0    0  0.25316075992E-01 -0.13085532103E+01  0.16583640502E+01  0.21126107053E+01  0.51100000000E-03 0. -1.
         22    1    1    2    0    0  0.32054825986E-02 -0.10064066494E+00  0.12648884217E+00  0.16167326851E+00  0.00000000000E+00 0.  1.
         -4    1    1    2    0  501 -0.28521558591E-01  0.14091938752E+01  0.24530341472E+01  0.31655042860E+01  0.14200000000E+01 0. -1.
<mgrwt>
<rscale>  0 0.20007601E+01</rscale>
<asrwt>0</asrwt>
<pdfrwt beam="1">  1       11 0.10000000E+01 0.14094920E+01</pdfrwt>
<pdfrwt beam="2">  1       -4 0.99817071E+00 0.20007601E+01</pdfrwt>
<totfact> 0.45278538E-10</totfact>
</mgrwt>
</event>
<event>
 5    1  0.2028858E-012  0.2000334E+01  0.7818608E-02  0.3998676E+00
         11   -1    0    0    0    0  0.00000000000E+00  0.00000000000E+00  0.39999999681E+01  0.40000000007E+01  0.51100000000E-03 0. -1.
          4   -1    0    0  501    0 -0.00000000000E+00 -0.00000000000E+00  0.23911066807E+00  0.14399909415E+01  0.14200000000E+01 0.  1.
         11    1    1    2    0    0  0.13952748065E+01  0.97318703645E-01  0.17602036593E+01  0.22482392886E+01  0.51100000000E-03 0. -1.
         22    1    1    2    0    0  0.10182932942E-01  0.78296115535E-03  0.12658352786E-01  0.16264656367E-01  0.00000000000E+00 0.  1.
          4    1    1    2  501    0 -0.14054577394E+01 -0.98101664801E-01  0.24662486241E+01  0.31754869972E+01  0.14200000000E+01 0.  1.
<mgrwt>
<rscale>  0 0.20003338E+01</rscale>
<asrwt>0</asrwt>
<pdfrwt beam="1">  1       11 0.10000000E+01 0.14088784E+01</pdfrwt>
<pdfrwt beam="2">  1        4 0.99746984E+00 0.20003338E+01</pdfrwt>
<totfact> 0.60503982E-10</totfact>
</mgrwt>
</event>
<event>
 5    1  0.2028858E-012  0.2001421E+01  0.7818608E-02  0.3997298E+00
         11   -1    0    0    0    0  0.00000000000E+00  0.00000000000E+00  0.39999999635E+01  0.39999999961E+01  0.51100000000E-03 0. -1.
         -4   -1    0    0    0  501 -0.00000000000E+00 -0.00000000000E+00  0.23629487876E+00  0.14395260573E+01  0.14200000000E+01 0. -1.
         11    1    1    2    0    0 -0.74684951861E+00  0.11372497064E+01  0.17188392811E+01  0.21921518728E+01  0.51100000000E-03 0. -1.
         22    1    1    2    0    0 -0.27584700523E-01  0.41536772427E-01  0.63593482740E-01  0.80810582312E-01  0.00000000000E+00 0.  1.
         -4    1    1    2    0  501  0.77443421913E+00 -0.11787864788E+01  0.24538620784E+01  0.31665635984E+01  0.14200000000E+01 0. -1.
<mgrwt>
<rscale>  0 0.20014210E+01</rscale>
<asrwt>0</asrwt>
<pdfrwt beam="1">  1       11 0.10000000E+01 0.14104225E+01</pdfrwt>
<pdfrwt beam="2">  1       -4 0.99908379E+00 0.20014210E+01</pdfrwt>
<totfact> 0.23721430E-10</totfact>
</mgrwt>
</event>
<event>
 5    1  0.2028858E-012  0.2000010E+01  0.7818608E-02  0.3999086E+00
         11   -1    0    0    0    0  0.00000000000E+00  0.00000000000E+00  0.39999999574E+01  0.39999999901E+01  0.51100000000E-03 0.  1.
          4   -1    0    0  501    0 -0.00000000000E+00 -0.00000000000E+00  0.23978382137E+00  0.14401028717E+01  0.14200000000E+01 0.  1.
         11    1    1    2    0    0  0.19864200657E+00 -0.12297031346E+01  0.15767411309E+01  0.20094131733E+01  0.51100000000E-03 0.  1.
         22    1    1    2    0    0  0.26564506709E-01 -0.16059286706E+00  0.20631735837E+00  0.26279763000E+00  0.00000000000E+00 0. -1.
          4    1    1    2  501    0 -0.22520651328E+00  0.13902960016E+01  0.24567252895E+01  0.31678920584E+01  0.14200000000E+01 0.  1.
<mgrwt>
<rscale>  0 0.20000102E+01</rscale>
<asrwt>0</asrwt>
<pdfrwt beam="1">  1       11 0.10000000E+01 0.14084191E+01</pdfrwt>
<pdfrwt beam="2">  1        4 0.99708454E+00 0.20000102E+01</pdfrwt>
<totfact> 0.68401191E-10</totfact>
</mgrwt>
</event>
<event>
 5    1  0.2028858E-012  0.2000034E+01  0.7818608E-02  0.3999055E+00
         11   -1    0    0    0    0  0.00000000000E+00  0.00000000000E+00  0.39999999515E+01  0.39999999842E+01  0.51100000000E-03 0.  1.
         -4   -1    0    0    0  501 -0.00000000000E+00 -0.00000000000E+00  0.23993854068E+00  0.14401286412E+01  0.14200000000E+01 0. -1.
         11    1    1    2    0    0 -0.13581601311E+01 -0.12663616680E+00  0.17046630784E+01  0.21832343284E+01  0.51100000000E-03 0.  1.
         22    1    1    2    0    0 -0.44172915891E-01 -0.45126686423E-02  0.54165854615E-01  0.70039635084E-01  0.00000000000E+00 0.  1.
         -4    1    1    2    0  501  0.14023330470E+01  0.13114883544E+00  0.24811095592E+01  0.31868546620E+01  0.14200000000E+01 0. -1.
<mgrwt>
<rscale>  0 0.20000345E+01</rscale>
<asrwt>0</asrwt>
<pdfrwt beam="1">  1       11 0.10000000E+01 0.14084617E+01</pdfrwt>
<pdfrwt beam="2">  1       -4 0.99699601E+00 0.20000345E+01</pdfrwt>
<totfact> 0.70177994E-10</totfact>
</mgrwt>
</event>
<event>
 5    1  0.2028858E-012  0.2000105E+01  0.7818608E-02  0.3998966E+00
         11   -1    0    0    0    0  0.00000000000E+00  0.00000000000E+00  0.39999999604E+01  0.39999999931E+01  0.51100000000E-03 0. -1.
         -4   -1    0    0    0  501 -0.00000000000E+00 -0.00000000000E+00  0.23975947272E+00  0.14400988177E+01  0.14200000000E+01 0.  1.
         11    1    1    2    0    0 -0.56236872817E+00  0.11428596426E+01  0.15938955956E+01  0.20403161961E+01  0.51100000000E-03 0. -1.
         22    1    1    2    0    0 -0.60107435563E-01  0.12068373166E+00  0.16811141985E+00  0.21549690574E+00  0.00000000000E+00 0.  1.
         -4    1    1    2    0  501  0.62247616373E+00 -0.12635433743E+01  0.24777524177E+01  0.31842857090E+01  0.14200000000E+01 0.  1.
<mgrwt>
<rscale>  0 0.20001046E+01</rscale>
<asrwt>0</asrwt>
<pdfrwt beam="1">  1       11 0.10000000E+01 0.14085539E+01</pdfrwt>
<pdfrwt beam="2">  1       -4 0.99709847E+00 0.20001046E+01</pdfrwt>
<totfact> 0.68127555E-10</totfact>
</mgrwt>
</event>
<event>
 5    1  0.2028858E-012  0.2001453E+01  0.7818608E-02  0.3997258E+00
         11   -1    0    0    0    0  0.00000000000E+00  0.00000000000E+00  0.39999999515E+01  0.39999999841E+01  0.51100000000E-03 0. -1.
          4   -1    0    0  501    0 -0.00000000000E+00 -0.00000000000E+00  0.23557220372E+00  0.14394076084E+01  0.14200000000E+01 0. -1.
         11    1    1    2    0    0  0.55520264148E+00 -0.12798992161E+01  0.16812198933E+01  0.21846950743E+01  0.51100000000E-03 0. -1.
         22    1    1    2    0    0  0.65582900107E-02 -0.13869549877E-01  0.15333411649E-01  0.21690760578E-01  0.00000000000E+00 0.  1.
          4    1    1    2  501    0 -0.56176093149E+00  0.12937687660E+01  0.25390188502E+01  0.32330217577E+01  0.14200000000E+01 0. -1.
<mgrwt>
<rscale>  0 0.20014527E+01</rscale>
<asrwt>0</asrwt>
<pdfrwt beam="1">  1       11 0.10000000E+01 0.14106195E+01</pdfrwt>
<pdfrwt beam="2">  1        4 0.99949860E+00 0.20014527E+01</pdfrwt>
<totfact> 0.13244720E-10</totfact>
</mgrwt>
</event>
<event>
 5    1  0.2028858E-012  0.2000044E+01  0.7818608E-02  0.3999043E+00
         11   -1    0    0    0    0  0.00000000000E+00  0.00000000000E+00  0.39999999585E+01  0.39999999912E+01  0.51100000000E-03 0. -1.
          4   -1    0    0  501    0 -0.00000000000E+00 -0.00000000000E+00  0.23856489322E+00  0.14399004161E+01  0.14200000000E+01 0. -1.
         11    1    1    2    0    0  0.12829828888E+01 -0.14633418315E+00  0.16737950205E+01  0.21140124923E+01  0.51100000000E-03 0. -1.
         22    1    1    2    0    0  0.11674743067E+00 -0.10290683213E-01  0.15209343186E+00  0.19201112661E+00  0.00000000000E+00 0. -1.
          4    1    1    2  501    0 -0.13997303195E+01  0.15662486636E+00  0.24126763995E+01  0.31338767883E+01  0.14200000000E+01 0. -1.
<mgrwt>
<rscale>  0 0.20000441E+01</rscale>
<asrwt>0</asrwt>
<pdfrwt beam="1">  1       11 0.10000000E+01 0.14085014E+01</pdfrwt>
<pdfrwt beam="2">  1        4 0.99778237E+00 0.20000441E+01</pdfrwt>
<totfact> 0.53822397E-10</totfact>
</mgrwt>
</event>
<event>
 5    1  0.2028858E-012  0.2000485E+01  0.7818608E-02  0.3998484E+00
         11   -1    0    0    0    0  0.00000000000E+00  0.00000000000E+00  0.39999999714E+01  0.40000000040E+01  0.51100000000E-03 0.  1.
         -4   -1    0    0    0  501 -0.00000000000E+00 -0.00000000000E+00  0.23766014592E+00  0.14397507927E+01  0.14200000000E+01 0.  1.
         11    1    1    2    0    0 -0.63167483463E+00 -0.97183137284E+00  0.14153161401E+01  0.18293685663E+01  0.51100000000E-03 0.  1.
         22    1    1    2    0    0 -0.13666214033E+00 -0.20935348563E+00  0.28067330373E+00  0.37587621097E+00  0.00000000000E+00 0. -1.
         -4    1    1    2    0  501  0.76833697497E+00  0.11811848585E+01  0.25416706735E+01  0.32345060194E+01  0.14200000000E+01 0.  1.
<mgrwt>
<rscale>  0 0.20004848E+01</rscale>
<asrwt>0</asrwt>
<pdfrwt beam="1">  1       11 0.10000000E+01 0.14095128E+01</pdfrwt>
<pdfrwt beam="2">  1       -4 0.99830079E+00 0.20004848E+01</pdfrwt>
<totfact> 0.42311278E-10</totfact>
</mgrwt>
</event>
<event>
 5    1  0.2028858E-012  0.2000576E+01  0.7818608E-02  0.3998368E+00
         11   -1    0    0    0    0  0.00000000000E+00  0.00000000000E+00  0.39999999569E+01  0.39999999896E+01  0.51100000000E-03 0. -1.
          4   -1    0    0  501    0 -0.00000000000E+00 -0.00000000000E+00  0.23832571372E+00  0.14398608078E+01  0.14200000000E+01 0. -1.
         11    1    1    2    0    0  0.66032010085E+00  0.10590576148E+01  0.15245683398E+01  0.19702625588E+01  0.51100000000E-03 0. -1.
         22    1    1    2    0    0  0.85638568897E-01  0.13653914344E+00  0.19330142918E+00  0.25167905097E+00  0.00000000000E+00 0.  1.
          4    1    1    2  501    0 -0.74595866975E+00 -0.11955967582E+01  0.25204559017E+01  0.32179191876E+01  0.14200000000E+01 0. -1.
<mgrwt>
<rscale>  0 0.20005764E+01</rscale>
<asrwt>0</asrwt>
<pdfrwt beam="1">  1       11 0.10000000E+01 0.14092374E+01</pdfrwt>
<pdfrwt beam="2">  1        4 0.99791938E+00 0.20005764E+01</pdfrwt>
<totfact> 0.50864971E-10</totfact>
</mgrwt>
</event>
<event>
 5    1  0.2028858E-012  0.2000589E+01  0.7818608E-02  0.3998352E+00
         11   -1    0    0    0    0  0.00000000000E+00  0.00000000000E+00  0.39999999590E+01  0.39999999916E+01  0.51100000000E-03 0.  1.
         -4   -1    0    0    0  501 -0.00000000000E+00 -0.00000000000E+00  0.23766105213E+00  0.14397509422E+01  0.14200000000E+01 0.  1.
         11    1    1    2    0    0 -0.25688474581E+00 -0.12599249180E+01  0.15406660587E+01  0.20067517876E+01  0.51100000000E-03 0.  1.
         22    1    1    2    0    0 -0.25932340829E-01 -0.12064409443E+00  0.14948142130E+00  0.19383544344E+00  0.00000000000E+00 0.  1.
         -4    1    1    2    0  501  0.28281708664E+00  0.13805690124E+01  0.25475135311E+01  0.32391637028E+01  0.14200000000E+01 0.  1.
<mgrwt>
<rscale>  0 0.20005890E+01</rscale>
<asrwt>0</asrwt>
<pdfrwt beam="1">  1       11 0.10000000E+01 0.14092507E+01</pdfrwt>
<pdfrwt beam="2">  1       -4 0.99830026E+00 0.20005890E+01</pdfrwt>
<totfact> 0.42328377E-10</totfact>
</mgrwt>
</event>
<event>
 5    1  0.2028858E-012  0.2001671E+01  0.7818608E-02  0.3996982E+00
         11   -1    0    0    0    0  0.00000000000E+00  0.00000000000E+00  0.39999999539E+01  0.39999999865E+01  0.51100000000E-03 0. -1.
         -4   -1    0    0    0  501 -0.00000000000E+00 -0.00000000000E+00  0.23572142508E+00  0.14394320374E+01  0.14200000000E+01 0. -1.
         11    1    1    2    0    0  0.12587964313E+01 -0.41459281542E+00  0.16714061131E+01  0.21330856322E+01  0.51100000000E-03 0. -1.
         22    1    1    2    0    0  0.81066659268E-01 -0.27053906450E-01  0.10804291699E+00  0.13775699260E+00  0.00000000000E+00 0. -1.
         -4    1    1    2    0  501 -0.13398630906E+01  0.44164672187E+00  0.24562723488E+01  0.31685893991E+01  0.14200000000E+01 0. -1.
<mgrwt>
<rscale>  0 0.20016705E+01</rscale>
<asrwt>0</asrwt>
<pdfrwt beam="1">  1       11 0.10000000E+01 0.14107755E+01</pdfrwt>
<pdfrwt beam="2">  1       -4 0.99941293E+00 0.20016705E+01</pdfrwt>
<totfact> 0.15447918E-10</totfact>
</mgrwt>
</event>
<event>
 5    1  0.2028858E-012  0.2000606E+01  0.7818608E-02  0.3998331E+00
         11   -1    0    0    0    0  0.00000000000E+00  0.00000000000E+00  0.39999999652E+01  0.39999999979E+01  0.51100000000E-03 0. -1.
          4   -1    0    0  501    0 -0.00000000000E+00 -0.00000000000E+00  0.23731144014E+00  0.14396932728E+01  0.14200000000E+01 0. -1.
         11    1    1    2    0    0  0.99069568872E+00  0.67889560135E+00  0.14934370822E+01  0.19164372583E+01  0.51100000000E-03 0. -1.
         22    1    1    2    0    0  0.16084492379E+00  0.13349425200E+00  0.23907094249E+00  0.31756372647E+00  0.00000000000E+00 0. -1.
          4    1    1    2  501    0 -0.11515406125E+01 -0.81238985335E+00  0.25048033807E+01  0.32056922859E+01  0.14200000000E+01 0. -1.
<mgrwt>
<rscale>  0 0.20006057E+01</rscale>
<asrwt>0</asrwt>
<pdfrwt beam="1">  1       11 0.10000000E+01 0.14103823E+01</pdfrwt>
<pdfrwt beam="2">  1        4 0.99850069E+00 0.20006057E+01</pdfrwt>
<totfact> 0.37702053E-10</totfact>
</mgrwt>
</event>
<event>
 5    1  0.2028858E-012  0.2000571E+01  0.7818608E-02  0.3998375E+00
         11   -1    0    0    0    0  0.00000000000E+00  0.00000000000E+00  0.39999999462E+01  0.39999999788E+01  0.51100000000E-03 0. -1.
          4   -1    0    0  501    0 -0.00000000000E+00 -0.00000000000E+00  0.23708574144E+00  0.14396560870E+01  0.14200000000E+01 0. -1.
         11    1    1    2    0    0  0.74471514854E+00 -0.10294452135E+01  0.16465508118E+01  0.20797807425E+01  0.51100000000E-03 0. -1.
         22    1    1    2    0    0  0.79817948929E-01 -0.11337183743E+00  0.18386744034E+00  0.23028528853E+00  0.00000000000E+00 0. -1.
          4    1    1    2  501    0 -0.82453309747E+00  0.11428170509E+01  0.24066674355E+01  0.31295900348E+01  0.14200000000E+01 0. -1.
<mgrwt>
<rscale>  0 0.20005713E+01</rscale>
<asrwt>0</asrwt>
<pdfrwt beam="1">  1       11 0.10000000E+01 0.14092459E+01</pdfrwt>
<pdfrwt beam="2">  1        4 0.99863010E+00 0.20005713E+01</pdfrwt>
<totfact> 0.34662779E-10</totfact>
</mgrwt>
</event>
<event>
 5    1  0.2028858E-012  0.2000149E+01  0.7818608E-02  0.3998910E+00
         11   -1    0    0    0    0  0.00000000000E+00  0.00000000000E+00  0.39999999626E+01  0.39999999952E+01  0.51100000000E-03 0.  1.
          4   -1    0    0  501    0 -0.00000000000E+00 -0.00000000000E+00  0.23916653180E+00  0.14400002187E+01  0.14200000000E+01 0.  1.
         11    1    1    2    0    0  0.11742785593E+01  0.75592155452E+00  0.17787141293E+01  0.22614534588E+01  0.51100000000E-03 0.  1.
         22    1    1    2    0    0  0.10884974640E-01  0.53820194652E-02  0.15332467832E-01  0.19558460478E-01  0.00000000000E+00 0. -1.
          4    1    1    2  501    0 -0.11851635339E+01 -0.76130357399E+00  0.24451198973E+01  0.31589882947E+01  0.14200000000E+01 0.  1.
<mgrwt>
<rscale>  0 0.20001489E+01</rscale>
<asrwt>0</asrwt>
<pdfrwt beam="1">  1       11 0.10000000E+01 0.14086917E+01</pdfrwt>
<pdfrwt beam="2">  1        4 0.99743785E+00 0.20001489E+01</pdfrwt>
<totfact> 0.61160936E-10</totfact>
</mgrwt>
</event>
<event>
 5    1  0.2028858E-012  0.2000772E+01  0.7818608E-02  0.3998120E+00
         11   -1    0    0    0    0  0.00000000000E+00  0.00000000000E+00  0.39999999653E+01  0.39999999979E+01  0.51100000000E-03 0. -1.
          4   -1    0    0  501    0 -0.00000000000E+00 -0.00000000000E+00  0.23759752474E+00  0.14397404571E+01  0.14200000000E+01 0.  1.
         11    1    1    2    0    0  0.10036775232E+01 -0.96841290763E+00  0.16896544588E+01  0.21909186615E+01  0.51100000000E-03 0. -1.
         22    1    1    2    0    0  0.11258268315E-01 -0.96437687322E-02  0.20756438122E-01  0.25506481614E-01  0.00000000000E+00 0. -1.
          4    1    1    2  501    0 -0.10149357915E+01  0.97805667636E+00  0.25271865931E+01  0.32233153119E+01  0.14200000000E+01 0.  1.
<mgrwt>
<rscale>  0 0.20007722E+01</rscale>
<asrwt>0</asrwt>
<pdfrwt beam="1">  1       11 0.10000000E+01 0.14096230E+01</pdfrwt>
<pdfrwt beam="2">  1        4 0.99833668E+00 0.20007722E+01</pdfrwt>
<totfact> 0.41503566E-10</totfact>
</mgrwt>
</event>
<event>
 5    1  0.2028858E-012  0.2000301E+01  0.7818608E-02  0.3998717E+00
         11   -1    0    0    0    0  0.00000000000E+00  0.00000000000E+00  0.39999999617E+01  0.39999999943E+01  0.51100000000E-03 0. -1.
          4   -1    0    0  501    0 -0.00000000000E+00 -0.00000000000E+00  0.23752079310E+00  0.14397277962E+01  0.14200000000E+01 0. -1.
         11    1    1    2    0    0  0.97921798927E+00 -0.30625415271E-01  0.12795063582E+01  0.16115032014E+01  0.51100000000E-03 0. -1.
         22    1    1    2    0    0  0.42891870084E+00 -0.13609274401E-01  0.55753044991E+00  0.70355999521E+00  0.00000000000E+00 0. -1.
          4    1    1    2  501    0 -0.14081366901E+01  0.44234689673E-01  0.24004839467E+01  0.31246645939E+01  0.14200000000E+01 0. -1.
<mgrwt>
<rscale>  0 0.20003014E+01</rscale>
<asrwt>0</asrwt>
<pdfrwt beam="1">  1       11 0.10000000E+01 0.14088340E+01</pdfrwt>
<pdfrwt beam="2">  1        4 0.99838067E+00 0.20003014E+01</pdfrwt>
<totfact> 0.40469802E-10</totfact>
</mgrwt>
</event>
<event>
 5    1  0.2028858E-012  0.2000303E+01  0.7818608E-02  0.3998715E+00
         11   -1    0    0    0    0  0.00000000000E+00  0.00000000000E+00  0.39999999589E+01  0.39999999916E+01  0.51100000000E-03 0. -1.
         -4   -1    0    0    0  501 -0.00000000000E+00 -0.00000000000E+00  0.23821031841E+00  0.14398417121E+01  0.14200000000E+01 0. -1.
         11    1    1    2    0    0 -0.48890126854E+00  0.11434860289E+01  0.15564169688E+01  0.19922396418E+01  0.51100000000E-03 0. -1.
         22    1    1    2    0    0 -0.48166379789E-01  0.15896151289E+00  0.19497966366E+00  0.25613635424E+00  0.00000000000E+00 0.  1.
         -4    1    1    2    0  501  0.53706764833E+00 -0.13024475418E+01  0.24868136449E+01  0.31914657076E+01  0.14200000000E+01 0. -1.
<mgrwt>
<rscale>  0 0.20003028E+01</rscale>
<asrwt>0</asrwt>
<pdfrwt beam="1">  1       11 0.10000000E+01 0.14098959E+01</pdfrwt>
<pdfrwt beam="2">  1       -4 0.99798550E+00 0.20003028E+01</pdfrwt>
<totfact> 0.49391162E-10</totfact>
</mgrwt>
</event>
<event>
 5    1  0.2028858E-012  0.2000700E+01  0.7818608E-02  0.3998211E+00
         11   -1    0    0    0    0  0.00000000000E+00  0.00000000000E+00  0.39999999608E+01  0.39999999934E+01  0.51100000000E-03 0.  1.
          4   -1    0    0  501    0 -0.00000000000E+00 -0.00000000000E+00  0.23655809161E+00  0.14395692865E+01  0.14200000000E+01 0.  1.
         11    1    1    2    0    0 -0.11824400138E+01 -0.17439924220E+00  0.14146651940E+01  0.18519874066E+01  0.51100000000E-03 0.  1.
         22    1    1    2    0    0 -0.21151488812E+00 -0.33664828559E-01  0.25201386494E+00  0.33073079189E+00  0.00000000000E+00 0.  1.
          4    1    1    2  501    0  0.13939549019E+01  0.20806407076E+00  0.25698789935E+01  0.32568510815E+01  0.14200000000E+01 0.  1.
<mgrwt>
<rscale>  0 0.20007001E+01</rscale>
<asrwt>0</asrwt>
<pdfrwt beam="1">  1       11 0.10000000E+01 0.14094118E+01</pdfrwt>
<pdfrwt beam="2">  1        4 0.99893276E+00 0.20007001E+01</pdfrwt>
<totfact> 0.27406930E-10</totfact>
</mgrwt>
</event>
<event>
 5    1  0.2028858E-012  0.2000594E+01  0.7818608E-02  0.3998345E+00
         11   -1    0    0    0    0  0.00000000000E+00  0.00000000000E+00  0.39999999637E+01  0.39999999963E+01  0.51100000000E-03 0.  1.
          4   -1    0    0  501    0 -0.00000000000E+00 -0.00000000000E+00  0.23674554070E+00  0.14396001011E+01  0.14200000000E+01 0.  1.
         11    1    1    2    0    0  0.10238472560E+01  0.90204365261E+00  0.17790278544E+01  0.22420718817E+01  0.51100000000E-03 0.  1.
         22    1    1    2    0    0  0.33671490702E-01  0.29424193371E-01  0.59064674776E-01  0.74082307254E-01  0.00000000000E+00 0. -1.
          4    1    1    2  501    0 -0.10575187467E+01 -0.93146784598E+00  0.23986529752E+01  0.31234459085E+01  0.14200000000E+01 0.  1.
<mgrwt>
<rscale>  0 0.20005945E+01</rscale>
<asrwt>0</asrwt>
<pdfrwt beam="1">  1       11 0.10000000E+01 0.14092502E+01</pdfrwt>
<pdfrwt beam="2">  1        4 0.99882523E+00 0.20005945E+01</pdfrwt>
<totfact> 0.30008199E-10</totfact>
</mgrwt>
</event>
<event>
 5    1  0.2028858E-012  0.2000926E+01  0.7818608E-02  0.3997925E+00
         11   -1    0    0    0    0  0.00000000000E+00  0.00000000000E+00  0.39999999616E+01  0.39999999942E+01  0.51100000000E-03 0. -1.
          4   -1    0    0  501    0 -0.00000000000E+00 -0.00000000000E+00  0.23716081205E+00  0.14396684517E+01  0.14200000000E+01 0. -1.
         11    1    1    2    0    0 -0.40785565944E+00 -0.27111660662E+00  0.60042101582E+00  0.77482650360E+00  0.51100000000E-03 0. -1.
         22    1    1    2    0    0 -0.79371837905E+00 -0.46612519874E+00  0.11324192332E+01  0.14593268605E+01  0.00000000000E+00 0. -1.
          4    1    1    2  501    0  0.12015740385E+01  0.73724180536E+00  0.25043205247E+01  0.32055150818E+01  0.14200000000E+01 0. -1.
<mgrwt>
<rscale>  0 0.20009262E+01</rscale>
<asrwt>0</asrwt>
<pdfrwt beam="1">  1       11 0.10000000E+01 0.14102156E+01</pdfrwt>
<pdfrwt beam="2">  1        4 0.99858706E+00 0.20009262E+01</pdfrwt>
<totfact> 0.35692576E-10</totfact>
</mgrwt>
</event>
<event>
 5    1  0.2028858E-012  0.2000271E+01  0.7818608E-02  0.3998755E+00
         11   -1    0    0    0    0  0.00000000000E+00  0.00000000000E+00  0.39999999511E+01  0.39999999837E+01  0.51100000000E-03 0.  1.
         -4   -1    0    0    0  501 -0.00000000000E+00 -0.00000000000E+00  0.23591382611E+00  0.14394635575E+01  0.14200000000E+01 0.  1.
         11    1    1    2    0    0  0.11006282898E+01  0.61893036328E-01  0.12774109084E+01  0.16873032538E+01  0.51100000000E-03 0.  1.
         22    1    1    2    0    0  0.30601472511E+00  0.15820054298E-01  0.35451484946E+00  0.46858944140E+00  0.00000000000E+00 0. -1.
         -4    1    1    2    0  501 -0.14066430149E+01 -0.77713090626E-01  0.26039880193E+01  0.32835708460E+01  0.14200000000E+01 0.  1.
<mgrwt>
<rscale>  0 0.20002710E+01</rscale>
<asrwt>0</asrwt>
<pdfrwt beam="1">  1       11 0.10000000E+01 0.14087915E+01</pdfrwt>
<pdfrwt beam="2">  1       -4 0.99930248E+00 0.20002710E+01</pdfrwt>
<totfact> 0.18225731E-10</totfact>
</mgrwt>
</event>
<event>
 5    1  0.2028858E-012  0.2000915E+01  0.7818608E-02  0.3997939E+00
         11   -1    0    0    0    0  0.00000000000E+00  0.00000000000E+00  0.39999999588E+01  0.39999999914E+01  0.51100000000E-03 0. -1.
         -4   -1    0    0    0  501 -0.00000000000E+00 -0.00000000000E+00  0.23599689221E+00  0.14394771735E+01  0.14200000000E+01 0.  1.
         11    1    1    2    0    0 -0.86638284366E-01  0.70684480869E+00  0.92381711188E+00  0.11664364934E+01  0.51100000000E-03 0. -1.
         22    1    1    2    0    0 -0.78432349949E-01  0.69316028399E+00  0.91257246307E+00  0.11486563077E+01  0.00000000000E+00 0. -1.
         -4    1    1    2    0  501  0.16507063432E+00 -0.14000050927E+01  0.23996072761E+01  0.31243843639E+01  0.14200000000E+01 0.  1.
<mgrwt>
<rscale>  0 0.20009154E+01</rscale>
<asrwt>0</asrwt>
<pdfrwt beam="1">  1       11 0.10000000E+01 0.14097262E+01</pdfrwt>
<pdfrwt beam="2">  1       -4 0.99925480E+00 0.20009154E+01</pdfrwt>
<totfact> 0.19441922E-10</totfact>
</mgrwt>
</event>
<event>
 5    1  0.2028858E-012  0.2000418E+01  0.7818608E-02  0.3998569E+00
         11   -1    0    0    0    0  0.00000000000E+00  0.00000000000E+00  0.39999999630E+01  0.39999999956E+01  0.51100000000E-03 0. -1.
          4   -1    0    0  501    0 -0.00000000000E+00 -0.00000000000E+00  0.23637209276E+00  0.14395387338E+01  0.14200000000E+01 0. -1.
         11    1    1    2    0    0  0.20412514451E+00  0.13088192435E+01  0.17441706222E+01  0.21901612515E+01  0.51100000000E-03 0. -1.
         22    1    1    2    0    0  0.11944893500E-01  0.83511337084E-01  0.11124540789E+00  0.13961505893E+00  0.00000000000E+00 0.  1.
          4    1    1    2  501    0 -0.21607003801E+00 -0.13923305806E+01  0.23809560256E+01  0.31097624190E+01  0.14200000000E+01 0. -1.
<mgrwt>
<rscale>  0 0.20004176E+01</rscale>
<asrwt>0</asrwt>
<pdfrwt beam="1">  1       11 0.10000000E+01 0.14090028E+01</pdfrwt>
<pdfrwt beam="2">  1        4 0.99903948E+00 0.20004176E+01</pdfrwt>
<totfact> 0.24785497E-10</totfact>
</mgrwt>
</event>
<event>
 5    1  0.2028858E-012  0.2000317E+01  0.7818608E-02  0.3998697E+00
         11   -1    0    0    0    0  0.00000000000E+00  0.00000000000E+00  0.39999999596E+01  0.39999999922E+01  0.51100000000E-03 0. -1.
         -4   -1    0    0    0  501 -0.00000000000E+00 -0.00000000000E+00  0.23892279452E+00  0.14399597570E+01  0.14200000000E+01 0. -1.
         11    1    1    2    0    0  0.23245285873E+00  0.23712030514E+00  0.41232893217E+00  0.52941078575E+00  0.51100000000E-03 0. -1.
         22    1    1    2    0    0  0.75472924882E+00  0.76803600938E+00  0.13734828842E+01  0.17452652474E+01  0.00000000000E+00 0. -1.
         -4    1    1    2    0  501 -0.98718210755E+00 -0.10051563145E+01  0.24531109378E+01  0.31652837160E+01  0.14200000000E+01 0. -1.
<mgrwt>
<rscale>  0 0.20003169E+01</rscale>
<asrwt>0</asrwt>
<pdfrwt beam="1">  1       11 0.10000000E+01 0.14089099E+01</pdfrwt>
<pdfrwt beam="2">  1       -4 0.99757741E+00 0.20003169E+01</pdfrwt>
<totfact> 0.58233688E-10</totfact>
</mgrwt>
</event>
<event>
 5    1  0.2028858E-012  0.2000324E+01  0.7818608E-02  0.3998688E+00
         11   -1    0    0    0    0  0.00000000000E+00  0.00000000000E+00  0.39999999533E+01  0.39999999860E+01  0.51100000000E-03 0. -1.
         -4   -1    0    0    0  501 -0.00000000000E+00 -0.00000000000E+00  0.23716174817E+00  0.14396686059E+01  0.14200000000E+01 0. -1.
         11    1    1    2    0    0  0.58770509160E+00  0.99489073586E+00  0.15215181310E+01  0.19105555567E+01  0.51100000000E-03 0. -1.
         22    1    1    2    0    0  0.12058330320E+00  0.22298636505E+00  0.31223453393E+00  0.40218609646E+00  0.00000000000E+00 0.  1.
         -4    1    1    2    0  501 -0.70828839480E+00 -0.12178771009E+01  0.24034090366E+01  0.31269269387E+01  0.14200000000E+01 0. -1.
<mgrwt>
<rscale>  0 0.20003242E+01</rscale>
<asrwt>0</asrwt>
<pdfrwt beam="1">  1       11 0.10000000E+01 0.14092995E+01</pdfrwt>
<pdfrwt beam="2">  1       -4 0.99858652E+00 0.20003242E+01</pdfrwt>
<totfact> 0.35679817E-10</totfact>
</mgrwt>
</event>
<event>
 5    1  0.2028858E-012  0.2001133E+01  0.7818608E-02  0.3997663E+00
         11   -1    0    0    0    0  0.00000000000E+00  0.00000000000E+00  0.39999999577E+01  0.39999999903E+01  0.51100000000E-03 0.  1.
         -4   -1    0    0    0  501 -0.00000000000E+00 -0.00000000000E+00  0.23611367149E+00  0.14394963237E+01  0.14200000000E+01 0. -1.
         11    1    1    2    0    0  0.88335673958E+00  0.34265109610E+00  0.11819429243E+01  0.15148327434E+01  0.51100000000E-03 0.  1.
         22    1    1    2    0    0  0.44173343712E+00  0.13929267612E+00  0.54512764080E+00  0.71532861249E+00  0.00000000000E+00 0.  1.
         -4    1    1    2    0  501 -0.13250901767E+01 -0.48194377222E+00  0.25090430640E+01  0.32093349581E+01  0.14200000000E+01 0. -1.
<mgrwt>
<rscale>  0 0.20011331E+01</rscale>
<asrwt>0</asrwt>
<pdfrwt beam="1">  1       11 0.10000000E+01 0.14109745E+01</pdfrwt>
<pdfrwt beam="2">  1       -4 0.99918777E+00 0.20011331E+01</pdfrwt>
<totfact> 0.21127664E-10</totfact>
</mgrwt>
</event>
<event>
 5    1  0.2028858E-012  0.2000248E+01  0.7818608E-02  0.3998784E+00
         11   -1    0    0    0    0  0.00000000000E+00  0.00000000000E+00  0.39999999647E+01  0.39999999974E+01  0.51100000000E-03 0.  1.
          4   -1    0    0  501    0 -0.00000000000E+00 -0.00000000000E+00  0.23924581300E+00  0.14400133885E+01  0.14200000000E+01 0.  1.
         11    1    1    2    0    0  0.11712452963E+01 -0.34554081281E+00  0.15433512501E+01  0.19680313361E+01  0.51100000000E-03 0.  1.
         22    1    1    2    0    0  0.18004989178E+00 -0.52698466845E-01  0.23598793708E+00  0.30147205241E+00  0.00000000000E+00 0. -1.
          4    1    1    2  501    0 -0.13512951881E+01  0.39823927966E+00  0.24599065905E+01  0.31705099973E+01  0.14200000000E+01 0.  1.
<mgrwt>
<rscale>  0 0.20002483E+01</rscale>
<asrwt>0</asrwt>
<pdfrwt beam="1">  1       11 0.10000000E+01 0.14087575E+01</pdfrwt>
<pdfrwt beam="2">  1        4 0.99739247E+00 0.20002483E+01</pdfrwt>
<totfact> 0.62114455E-10</totfact>
</mgrwt>
</event>
<event>
 5    1  0.2028858E-012  0.2000475E+01  0.7818608E-02  0.3998497E+00
         11   -1    0    0    0    0  0.00000000000E+00  0.00000000000E+00  0.39999999609E+01  0.39999999936E+01  0.51100000000E-03 0. -1.
         -4   -1    0    0    0  501 -0.00000000000E+00 -0.00000000000E+00  0.23837977496E+00  0.14398697570E+01  0.14200000000E+01 0. -1.
         11    1    1    2    0    0  0.70638114731E+00 -0.11522389177E+01  0.17232469097E+01  0.21900248907E+01  0.51100000000E-03 0. -1.
         22    1    1    2    0    0  0.31757290233E-01 -0.48032720031E-01  0.70203587103E-01  0.90797639389E-01  0.00000000000E+00 0. -1.
         -4    1    1    2    0  501 -0.73813843754E+00  0.12002716377E+01  0.24449292391E+01  0.31590472205E+01  0.14200000000E+01 0. -1.
<mgrwt>
<rscale>  0 0.20004750E+01</rscale>
<asrwt>0</asrwt>
<pdfrwt beam="1">  1       11 0.10000000E+01 0.14091440E+01</pdfrwt>
<pdfrwt beam="2">  1       -4 0.99788841E+00 0.20004750E+01</pdfrwt>
<totfact> 0.51538581E-10</totfact>
</mgrwt>
</event>
<event>
 5    1  0.2028858E-012  0.2000267E+01  0.7818608E-02  0.3998760E+00
         11   -1    0    0    0    0  0.00000000000E+00  0.00000000000E+00  0.39999999600E+01  0.39999999927E+01  0.51100000000E-03 0.  1.
         -4   -1    0    0    0  501 -0.00000000000E+00 -0.00000000000E+00  0.23624929037E+00  0.14395185748E+01  0.14200000000E+01 0.  1.
         11    1    1    2    0    0  0.94758353663E+00  0.81884760595E+00  0.16627985420E+01  0.20816640490E+01  0.51100000000E-03 0.  1.
         22    1    1    2    0    0  0.11630661287E+00  0.10462745265E+00  0.20060279234E+00  0.25439263422E+00  0.00000000000E+00 0. -1.
         -4    1    1    2    0  501 -0.10638901495E+01 -0.92347505860E+00  0.23728479161E+01  0.31034618842E+01  0.14200000000E+01 0.  1.
<mgrwt>
<rscale>  0 0.20002671E+01</rscale>
<asrwt>0</asrwt>
<pdfrwt beam="1">  1       11 0.10000000E+01 0.14088635E+01</pdfrwt>
<pdfrwt beam="2">  1       -4 0.99910995E+00 0.20002671E+01</pdfrwt>
<totfact> 0.23041270E-10</totfact>
</mgrwt>
</event>
<event>
 5    1  0.2028858E-012  0.2000175E+01  0.7818608E-02  0.3998878E+00
         11   -1    0    0    0    0  0.00000000000E+00  0.00000000000E+00  0.39999999548E+01  0.39999999875E+01  0.51100000000E-03 0.  1.
         -4   -1    0    0    0  501 -0.00000000000E+00 -0.00000000000E+00  0.23755102152E+00  0.14397327835E+01  0.14200000000E+01 0.  1.
         11    1    1    2    0    0  0.13835313493E+01  0.39418843156E-01  0.17807108179E+01  0.22553589776E+01  0.51100000000E-03 0.  1.
         22    1    1    2    0    0  0.24362810457E-01  0.67640251896E-02  0.23962442820E-01  0.34835287225E-01  0.00000000000E+00 0. -1.
         -4    1    1    2    0  501 -0.14078941598E+01 -0.46182868346E-01  0.24328777157E+01  0.31495385062E+01  0.14200000000E+01 0.  1.
<mgrwt>
<rscale>  0 0.20001747E+01</rscale>
<asrwt>0</asrwt>
<pdfrwt beam="1">  1       11 0.10000000E+01 0.14100157E+01</pdfrwt>
<pdfrwt beam="2">  1       -4 0.99836334E+00 0.20001747E+01</pdfrwt>
<totfact> 0.40862515E-10</totfact>
</mgrwt>
</event>
<event>
 5    1  0.2028858E-012  0.2000222E+01  0.7818608E-02  0.3998817E+00
         11   -1    0    0    0    0  0.00000000000E+00  0.00000000000E+00  0.39999999533E+01  0.39999999860E+01  0.51100000000E-03 0. -1.
         -4   -1    0    0    0  501 -0.00000000000E+00 -0.00000000000E+00  0.23935413812E+00  0.14400313897E+01  0.14200000000E+01 0. -1.
         11    1    1    2    0    0 -0.13597272090E+01  0.21257314966E+00  0.16877761420E+01  0.21777589383E+01  0.51100000000E-03 0. -1.
         22    1    1    2    0    0 -0.32053541394E-01  0.52222484326E-02  0.40160704963E-01  0.51648655526E-01  0.00000000000E+00 0.  1.
         -4    1    1    2    0  501  0.13917807504E+01 -0.21779539809E+00  0.25114172445E+01  0.32106237818E+01  0.14200000000E+01 0. -1.
<mgrwt>
<rscale>  0 0.20002221E+01</rscale>
<asrwt>0</asrwt>
<pdfrwt beam="1">  1       11 0.10000000E+01 0.14087209E+01</pdfrwt>
<pdfrwt beam="2">  1       -4 0.99733045E+00 0.20002221E+01</pdfrwt>
<totfact> 0.63398703E-10</totfact>
</mgrwt>
</event>
<event>
 5    1  0.2028858E-012  0.2000992E+01  0.7818608E-02  0.3997841E+00
         11   -1    0    0    0    0  0.00000000000E+00  0.00000000000E+00  0.39999999592E+01  0.39999999919E+01  0.51100000000E-03 0. -1.
          4   -1    0    0  501    0 -0.00000000000E+00 -0.00000000000E+00  0.23639053987E+00  0.14395417630E+01  0.14200000000E+01 0. -1.
         11    1    1    2    0    0 -0.10244884295E+01  0.89077536265E+00  0.16178140288E+01  0.21119611222E+01  0.51100000000E-03 0. -1.
         22    1    1    2    0    0 -0.39313570478E-01  0.34370564825E-01  0.63309010856E-01  0.82066579103E-01  0.00000000000E+00 0.  1.
          4    1    1    2  501    0  0.10638020000E+01 -0.92514592748E+00  0.25552674595E+01  0.32455140535E+01  0.14200000000E+01 0. -1.
<mgrwt>
<rscale>  0 0.20009922E+01</rscale>
<asrwt>0</asrwt>
<pdfrwt beam="1">  1       11 0.10000000E+01 0.14098173E+01</pdfrwt>
<pdfrwt beam="2">  1        4 0.99902889E+00 0.20009922E+01</pdfrwt>
<totfact> 0.25063121E-10</totfact>
</mgrwt>
</event>
<event>
 5    1  0.2028858E-012  0.2000591E+01  0.7818608E-02  0.3998350E+00
         11   -1    0    0    0    0  0.00000000000E+00  0.00000000000E+00  0.39999999612E+01  0.39999999938E+01  0.51100000000E-03 0. -1.
         -4   -1    0    0    0  501 -0.00000000000E+00 -0.00000000000E+00  0.23762533544E+00  0.14397450469E+01  0.14200000000E+01 0. -1.
         11    1    1    2    0    0 -0.25204548369E+00 -0.13400932837E+01  0.17555303009E+01  0.22228953717E+01  0.51100000000E-03 0. -1.
         22    1    1    2    0    0 -0.81092520005E-02 -0.44927578617E-01  0.58807148235E-01  0.74448156269E-01  0.00000000000E+00 0.  1.
         -4    1    1    2    0  501  0.26015473569E+00  0.13850208624E+01  0.24232878475E+01  0.31424015128E+01  0.14200000000E+01 0. -1.
<mgrwt>
<rscale>  0 0.20005907E+01</rscale>
<asrwt>0</asrwt>
<pdfrwt beam="1">  1       11 0.10000000E+01 0.14092434E+01</pdfrwt>
<pdfrwt beam="2">  1       -4 0.99832074E+00 0.20005907E+01</pdfrwt>
<totfact> 0.41860106E-10</totfact>
</mgrwt>
</event>
<event>
 5    1  0.2028858E-012  0.2000855E+01  0.7818608E-02  0.3998015E+00
         11   -1    0    0    0    0  0.00000000000E+00  0.00000000000E+00  0.39999999520E+01  0.39999999847E+01  0.51100000000E-03 0.  1.
         -4   -1    0    0    0  501 -0.00000000000E+00 -0.00000000000E+00  0.23776920592E+00  0.14397687992E+01  0.14200000000E+01 0.  1.
         11    1    1    2    0    0  0.12500941525E+01  0.61032302846E+00  0.17037432796E+01  0.21995388182E+01  0.51100000000E-03 0.  1.
         22    1    1    2    0    0  0.16595731209E-01  0.81571564340E-02  0.22249167564E-01  0.28930657661E-01  0.00000000000E+00 0. -1.
         -4    1    1    2    0  501 -0.12666898837E+01 -0.61848018490E+00  0.25117767108E+01  0.32112993080E+01  0.14200000000E+01 0.  1.
<mgrwt>
<rscale>  0 0.20008551E+01</rscale>
<asrwt>0</asrwt>
<pdfrwt beam="1">  1       11 0.10000000E+01 0.14096199E+01</pdfrwt>
<pdfrwt beam="2">  1       -4 0.99823827E+00 0.20008551E+01</pdfrwt>
<totfact> 0.43754223E-10</totfact>
</mgrwt>
</event>
<event>
 5    1  0.2028858E-012  0.2000086E+01  0.7818608E-02  0.3998990E+00
         11   -1    0    0    0    0  0.00000000000E+00  0.00000000000E+00  0.39999999540E+01  0.39999999866E+01  0.51100000000E-03 0. -1.
         -4   -1    0    0    0  501 -0.00000000000E+00 -0.00000000000E+00  0.23726174281E+00  0.14396850817E+01  0.14200000000E+01 0.  1.
         11    1    1    2    0    0  0.79595261422E+00  0.91990822058E+00  0.16017360602E+01  0.20113006653E+01  0.51100000000E-03 0. -1.
         22    1    1    2    0    0  0.12510270783E+00  0.14573745703E+00  0.25257729450E+00  0.31730960210E+00  0.00000000000E+00 0. -1.
         -4    1    1    2    0  501 -0.92105532205E+00 -0.10656456776E+01  0.23829483421E+01  0.31110748010E+01  0.14200000000E+01 0.  1.
<mgrwt>
<rscale>  0 0.20000859E+01</rscale>
<asrwt>0</asrwt>
<pdfrwt beam="1">  1       11 0.10000000E+01 0.14085268E+01</pdfrwt>
<pdfrwt beam="2">  1       -4 0.99852918E+00 0.20000859E+01</pdfrwt>
<totfact> 0.37013865E-10</totfact>
</mgrwt>
</event>
<event>
 5    1  0.2028858E-012  0.2000320E+01  0.7818608E-02  0.3998693E+00
         11   -1    0    0    0    0  0.00000000000E+00  0.00000000000E+00  0.39999999512E+01  0.39999999838E+01  0.51100000000E-03 0.  1.
         -4   -1    0    0    0  501 -0.00000000000E+00 -0.00000000000E+00  0.23902451564E+00  0.14399766384E+01  0.14200000000E+01 0.  1.
         11    1    1    2    0    0 -0.84410932003E+00 -0.89270828044E+00  0.15546873380E+01  0.19815402086E+01  0.51100000000E-03 0.  1.
         22    1    1    2    0    0 -0.12425292520E+00 -0.13059719705E+00  0.22779193149E+00  0.29048852189E+00  0.00000000000E+00 0.  1.
         -4    1    1    2    0  501  0.96836224523E+00  0.10233054775E+01  0.24565451973E+01  0.31679478917E+01  0.14200000000E+01 0.  1.
<mgrwt>
<rscale>  0 0.20003199E+01</rscale>
<asrwt>0</asrwt>
<pdfrwt beam="1">  1       11 0.10000000E+01 0.14088585E+01</pdfrwt>
<pdfrwt beam="2">  1       -4 0.99751916E+00 0.20003199E+01</pdfrwt>
<totfact> 0.59465718E-10</totfact>
</mgrwt>
</event>
<event>
 5    1  0.2028858E-012  0.2000466E+01  0.7818608E-02  0.3998509E+00
         11   -1    0    0    0    0  0.00000000000E+00  0.00000000000E+00  0.39999999639E+01  0.39999999965E+01  0.51100000000E-03 0. -1.
          4   -1    0    0  501    0 -0.00000000000E+00 -0.00000000000E+00  0.23865625651E+00  0.14399155561E+01  0.14200000000E+01 0. -1.
         11    1    1    2    0    0 -0.82497400351E+00 -0.11090809558E+01  0.17412989372E+01  0.22232329889E+01  0.51100000000E-03 0. -1.
         22    1    1    2    0    0 -0.16908922543E-01 -0.20828711279E-01  0.36460647918E-01  0.45267269873E-01  0.00000000000E+00 0.  1.
          4    1    1    2  501    0  0.84188292605E+00  0.11299096671E+01  0.24608966353E+01  0.31714152939E+01  0.14200000000E+01 0.  1.
<mgrwt>
<rscale>  0 0.20004656E+01</rscale>
<asrwt>0</asrwt>
<pdfrwt beam="1">  1       11 0.10000000E+01 0.14091360E+01</pdfrwt>
<pdfrwt beam="2">  1        4 0.99773005E+00 0.20004656E+01</pdfrwt>
<totfact> 0.54979455E-10</totfact>
</mgrwt>
</event>
<event>
 5    1  0.2028858E-012  0.2000159E+01  0.7818608E-02  0.3998898E+00
         11   -1    0    0    0    0  0.00000000000E+00  0.00000000000E+00  0.39999999539E+01  0.39999999865E+01  0.51100000000E-03 0. -1.
         -4   -1    0    0    0  501 -0.00000000000E+00 -0.00000000000E+00  0.23921000502E+00  0.14400074397E+01  0.14200000000E+01 0. -1.
         11    1    1    2    0    0  0.13826652788E+01  0.14199033001E+00  0.16862239879E+01  0.21852405189E+01  0.51100000000E-03 0. -1.
         22    1    1    2    0    0  0.18578373993E-01  0.20625219837E-02  0.23156098892E-01  0.29759282469E-01  0.00000000000E+00 0.  1.
         -4    1    1    2    0  501 -0.14012436528E+01 -0.14405285199E+00  0.25298298721E+01  0.32250076248E+01  0.14200000000E+01 0. -1.
<mgrwt>
<rscale>  0 0.20001587E+01</rscale>
<asrwt>0</asrwt>
<pdfrwt beam="1">  1       11 0.10000000E+01 0.14086326E+01</pdfrwt>
<pdfrwt beam="2">  1       -4 0.99741296E+00 0.20001587E+01</pdfrwt>
<totfact> 0.61681239E-10</totfact>
</mgrwt>
</event>
<event>
 5    1  0.2028858E-012  0.2000148E+01  0.7818608E-02  0.3998911E+00
         11   -1    0    0    0    0  0.00000000000E+00  0.00000000000E+00  0.39999999661E+01  0.39999999988E+01  0.51100000000E-03 0. -1.
          4   -1    0    0  501    0 -0.00000000000E+00 -0.00000000000E+00  0.23901463955E+00  0.14399749991E+01  0.14200000000E+01 0. -1.
         11    1    1    2    0    0  0.89413225553E+00  0.47897580722E+00  0.12254719488E+01  0.15908086223E+01  0.51100000000E-03 0. -1.
         22    1    1    2    0    0  0.34686288290E+00  0.18745110107E+00  0.47427715468E+00  0.61675813272E+00  0.00000000000E+00 0. -1.
          4    1    1    2  501    0 -0.12409951384E+01 -0.66642690829E+00  0.25392655022E+01  0.32324082428E+01  0.14200000000E+01 0. -1.
<mgrwt>
<rscale>  0 0.20001484E+01</rscale>
<asrwt>0</asrwt>
<pdfrwt beam="1">  1       11 0.10000000E+01 0.14086185E+01</pdfrwt>
<pdfrwt beam="2">  1        4 0.99752482E+00 0.20001484E+01</pdfrwt>
<totfact> 0.59334777E-10</totfact>
</mgrwt>
</event>
<event>
 5    1  0.2028858E-012  0.2000693E+01  0.7818608E-02  0.3998220E+00
         11   -1    0    0    0    0  0.00000000000E+00  0.00000000000E+00  0.39999999468E+01  0.39999999794E+01  0.51100000000E-03 0. -1.
         -4   -1    0    0    0  501 -0.00000000000E+00 -0.00000000000E+00  0.23830809397E+00  0.14398578915E+01  0.14200000000E+01 0. -1.
         11    1    1    2    0    0 -0.13425178896E+01  0.19585254144E+00  0.16955766424E+01  0.21715646233E+01  0.51100000000E-03 0. -1.
         22    1    1    2    0    0 -0.52093796481E-01  0.76957908617E-02  0.64912360129E-01  0.83585903873E-01  0.00000000000E+00 0. -1.
         -4    1    1    2    0  501  0.13946116861E+01 -0.20354833231E+00  0.24778190382E+01  0.31847073437E+01  0.14200000000E+01 0. -1.
<mgrwt>
<rscale>  0 0.20006933E+01</rscale>
<asrwt>0</asrwt>
<pdfrwt beam="1">  1       11 0.10000000E+01 0.14093908E+01</pdfrwt>
<pdfrwt beam="2">  1       -4 0.99792948E+00 0.20006933E+01</pdfrwt>
<totfact> 0.50649878E-10</totfact>
</mgrwt>
</event>
<event>
 5    1  0.2028858E-012  0.2000078E+01  0.7818608E-02  0.3999000E+00
         11   -1    0    0    0    0  0.00000000000E+00  0.00000000000E+00  0.39999999660E+01  0.39999999986E+01  0.51100000000E-03 0. -1.
         -4   -1    0    0    0  501 -0.00000000000E+00 -0.00000000000E+00  0.23984343690E+00  0.14401127991E+01  0.14200000000E+01 0. -1.
         11    1    1    2    0    0 -0.13843995165E+01  0.10286390420E+00  0.17251917711E+01  0.22143689648E+01  0.51100000000E-03 0. -1.
         22    1    1    2    0    0 -0.20207092061E-01  0.19821228817E-02  0.24873061290E-01  0.32108013932E-01  0.00000000000E+00 0. -1.
         -4    1    1    2    0  501  0.14046066086E+01 -0.10484602708E+00  0.24897785705E+01  0.31936358190E+01  0.14200000000E+01 0. -1.
<mgrwt>
<rscale>  0 0.20000781E+01</rscale>
<asrwt>0</asrwt>
<pdfrwt beam="1">  1       11 0.10000000E+01 0.14085219E+01</pdfrwt>
<pdfrwt beam="2">  1       -4 0.99705043E+00 0.20000781E+01</pdfrwt>
<totfact> 0.69092283E-10</totfact>
</mgrwt>
</event>
<event>
 5    1  0.2028858E-012  0.2001659E+01  0.7818608E-02  0.3996997E+00
         11   -1    0    0    0    0  0.00000000000E+00  0.00000000000E+00  0.39999999611E+01  0.39999999937E+01  0.51100000000E-03 0.  1.
          4   -1    0    0  501    0 -0.00000000000E+00 -0.00000000000E+00  0.23553088023E+00  0.14394008460E+01  0.14200000000E+01 0.  1.
         11    1    1    2    0    0 -0.13214431568E+01 -0.14805573290E+00  0.16116478715E+01  0.20893878623E+01  0.51100000000E-03 0.  1.
         22    1    1    2    0    0 -0.80472550548E-01 -0.96484590625E-02  0.98298247603E-01  0.12740278504E+00  0.00000000000E+00 0.  1.
          4    1    1    2  501    0  0.14019157073E+01  0.15770419196E+00  0.25255847222E+01  0.32226101923E+01  0.14200000000E+01 0.  1.
<mgrwt>
<rscale>  0 0.20016589E+01</rscale>
<asrwt>0</asrwt>
<pdfrwt beam="1">  1       11 0.10000000E+01 0.14107612E+01</pdfrwt>
<pdfrwt beam="2">  1        4 0.99952233E+00 0.20016589E+01</pdfrwt>
<totfact> 0.12635525E-10</totfact>
</mgrwt>
</event>
<event>
 5    1  0.2028858E-012  0.2000270E+01  0.7818608E-02  0.3998756E+00
         11   -1    0    0    0    0  0.00000000000E+00  0.00000000000E+00  0.39999999476E+01  0.39999999802E+01  0.51100000000E-03 0. -1.
         -4   -1    0    0    0  501 -0.00000000000E+00 -0.00000000000E+00  0.23863991903E+00  0.14399128484E+01  0.14200000000E+01 0. -1.
         11    1    1    2    0    0 -0.95261130491E+00  0.90465141752E+00  0.15819289675E+01  0.20562981313E+01  0.51100000000E-03 0. -1.
         22    1    1    2    0    0 -0.69959148953E-01  0.64384694967E-01  0.11525730253E+00  0.14941190467E+00  0.00000000000E+00 0. -1.
         -4    1    1    2    0  501  0.10225704539E+01 -0.96903611248E+00  0.25414535966E+01  0.32342027927E+01  0.14200000000E+01 0. -1.
<mgrwt>
<rscale>  0 0.20002703E+01</rscale>
<asrwt>0</asrwt>
<pdfrwt beam="1">  1       11 0.10000000E+01 0.14088000E+01</pdfrwt>
<pdfrwt beam="2">  1       -4 0.99773940E+00 0.20002703E+01</pdfrwt>
<totfact> 0.54765445E-10</totfact>
</mgrwt>
</event>
<event>
 5    1  0.2028858E-012  0.2000163E+01  0.7818608E-02  0.3998892E+00
         11   -1    0    0    0    0  0.00000000000E+00  0.00000000000E+00  0.39999999648E+01  0.39999999974E+01  0.51100000000E-03 0.  1.
         -4   -1    0    0    0  501 -0.00000000000E+00 -0.00000000000E+00  0.23744221247E+00  0.14397148344E+01  0.14200000000E+01 0.  1.
         11    1    1    2    0    0  0.11207087589E+01 -0.81441332692E+00  0.16335097803E+01  0.21418710636E+01  0.51100000000E-03 0.  1.
         22    1    1    2    0    0  0.18889847763E-01 -0.13577343477E-01  0.24606785867E-01  0.33862435162E-01  0.00000000000E+00 0.  1.
         -4    1    1    2    0  501 -0.11395986067E+01  0.82799067040E+00  0.25793256111E+01  0.32639813331E+01  0.14200000000E+01 0.  1.
<mgrwt>
<rscale>  0 0.20001634E+01</rscale>
<asrwt>0</asrwt>
<pdfrwt beam="1">  1       11 0.10000000E+01 0.14087114E+01</pdfrwt>
<pdfrwt beam="2">  1       -4 0.99842571E+00 0.20001634E+01</pdfrwt>
<totfact> 0.39423433E-10</totfact>
</mgrwt>
</event>
<event>
 5    1  0.2028858E-012  0.2000360E+01  0.7818608E-02  0.3998643E+00
         11   -1    0    0    0    0  0.00000000000E+00  0.00000000000E+00  0.39999999486E+01  0.39999999812E+01  0.51100000000E-03 0.  1.
          4   -1    0    0  501    0 -0.00000000000E+00 -0.00000000000E+00  0.23821473321E+00  0.14398424425E+01  0.14200000000E+01 0.  1.
         11    1    1    2    0    0  0.12916991581E+01 -0.26385258847E+00  0.15802170198E+01  0.20579579671E+01  0.51100000000E-03 0.  1.
         22    1    1    2    0    0  0.88684576152E-01 -0.18246338372E-01  0.10929637492E+00  0.14192808207E+00  0.00000000000E+00 0. -1.
          4    1    1    2  501    0 -0.13803837342E+01  0.28209892685E+00  0.25487012870E+01  0.32399563745E+01  0.14200000000E+01 0. -1.
<mgrwt>
<rscale>  0 0.20003597E+01</rscale>
<asrwt>0</asrwt>
<pdfrwt beam="1">  1       11 0.10000000E+01 0.14089163E+01</pdfrwt>
<pdfrwt beam="2">  1        4 0.99798296E+00 0.20003597E+01</pdfrwt>
<totfact> 0.49450429E-10</totfact>
</mgrwt>
</event>
<event>
 5    1  0.2028858E-012  0.2000381E+01  0.7818608E-02  0.3998616E+00
         11   -1    0    0    0    0  0.00000000000E+00  0.00000000000E+00  0.39999999682E+01  0.40000000008E+01  0.51100000000E-03 0. -1.
          4   -1    0    0  501    0 -0.00000000000E+00 -0.00000000000E+00  0.23856398767E+00  0.14399002661E+01  0.14200000000E+01 0. -1.
         11    1    1    2    0    0  0.10742495488E+00 -0.98683829660E+00  0.12085656724E+01  0.15639760837E+01  0.51100000000E-03 0. -1.
         22    1    1    2    0    0  0.38654300122E-01 -0.41451263532E+00  0.49877045240E+00  0.64968210991E+00  0.00000000000E+00 0. -1.
          4    1    1    2  501    0 -0.14607925501E+00  0.14013509319E+01  0.25312278310E+01  0.32262420733E+01  0.14200000000E+01 0. -1.
<mgrwt>
<rscale>  0 0.20003809E+01</rscale>
<asrwt>0</asrwt>
<pdfrwt beam="1">  1       11 0.10000000E+01 0.14090025E+01</pdfrwt>
<pdfrwt beam="2">  1        4 0.99778289E+00 0.20003809E+01</pdfrwt>
<totfact> 0.53832005E-10</totfact>
</mgrwt>
</event>
<event>
 5    1  0.2028858E-012  0.2000017E+01  0.7818608E-02  0.3999078E+00
         11   -1    0    0    0    0  0.00000000000E+00  0.00000000000E+00  0.39999999564E+01  0.39999999890E+01  0.51100000000E-03 0.  1.
          4   -1    0    0  501    0 -0.00000000000E+00 -0.00000000000E+00  0.23734036296E+00  0.14396980405E+01  0.14200000000E+01 0. -1.
         11    1    1    2    0    0  0.60296101905E+00  0.23897617507E+00  0.75831315015E+00  0.99785304407E+00  0.51100000000E-03 0.  1.
         22    1    1    2    0    0  0.70085674703E+00  0.29368255680E+00  0.88987394095E+00  0.11701817187E+01  0.00000000000E+00 0.  1.
          4    1    1    2  501    0 -0.13038177661E+01 -0.53265873186E+00  0.25891532282E+01  0.32716632668E+01  0.14200000000E+01 0. -1.
<mgrwt>
<rscale>  0 0.20000165E+01</rscale>
<asrwt>0</asrwt>
<pdfrwt beam="1">  1       11 0.10000000E+01 0.14084942E+01</pdfrwt>
<pdfrwt beam="2">  1        4 0.99848411E+00 0.20000165E+01</pdfrwt>
<totfact> 0.38062031E-10</totfact>
</mgrwt>
</event>
<event>
 5    1  0.2028858E-012  0.2000231E+01  0.7818608E-02  0.3998806E+00
         11   -1    0    0    0    0  0.00000000000E+00  0.00000000000E+00  0.39999999623E+01  0.39999999949E+01  0.51100000000E-03 0.  1.
          4   -1    0    0  501    0 -0.00000000000E+00 -0.00000000000E+00  0.23839089076E+00  0.14398715973E+01  0.14200000000E+01 0. -1.
         11    1    1    2    0    0 -0.10256987263E+01 -0.55873199652E+00  0.13969910219E+01  0.18209402784E+01  0.51100000000E-03 0.  1.
         22    1    1    2    0    0 -0.21172153654E+00 -0.11455481267E+00  0.28799888454E+00  0.37535605981E+00  0.00000000000E+00 0. -1.
          4    1    1    2  501    0  0.12374202629E+01  0.67328680919E+00  0.25534009466E+01  0.32435752541E+01  0.14200000000E+01 0.  1.
<mgrwt>
<rscale>  0 0.20002310E+01</rscale>
<asrwt>0</asrwt>
<pdfrwt beam="1">  1       11 0.10000000E+01 0.14087330E+01</pdfrwt>
<pdfrwt beam="2">  1        4 0.99788205E+00 0.20002310E+01</pdfrwt>
<totfact> 0.51663460E-10</totfact>
</mgrwt>
</event>
