<event>
 5    1  0.3269840E+002  0.1599677E+01  0.7818608E-02  0.3353714E+00
         11   -1    0    0    0    0  0.00000000000E+00  0.00000000000E+00  0.39999999674E+01  0.40000000000E+01  0.51100000000E-03 0. -1.
    9000002   -1    0    0    0    0 -0.00000000000E+00 -0.00000000000E+00  0.00000000000E+00  0.93800000000E+00  0.93800000000E+00 0. -1.
         11    1    1    2    0    0  0.38765934347E+00 -0.21818964760E+00  0.21508361579E+01  0.21963567397E+01  0.51100000000E-03 0. -1.
    9000002    1    1    2    0    0 -0.64936275796E+00  0.36390375779E+00  0.40100763146E+00  0.12628337408E+01  0.93800000000E+00 0. -1.
         22    1    1    2    0    0  0.26170341449E+00 -0.14571411018E+00  0.14481561780E+01  0.14788095195E+01  0.00000000000E+00 0. -1.
</event>
<event>
 5    1  0.3269840E+002  0.1599663E+01  0.7818608E-02  0.3353729E+00
         11   -1    0    0    0    0  0.00000000000E+00  0.00000000000E+00  0.39999999674E+01  0.40000000000E+01  0.51100000000E-03 0. -1.
    9000002   -1    0    0    0    0 -0.00000000000E+00 -0.00000000000E+00  0.00000000000E+00  0.93800000000E+00  0.93800000000E+00 0. -1.
         11    1    1    2    0    0  0.11279147293E+00  0.46719565755E-01  0.14700785622E+01  0.14751392729E+01  0.51100000000E-03 0. -1.
    9000002    1    1    2    0    0 -0.30434643601E+00 -0.11357926282E+00  0.70579866155E-01  0.99516456909E+00  0.93800000000E+00 0. -1.
         22    1    1    2    0    0  0.19155496309E+00  0.66859697061E-01  0.24593415390E+01  0.24676961580E+01  0.00000000000E+00 0. -1.
</event>
<event>
 5    1  0.3269840E+002  0.1599664E+01  0.7818608E-02  0.3353728E+00
         11   -1    0    0    0    0  0.00000000000E+00  0.00000000000E+00  0.39999999674E+01  0.40000000000E+01  0.51100000000E-03 0.  1.
    9000002   -1    0    0    0    0 -0.00000000000E+00 -0.00000000000E+00  0.00000000000E+00  0.93800000000E+00  0.93800000000E+00 0.  1.
         11    1    1    2    0    0  0.19439022617E-01  0.41811861688E-01  0.66067700016E+00  0.66228427963E+00  0.51100000000E-03 0.  1.
    9000002    1    1    2    0    0 -0.10106555254E+00 -0.23900842789E+00  0.44775722557E-01  0.97426286999E+00  0.93800000000E+00 0.  1.
         22    1    1    2    0    0  0.81626529923E-01  0.19719656621E+00  0.32945472446E+01  0.33014528504E+01  0.00000000000E+00 0.  1.
</event>
<event>
 5    1  0.3269840E+002  0.1596069E+01  0.7818608E-02  0.3357641E+00
         11   -1    0    0    0    0  0.00000000000E+00  0.00000000000E+00  0.39999999674E+01  0.40000000000E+01  0.51100000000E-03 0.  1.
    9000002   -1    0    0    0    0 -0.00000000000E+00 -0.00000000000E+00  0.00000000000E+00  0.93800000000E+00  0.93800000000E+00 0. -1.
         11    1    1    2    0    0 -0.12189979520E+00  0.60584045510E-01  0.47727192525E+00  0.49630508601E+00  0.51100000000E-03 0.  1.
    9000002    1    1    2    0    0  0.54684189202E+00 -0.48035555102E+00  0.38576935719E+00  0.12483747463E+01  0.93800000000E+00 0. -1.
         22    1    1    2    0    0 -0.42494209682E+00  0.41977150551E+00  0.31369586849E+01  0.31933201677E+01  0.00000000000E+00 0.  1.
</event>
<event>
 5    1  0.3269840E+002  0.1570375E+01  0.7818608E-02  0.3386159E+00
         11   -1    0    0    0    0  0.00000000000E+00  0.00000000000E+00  0.39999999674E+01  0.40000000000E+01  0.51100000000E-03 0. -1.
    9000002   -1    0    0    0    0 -0.00000000000E+00 -0.00000000000E+00  0.00000000000E+00  0.93800000000E+00  0.93800000000E+00 0.  1.
         11    1    1    2    0    0 -0.11181455345E+00 -0.28997607992E-01  0.52786263221E+00  0.54035412022E+00  0.51100000000E-03 0. -1.
    9000002    1    1    2    0    0 -0.12885225585E+00 -0.19927485830E+00  0.59986644419E-01  0.96941001155E+00  0.93800000000E+00 0.  1.
         22    1    1    2    0    0  0.24066680930E+00  0.22827246629E+00  0.34121506907E+01  0.34282358682E+01  0.00000000000E+00 0. -1.
</event>
<event>
 5    1  0.3269840E+002  0.1595776E+01  0.7818608E-02  0.3357961E+00
         11   -1    0    0    0    0  0.00000000000E+00  0.00000000000E+00  0.39999999674E+01  0.40000000000E+01  0.51100000000E-03 0. -1.
    9000002   -1    0    0    0    0 -0.00000000000E+00 -0.00000000000E+00  0.00000000000E+00  0.93800000000E+00  0.93800000000E+00 0.  1.
         11    1    1    2    0    0 -0.15882244192E-01  0.16867608701E-01  0.13259372844E+01  0.13261397759E+01  0.51100000000E-03 0. -1.
    9000002    1    1    2    0    0 -0.49535060841E-01 -0.23884606538E+00  0.42487132270E-01  0.97012902317E+00  0.93800000000E+00 0.  1.
         22    1    1    2    0    0  0.65417305032E-01  0.22197845667E+00  0.26315755507E+01  0.26417312009E+01  0.00000000000E+00 0. -1.
</event>
<event>
 5    1  0.3269840E+002  0.1599673E+01  0.7818608E-02  0.3353718E+00
         11   -1    0    0    0    0  0.00000000000E+00  0.00000000000E+00  0.39999999674E+01  0.40000000000E+01  0.51100000000E-03 0.  1.
    9000002   -1    0    0    0    0 -0.00000000000E+00 -0.00000000000E+00  0.00000000000E+00  0.93800000000E+00  0.93800000000E+00 0. -1.
         11    1    1    2    0    0  0.15082408042E-01  0.12379964082E+00  0.14150946596E+01  0.14205798066E+01  0.51100000000E-03 0.  1.
    9000002    1    1    2    0    0 -0.36580945085E-01 -0.33945796160E+00  0.78091574356E-01  0.10012552957E+01  0.93800000000E+00 0. -1.
         22    1    1    2    0    0  0.21498537043E-01  0.21565832078E+00  0.25068137334E+01  0.25161648977E+01  0.00000000000E+00 0.  1.
</event>
<event>
 5    1  0.3269840E+002  0.1467805E+01  0.7818608E-02  0.3510653E+00
         11   -1    0    0    0    0  0.00000000000E+00  0.00000000000E+00  0.39999999674E+01  0.40000000000E+01  0.51100000000E-03 0.  1.
    9000002   -1    0    0    0    0 -0.00000000000E+00 -0.00000000000E+00  0.00000000000E+00  0.93800000000E+00  0.93800000000E+00 0. -1.
         11    1    1    2    0    0 -0.18589976658E-01  0.43657106313E+00  0.25689925752E+01  0.26058900578E+01  0.51100000000E-03 0.  1.
    9000002    1    1    2    0    0  0.11702027186E+00 -0.39523105875E-01  0.11388545265E+00  0.95292692073E+00  0.93800000000E+00 0. -1.
         22    1    1    2    0    0 -0.98430295201E-01 -0.39704795726E+00  0.13171219395E+01  0.13791830215E+01  0.00000000000E+00 0.  1.
</event>
<event>
 5    1  0.3269840E+002  0.1599636E+01  0.7818608E-02  0.3353758E+00
         11   -1    0    0    0    0  0.00000000000E+00  0.00000000000E+00  0.39999999674E+01  0.40000000000E+01  0.51100000000E-03 0.  1.
    9000002   -1    0    0    0    0 -0.00000000000E+00 -0.00000000000E+00  0.00000000000E+00  0.93800000000E+00  0.93800000000E+00 0.  1.
         11    1    1    2    0    0  0.56998127377E+00 -0.42830486594E+00  0.20036547675E+01  0.21267243355E+01  0.51100000000E-03 0.  1.
    9000002    1    1    2    0    0 -0.85457701290E+00  0.64281822760E+00  0.96187879191E+00  0.17171406334E+01  0.93800000000E+00 0.  1.
         22    1    1    2    0    0  0.28459573914E+00 -0.21451336165E+00  0.10344664079E+01  0.10941350311E+01  0.00000000000E+00 0.  1.
</event>
<event>
 5    1  0.3269840E+002  0.1599677E+01  0.7818608E-02  0.3353714E+00
         11   -1    0    0    0    0  0.00000000000E+00  0.00000000000E+00  0.39999999674E+01  0.40000000000E+01  0.51100000000E-03 0. -1.
    9000002   -1    0    0    0    0 -0.00000000000E+00 -0.00000000000E+00  0.00000000000E+00  0.93800000000E+00  0.93800000000E+00 0. -1.
         11    1    1    2    0    0  0.12546031536E+00  0.12944173129E-01  0.14850080983E+01  0.14903547079E+01  0.51100000000E-03 0.  1.
    9000002    1    1    2    0    0 -0.33031687873E+00 -0.34337667023E-01  0.73807884109E-01  0.99778751220E+00  0.93800000000E+00 0. -1.
         22    1    1    2    0    0  0.20485656337E+00  0.21393493895E-01  0.24411839850E+01  0.24498577799E+01  0.00000000000E+00 0. -1.
</event>
<event>
 5    1  0.3269840E+002  0.1599672E+01  0.7818608E-02  0.3353720E+00
         11   -1    0    0    0    0  0.00000000000E+00  0.00000000000E+00  0.39999999674E+01  0.40000000000E+01  0.51100000000E-03 0. -1.
    9000002   -1    0    0    0    0 -0.00000000000E+00 -0.00000000000E+00  0.00000000000E+00  0.93800000000E+00  0.93800000000E+00 0. -1.
         11    1    1    2    0    0  0.36914360343E-01  0.59574159840E-01  0.73623058775E+00  0.73955898344E+00  0.51100000000E-03 0. -1.
    9000002    1    1    2    0    0 -0.20371555322E+00 -0.30796213059E+00  0.91622391741E-01  0.10122150775E+01  0.93800000000E+00 0. -1.
         22    1    1    2    0    0  0.16680119287E+00  0.24838797075E+00  0.31721469879E+01  0.31862259390E+01  0.00000000000E+00 0. -1.
</event>
<event>
 5    1  0.3269840E+002  0.1599606E+01  0.7818608E-02  0.3353791E+00
         11   -1    0    0    0    0  0.00000000000E+00  0.00000000000E+00  0.39999999674E+01  0.40000000000E+01  0.51100000000E-03 0.  1.
    9000002   -1    0    0    0    0 -0.00000000000E+00 -0.00000000000E+00  0.00000000000E+00  0.93800000000E+00  0.93800000000E+00 0. -1.
         11    1    1    2    0    0 -0.38441812196E-01  0.65212767587E-01  0.90358813851E+00  0.90675369487E+00  0.51100000000E-03 0.  1.
    9000002    1    1    2    0    0  0.13431860713E+00 -0.30071736416E+00  0.72628218229E-01  0.99679048923E+00  0.93800000000E+00 0. -1.
         22    1    1    2    0    0 -0.95876794936E-01  0.23550459657E+00  0.30237836106E+01  0.30344558159E+01  0.00000000000E+00 0.  1.
</event>
<event>
 5    1  0.3269840E+002  0.1599677E+01  0.7818608E-02  0.3353714E+00
         11   -1    0    0    0    0  0.00000000000E+00  0.00000000000E+00  0.39999999674E+01  0.40000000000E+01  0.51100000000E-03 0.  1.
    9000002   -1    0    0    0    0 -0.00000000000E+00 -0.00000000000E+00  0.00000000000E+00  0.93800000000E+00  0.93800000000E+00 0.  1.
         11    1    1    2    0    0 -0.21051151001E-01 -0.73042299780E+00  0.25131712824E+01  0.26172487582E+01  0.51100000000E-03 0.  1.
    9000002    1    1    2    0    0  0.27475605907E-01  0.95463578622E+00  0.71627754373E+00  0.15182166884E+01  0.93800000000E+00 0.  1.
         22    1    1    2    0    0 -0.64244549055E-02 -0.22421278842E+00  0.77055114124E+00  0.80253455339E+00  0.00000000000E+00 0. -1.
</event>
<event>
 5    1  0.3269840E+002  0.1599667E+01  0.7818608E-02  0.3353725E+00
         11   -1    0    0    0    0  0.00000000000E+00  0.00000000000E+00  0.39999999674E+01  0.40000000000E+01  0.51100000000E-03 0.  1.
    9000002   -1    0    0    0    0 -0.00000000000E+00 -0.00000000000E+00  0.00000000000E+00  0.93800000000E+00  0.93800000000E+00 0. -1.
         11    1    1    2    0    0 -0.62484604569E-02  0.25667416298E-01  0.38700623424E+00  0.38790713577E+00  0.51100000000E-03 0.  1.
    9000002    1    1    2    0    0  0.86266223702E-01 -0.25663261336E+00  0.48782720423E-01  0.97751005795E+00  0.93800000000E+00 0. -1.
         22    1    1    2    0    0 -0.80017763245E-01  0.23096519706E+00  0.35642110127E+01  0.35725828063E+01  0.00000000000E+00 0.  1.
</event>
<event>
 5    1  0.3679865E+002  0.1584059E+01  0.7818608E-02  0.3370849E+00
         11   -1    0    0    0    0  0.00000000000E+00  0.00000000000E+00  0.39999999674E+01  0.40000000000E+01  0.51100000000E-03 0.  1.
    9000002   -1    0    0    0    0 -0.00000000000E+00 -0.00000000000E+00  0.00000000000E+00  0.93800000000E+00  0.93800000000E+00 0. -1.
         11    1    1    2    0    0  0.68752754111E-02 -0.12631898047E+00  0.11379429723E+01  0.11449533717E+01  0.51100000000E-03 0.  1.
    9000002    1    1    2    0    0 -0.15842521602E+00 -0.14365386302E-01  0.28360941325E-01  0.95181576809E+00  0.93800000000E+00 0. -1.
         22    1    1    2    0    0  0.15154994061E+00  0.14068436677E+00  0.28336960538E+01  0.28412308602E+01  0.00000000000E+00 0.  1.
</event>
<event>
 5    1  0.3269840E+002  0.1599675E+01  0.7818608E-02  0.3353716E+00
         11   -1    0    0    0    0  0.00000000000E+00  0.00000000000E+00  0.39999999674E+01  0.40000000000E+01  0.51100000000E-03 0. -1.
    9000002   -1    0    0    0    0 -0.00000000000E+00 -0.00000000000E+00  0.00000000000E+00  0.93800000000E+00  0.93800000000E+00 0. -1.
         11    1    1    2    0    0 -0.50057040550E-02 -0.15824736933E-02  0.96752300462E-01  0.96895975467E-01  0.51100000000E-03 0.  1.
    9000002    1    1    2    0    0  0.21552095963E+00  0.65189632284E-01  0.33619830182E-01  0.96523223381E+00  0.93800000000E+00 0. -1.
         22    1    1    2    0    0 -0.21051525558E+00 -0.63607158590E-01  0.38696278367E+01  0.38758717907E+01  0.00000000000E+00 0. -1.
</event>
<event>
 5    1  0.3269840E+002  0.1599673E+01  0.7818608E-02  0.3353718E+00
         11   -1    0    0    0    0  0.00000000000E+00  0.00000000000E+00  0.39999999674E+01  0.40000000000E+01  0.51100000000E-03 0.  1.
    9000002   -1    0    0    0    0 -0.00000000000E+00 -0.00000000000E+00  0.00000000000E+00  0.93800000000E+00  0.93800000000E+00 0.  1.
         11    1    1    2    0    0  0.26200324317E-01  0.85722368447E-02  0.36743374901E+00  0.36846677092E+00  0.51100000000E-03 0.  1.
    9000002    1    1    2    0    0 -0.26769879017E+00 -0.90703782667E-01  0.53215013500E-01  0.98110430440E+00  0.93800000000E+00 0.  1.
         22    1    1    2    0    0  0.24149846585E+00  0.82131545822E-01  0.35793512048E+01  0.35884289247E+01  0.00000000000E+00 0.  1.
</event>
<event>
 5    1  0.3269840E+002  0.1599677E+01  0.7818608E-02  0.3353714E+00
         11   -1    0    0    0    0  0.00000000000E+00  0.00000000000E+00  0.39999999674E+01  0.40000000000E+01  0.51100000000E-03 0. -1.
    9000002   -1    0    0    0    0 -0.00000000000E+00 -0.00000000000E+00  0.00000000000E+00  0.93800000000E+00  0.93800000000E+00 0.  1.
         11    1    1    2    0    0  0.43770851276E+00 -0.10871808751E+00  0.24886779605E+01  0.25292146245E+01  0.51100000000E-03 0. -1.
    9000002    1    1    2    0    0 -0.64830595927E+00  0.16122772988E+00  0.31632334108E+00  0.11942359289E+01  0.93800000000E+00 0.  1.
         22    1    1    2    0    0  0.21059744651E+00 -0.52509642377E-01  0.11949986658E+01  0.12145494466E+01  0.00000000000E+00 0.  1.
</event>
<event>
 5    1  0.3269840E+002  0.1565073E+01  0.7818608E-02  0.3392166E+00
         11   -1    0    0    0    0  0.00000000000E+00  0.00000000000E+00  0.39999999674E+01  0.40000000000E+01  0.51100000000E-03 0.  1.
    9000002   -1    0    0    0    0 -0.00000000000E+00 -0.00000000000E+00  0.00000000000E+00  0.93800000000E+00  0.93800000000E+00 0. -1.
         11    1    1    2    0    0 -0.17555951077E+00 -0.83486234313E-02  0.28948826780E+01  0.29002132373E+01  0.51100000000E-03 0.  1.
    9000002    1    1    2    0    0  0.27353844913E-01 -0.15817889460E+00  0.43087009464E-01  0.95261182331E+00  0.93800000000E+00 0. -1.
         22    1    1    2    0    0  0.14820566585E+00  0.16652751803E+00  0.10620302799E+01  0.10851749394E+01  0.00000000000E+00 0.  1.
</event>
<event>
 5    1  0.3269840E+002  0.1599636E+01  0.7818608E-02  0.3353759E+00
         11   -1    0    0    0    0  0.00000000000E+00  0.00000000000E+00  0.39999999674E+01  0.40000000000E+01  0.51100000000E-03 0. -1.
    9000002   -1    0    0    0    0 -0.00000000000E+00 -0.00000000000E+00  0.00000000000E+00  0.93800000000E+00  0.93800000000E+00 0.  1.
         11    1    1    2    0    0  0.99184557840E-02  0.35269255778E-04  0.20532129738E+00  0.20556136137E+00  0.51100000000E-03 0. -1.
    9000002    1    1    2    0    0 -0.24570991412E+00 -0.36921048966E-01  0.41037539269E-01  0.97121810392E+00  0.93800000000E+00 0.  1.
         22    1    1    2    0    0  0.23579145833E+00  0.36885779710E-01  0.37536411307E+01  0.37612205347E+01  0.00000000000E+00 0. -1.
</event>
<event>
 5    1  0.3269840E+002  0.1599672E+01  0.7818608E-02  0.3353719E+00
         11   -1    0    0    0    0  0.00000000000E+00  0.00000000000E+00  0.39999999674E+01  0.40000000000E+01  0.51100000000E-03 0.  1.
    9000002   -1    0    0    0    0 -0.00000000000E+00 -0.00000000000E+00  0.00000000000E+00  0.93800000000E+00  0.93800000000E+00 0. -1.
         11    1    1    2    0    0  0.76339418590E-01  0.87450256610E-01  0.43425884248E+00  0.44950668250E+00  0.51100000000E-03 0.  1.
    9000002    1    1    2    0    0 -0.58165822172E+00 -0.68533428421E+00  0.61817728803E+00  0.14387482502E+01  0.93800000000E+00 0. -1.
         22    1    1    2    0    0  0.50531880313E+00  0.59788402760E+00  0.29475638368E+01  0.30497450673E+01  0.00000000000E+00 0.  1.
</event>
<event>
 5    1  0.3269840E+002  0.1599557E+01  0.7818608E-02  0.3353845E+00
         11   -1    0    0    0    0  0.00000000000E+00  0.00000000000E+00  0.39999999674E+01  0.40000000000E+01  0.51100000000E-03 0. -1.
    9000002   -1    0    0    0    0 -0.00000000000E+00 -0.00000000000E+00  0.00000000000E+00  0.93800000000E+00  0.93800000000E+00 0.  1.
         11    1    1    2    0    0  0.29195457247E+00 -0.20754511471E+00  0.24086134442E+01  0.24351039879E+01  0.51100000000E-03 0. -1.
    9000002    1    1    2    0    0 -0.47657814338E+00  0.32060587470E+00  0.22907767159E+00  0.11234925159E+01  0.93800000000E+00 0.  1.
         22    1    1    2    0    0  0.18462357091E+00 -0.11306075999E+00  0.13623088516E+01  0.13794034962E+01  0.00000000000E+00 0. -1.
</event>
<event>
 5    1  0.3269840E+002  0.1588513E+01  0.7818608E-02  0.3365927E+00
         11   -1    0    0    0    0  0.00000000000E+00  0.00000000000E+00  0.39999999674E+01  0.40000000000E+01  0.51100000000E-03 0.  1.
    9000002   -1    0    0    0    0 -0.00000000000E+00 -0.00000000000E+00  0.00000000000E+00  0.93800000000E+00  0.93800000000E+00 0. -1.
         11    1    1    2    0    0 -0.14736990785E+00 -0.17523715344E+00  0.14591002653E+01  0.14769562604E+01  0.51100000000E-03 0.  1.
    9000002    1    1    2    0    0  0.52005428853E+00  0.16461114488E+00  0.21591262349E+00  0.11063523639E+01  0.93800000000E+00 0. -1.
         22    1    1    2    0    0 -0.37268438069E+00  0.10626008566E-01  0.23249870786E+01  0.23546913758E+01  0.00000000000E+00 0.  1.
</event>
<event>
 5    1  0.3269840E+002  0.1599675E+01  0.7818608E-02  0.3353716E+00
         11   -1    0    0    0    0  0.00000000000E+00  0.00000000000E+00  0.39999999674E+01  0.40000000000E+01  0.51100000000E-03 0.  1.
    9000002   -1    0    0    0    0 -0.00000000000E+00 -0.00000000000E+00  0.00000000000E+00  0.93800000000E+00  0.93800000000E+00 0. -1.
         11    1    1    2    0    0  0.41989680015E-01  0.59117885122E-01  0.10099760629E+01  0.10125759065E+01  0.51100000000E-03 0.  1.
    9000002    1    1    2    0    0 -0.16851934711E+00 -0.22743217178E+00  0.53371687963E-01  0.98123223560E+00  0.93800000000E+00 0. -1.
         22    1    1    2    0    0  0.12652966709E+00  0.16831428666E+00  0.29366522164E+01  0.29441918579E+01  0.00000000000E+00 0.  1.
</event>
<event>
 5    1  0.3269840E+002  0.1599631E+01  0.7818608E-02  0.3353764E+00
         11   -1    0    0    0    0  0.00000000000E+00  0.00000000000E+00  0.39999999674E+01  0.40000000000E+01  0.51100000000E-03 0.  1.
    9000002   -1    0    0    0    0 -0.00000000000E+00 -0.00000000000E+00  0.00000000000E+00  0.93800000000E+00  0.93800000000E+00 0.  1.
         11    1    1    2    0    0 -0.20126942604E-01  0.98569784746E-02  0.27684774782E+00  0.27775383064E+00  0.51100000000E-03 0.  1.
    9000002    1    1    2    0    0  0.34274782768E+00 -0.13087978637E+00  0.90464880374E-01  0.10112534235E+01  0.93800000000E+00 0.  1.
         22    1    1    2    0    0 -0.32262088508E+00  0.12102280790E+00  0.36326873392E+01  0.36489927459E+01  0.00000000000E+00 0.  1.
</event>
<event>
 5    1  0.3269840E+002  0.1599635E+01  0.7818608E-02  0.3353759E+00
         11   -1    0    0    0    0  0.00000000000E+00  0.00000000000E+00  0.39999999674E+01  0.40000000000E+01  0.51100000000E-03 0.  1.
    9000002   -1    0    0    0    0 -0.00000000000E+00 -0.00000000000E+00  0.00000000000E+00  0.93800000000E+00  0.93800000000E+00 0. -1.
         11    1    1    2    0    0 -0.27196197419E+00  0.23976485232E-01  0.17700007460E+01  0.17909330220E+01  0.51100000000E-03 0.  1.
    9000002    1    1    2    0    0  0.58553094317E+00 -0.36318254900E-01  0.23949152009E+00  0.11319742441E+01  0.93800000000E+00 0. -1.
         22    1    1    2    0    0 -0.31356896898E+00  0.12341769669E-01  0.19905077013E+01  0.20150927339E+01  0.00000000000E+00 0.  1.
</event>
<event>
 5    1  0.3269840E+002  0.1598817E+01  0.7818608E-02  0.3354649E+00
         11   -1    0    0    0    0  0.00000000000E+00  0.00000000000E+00  0.39999999674E+01  0.40000000000E+01  0.51100000000E-03 0.  1.
    9000002   -1    0    0    0    0 -0.00000000000E+00 -0.00000000000E+00  0.00000000000E+00  0.93800000000E+00  0.93800000000E+00 0. -1.
         11    1    1    2    0    0 -0.57268762631E-02 -0.39794917620E-02  0.20561153799E+00  0.20573040403E+00  0.51100000000E-03 0.  1.
    9000002    1    1    2    0    0 -0.78360122665E-01  0.31063412648E+00  0.69284036841E-01  0.99361871315E+00  0.93800000000E+00 0. -1.
         22    1    1    2    0    0  0.84086998928E-01 -0.30665463472E+00  0.37251043925E+01  0.37386508828E+01  0.00000000000E+00 0.  1.
</event>
<event>
 5    1  0.3269840E+002  0.1599672E+01  0.7818608E-02  0.3353719E+00
         11   -1    0    0    0    0  0.00000000000E+00  0.00000000000E+00  0.39999999674E+01  0.40000000000E+01  0.51100000000E-03 0.  1.
    9000002   -1    0    0    0    0 -0.00000000000E+00 -0.00000000000E+00  0.00000000000E+00  0.93800000000E+00  0.93800000000E+00 0.  1.
         11    1    1    2    0    0  0.98278423159E-02 -0.11225035028E-01  0.24090213198E+00  0.24136421899E+00  0.51100000000E-03 0.  1.
    9000002    1    1    2    0    0 -0.17410423935E+00  0.19908309530E+00  0.46521574983E-01  0.97568161914E+00  0.93800000000E+00 0.  1.
         22    1    1    2    0    0  0.16427639703E+00 -0.18785806028E+00  0.37125762604E+01  0.37209541619E+01  0.00000000000E+00 0.  1.
</event>
<event>
 5    1  0.3269840E+002  0.1599636E+01  0.7818608E-02  0.3353758E+00
         11   -1    0    0    0    0  0.00000000000E+00  0.00000000000E+00  0.39999999674E+01  0.40000000000E+01  0.51100000000E-03 0.  1.
    9000002   -1    0    0    0    0 -0.00000000000E+00 -0.00000000000E+00  0.00000000000E+00  0.93800000000E+00  0.93800000000E+00 0. -1.
         11    1    1    2    0    0 -0.61230606963E-01 -0.54378571050E-01  0.78955270688E+00  0.79378835610E+00  0.51100000000E-03 0.  1.
    9000002    1    1    2    0    0  0.29275682243E+00  0.23993217155E+00  0.96416661939E-01  0.10160778399E+01  0.93800000000E+00 0. -1.
         22    1    1    2    0    0 -0.23152621547E+00 -0.18555360050E+00  0.31140305985E+01  0.31281338040E+01  0.00000000000E+00 0.  1.
</event>
<event>
 5    1  0.3269840E+002  0.1541840E+01  0.7818608E-02  0.3419013E+00
         11   -1    0    0    0    0  0.00000000000E+00  0.00000000000E+00  0.39999999674E+01  0.40000000000E+01  0.51100000000E-03 0.  1.
    9000002   -1    0    0    0    0 -0.00000000000E+00 -0.00000000000E+00  0.00000000000E+00  0.93800000000E+00  0.93800000000E+00 0.  1.
         11    1    1    2    0    0  0.25541200338E-02 -0.19576622380E-01 -0.16181495430E-01  0.25531736884E-01  0.51100000000E-03 0.  1.
    9000002    1    1    2    0    0 -0.16042017879E+00 -0.15504745966E+00  0.78065015766E-01  0.96732233263E+00  0.93800000000E+00 0.  1.
         22    1    1    2    0    0  0.15786605876E+00  0.17462408204E+00  0.39381164470E+01  0.39451459305E+01  0.00000000000E+00 0.  1.
</event>
<event>
 5    1  0.3269840E+002  0.1586174E+01  0.7818608E-02  0.3368507E+00
         11   -1    0    0    0    0  0.00000000000E+00  0.00000000000E+00  0.39999999674E+01  0.40000000000E+01  0.51100000000E-03 0. -1.
    9000002   -1    0    0    0    0 -0.00000000000E+00 -0.00000000000E+00  0.00000000000E+00  0.93800000000E+00  0.93800000000E+00 0.  1.
         11    1    1    2    0    0  0.31101607652E+00 -0.19213166239E-01  0.21515709470E+01  0.21740188469E+01  0.51100000000E-03 0. -1.
    9000002    1    1    2    0    0 -0.64036279155E+00 -0.17769191267E+00  0.32736326157E+00  0.11952613211E+01  0.93800000000E+00 0.  1.
         22    1    1    2    0    0  0.32934671503E+00  0.19690507891E+00  0.15210657588E+01  0.15687198320E+01  0.00000000000E+00 0. -1.
</event>
<event>
 5    1  0.3269840E+002  0.1599588E+01  0.7818608E-02  0.3353811E+00
         11   -1    0    0    0    0  0.00000000000E+00  0.00000000000E+00  0.39999999674E+01  0.40000000000E+01  0.51100000000E-03 0. -1.
    9000002   -1    0    0    0    0 -0.00000000000E+00 -0.00000000000E+00  0.00000000000E+00  0.93800000000E+00  0.93800000000E+00 0. -1.
         11    1    1    2    0    0  0.15687630014E-01 -0.10042450566E-01  0.32008021326E+00  0.32062213990E+00  0.51100000000E-03 0. -1.
    9000002    1    1    2    0    0 -0.21405393021E+00  0.50402608864E-01  0.32122973948E-01  0.96396856457E+00  0.93800000000E+00 0. -1.
         22    1    1    2    0    0  0.19836630020E+00 -0.40360158297E-01  0.36477967801E+01  0.36534092955E+01  0.00000000000E+00 0. -1.
</event>
<event>
 5    1  0.3269840E+002  0.1599583E+01  0.7818608E-02  0.3353816E+00
         11   -1    0    0    0    0  0.00000000000E+00  0.00000000000E+00  0.39999999674E+01  0.40000000000E+01  0.51100000000E-03 0.  1.
    9000002   -1    0    0    0    0 -0.00000000000E+00 -0.00000000000E+00  0.00000000000E+00  0.93800000000E+00  0.93800000000E+00 0. -1.
         11    1    1    2    0    0  0.16036237461E+00  0.10624277507E-01  0.16126005666E+01  0.16205893419E+01  0.51100000000E-03 0.  1.
    9000002    1    1    2    0    0 -0.41246970517E+00 -0.34815008494E-01  0.11586438572E+00  0.10318003190E+01  0.93800000000E+00 0. -1.
         22    1    1    2    0    0  0.25210733056E+00  0.24190730988E-01  0.22715350150E+01  0.22856103390E+01  0.00000000000E+00 0.  1.
</event>
<event>
 5    1  0.3269840E+002  0.1598526E+01  0.7818608E-02  0.3354965E+00
         11   -1    0    0    0    0  0.00000000000E+00  0.00000000000E+00  0.39999999674E+01  0.40000000000E+01  0.51100000000E-03 0.  1.
    9000002   -1    0    0    0    0 -0.00000000000E+00 -0.00000000000E+00  0.00000000000E+00  0.93800000000E+00  0.93800000000E+00 0. -1.
         11    1    1    2    0    0 -0.44190423219E-01  0.23400597258E-01  0.57346733910E+00  0.57564349348E+00  0.51100000000E-03 0.  1.
    9000002    1    1    2    0    0  0.32879749600E+00  0.35419765058E-01  0.74094116546E-01  0.99734462010E+00  0.93800000000E+00 0. -1.
         22    1    1    2    0    0 -0.28460707278E+00 -0.58820362316E-01  0.33524385117E+01  0.33650118864E+01  0.00000000000E+00 0.  1.
</event>
<event>
 5    1  0.3269840E+002  0.1596190E+01  0.7818608E-02  0.3357508E+00
         11   -1    0    0    0    0  0.00000000000E+00  0.00000000000E+00  0.39999999674E+01  0.40000000000E+01  0.51100000000E-03 0. -1.
    9000002   -1    0    0    0    0 -0.00000000000E+00 -0.00000000000E+00  0.00000000000E+00  0.93800000000E+00  0.93800000000E+00 0.  1.
         11    1    1    2    0    0  0.42235976314E-01 -0.39908759537E-01  0.91176252568E+00  0.91361247318E+00  0.51100000000E-03 0. -1.
    9000002    1    1    2    0    0  0.65817836798E-01  0.24644046563E+00  0.45914018743E-01  0.97314797840E+00  0.93800000000E+00 0.  1.
         22    1    1    2    0    0 -0.10805381311E+00 -0.20653170609E+00  0.30423234229E+01  0.30512395484E+01  0.00000000000E+00 0. -1.
</event>
<event>
 5    1  0.3269840E+002  0.1561093E+01  0.7818608E-02  0.3396706E+00
         11   -1    0    0    0    0  0.00000000000E+00  0.00000000000E+00  0.39999999674E+01  0.40000000000E+01  0.51100000000E-03 0.  1.
    9000002   -1    0    0    0    0 -0.00000000000E+00 -0.00000000000E+00  0.00000000000E+00  0.93800000000E+00  0.93800000000E+00 0.  1.
         11    1    1    2    0    0  0.84258241473E-01 -0.52724869650E+00  0.20353033726E+01  0.21041745933E+01  0.51100000000E-03 0.  1.
    9000002    1    1    2    0    0 -0.48110944941E+00  0.69436130154E+00  0.59023981188E+00  0.13934959472E+01  0.93800000000E+00 0.  1.
         22    1    1    2    0    0  0.39685120794E+00 -0.16711260504E+00  0.13744567829E+01  0.14403294595E+01  0.00000000000E+00 0.  1.
</event>
<event>
 5    1  0.3269840E+002  0.1595455E+01  0.7818608E-02  0.3358311E+00
         11   -1    0    0    0    0  0.00000000000E+00  0.00000000000E+00  0.39999999674E+01  0.40000000000E+01  0.51100000000E-03 0.  1.
    9000002   -1    0    0    0    0 -0.00000000000E+00 -0.00000000000E+00  0.00000000000E+00  0.93800000000E+00  0.93800000000E+00 0.  1.
         11    1    1    2    0    0 -0.58411002349E-01  0.11799069340E+00  0.82253543501E+00  0.83300567339E+00  0.51100000000E-03 0.  1.
    9000002    1    1    2    0    0  0.37807158648E-01 -0.37242723828E+00  0.97682488856E-01  0.10146513183E+01  0.93800000000E+00 0.  1.
         22    1    1    2    0    0  0.20603843701E-01  0.25443654488E+00  0.30797820435E+01  0.30903430083E+01  0.00000000000E+00 0.  1.
</event>
<event>
 5    1  0.3269840E+002  0.1599676E+01  0.7818608E-02  0.3353715E+00
         11   -1    0    0    0    0  0.00000000000E+00  0.00000000000E+00  0.39999999674E+01  0.40000000000E+01  0.51100000000E-03 0. -1.
    9000002   -1    0    0    0    0 -0.00000000000E+00 -0.00000000000E+00  0.00000000000E+00  0.93800000000E+00  0.93800000000E+00 0. -1.
         11    1    1    2    0    0 -0.27169868083E-01  0.97628786895E-03  0.44098869160E+00  0.44182625783E+00  0.51100000000E-03 0. -1.
    9000002    1    1    2    0    0  0.24067042707E+00 -0.14777531652E-01  0.38597493290E-01  0.96926487422E+00  0.93800000000E+00 0. -1.
         22    1    1    2    0    0 -0.21350055898E+00  0.13801243783E-01  0.35204137825E+01  0.35269088679E+01  0.00000000000E+00 0. -1.
</event>
<event>
 5    1  0.3269840E+002  0.1599328E+01  0.7818608E-02  0.3354093E+00
         11   -1    0    0    0    0  0.00000000000E+00  0.00000000000E+00  0.39999999674E+01  0.40000000000E+01  0.51100000000E-03 0. -1.
    9000002   -1    0    0    0    0 -0.00000000000E+00 -0.00000000000E+00  0.00000000000E+00  0.93800000000E+00  0.93800000000E+00 0.  1.
         11    1    1    2    0    0  0.16193490107E-01  0.53982644776E-02  0.27445736968E+00  0.27498814388E+00  0.51100000000E-03 0. -1.
    9000002    1    1    2    0    0 -0.12630481078E+00 -0.20261314295E+00  0.38101327404E-01  0.96865922908E+00  0.93800000000E+00 0.  1.
         22    1    1    2    0    0  0.11011132068E+00  0.19721487847E+00  0.36874412703E+01  0.36943526270E+01  0.00000000000E+00 0. -1.
</event>
<event>
 5    1  0.3269840E+002  0.1599610E+01  0.7818608E-02  0.3353787E+00
         11   -1    0    0    0    0  0.00000000000E+00  0.00000000000E+00  0.39999999674E+01  0.40000000000E+01  0.51100000000E-03 0.  1.
    9000002   -1    0    0    0    0 -0.00000000000E+00 -0.00000000000E+00  0.00000000000E+00  0.93800000000E+00  0.93800000000E+00 0. -1.
         11    1    1    2    0    0 -0.71713287087E-01 -0.10316590192E+00  0.11395080293E+01  0.11464138907E+01  0.51100000000E-03 0.  1.
    9000002    1    1    2    0    0  0.26399242217E+00  0.37152428442E+00  0.14126085080E+00  0.10523881987E+01  0.93800000000E+00 0. -1.
         22    1    1    2    0    0 -0.19227913508E+00 -0.26835838249E+00  0.27192310873E+01  0.27391979106E+01  0.00000000000E+00 0.  1.
</event>
<event>
 5    1  0.3269840E+002  0.1578783E+01  0.7818608E-02  0.3376719E+00
         11   -1    0    0    0    0  0.00000000000E+00  0.00000000000E+00  0.39999999674E+01  0.40000000000E+01  0.51100000000E-03 0. -1.
    9000002   -1    0    0    0    0 -0.00000000000E+00 -0.00000000000E+00  0.00000000000E+00  0.93800000000E+00  0.93800000000E+00 0.  1.
         11    1    1    2    0    0  0.11081922484E+00  0.43115981653E-01  0.16262910457E+01  0.16306326118E+01  0.51100000000E-03 0. -1.
    9000002    1    1    2    0    0  0.88951670758E-01  0.10740752049E+00  0.28377140584E-01  0.94873496684E+00  0.93800000000E+00 0.  1.
         22    1    1    2    0    0 -0.19977089560E+00 -0.15052350215E+00  0.23453317811E+01  0.23586324213E+01  0.00000000000E+00 0. -1.
</event>
<event>
 5    1  0.3269840E+002  0.1599453E+01  0.7818608E-02  0.3353957E+00
         11   -1    0    0    0    0  0.00000000000E+00  0.00000000000E+00  0.39999999674E+01  0.40000000000E+01  0.51100000000E-03 0. -1.
    9000002   -1    0    0    0    0 -0.00000000000E+00 -0.00000000000E+00  0.00000000000E+00  0.93800000000E+00  0.93800000000E+00 0.  1.
         11    1    1    2    0    0  0.42019623210E-02 -0.22376448231E-01  0.37600471360E+00  0.37669373196E+00  0.51100000000E-03 0. -1.
    9000002    1    1    2    0    0 -0.14333704460E+00  0.18560609585E+00  0.36660628503E-01  0.96756557031E+00  0.93800000000E+00 0.  1.
         22    1    1    2    0    0  0.13913508228E+00 -0.16322964762E+00  0.35873346253E+01  0.35937406977E+01  0.00000000000E+00 0. -1.
</event>
<event>
 5    1  0.3269840E+002  0.1599642E+01  0.7818608E-02  0.3353752E+00
         11   -1    0    0    0    0  0.00000000000E+00  0.00000000000E+00  0.39999999674E+01  0.40000000000E+01  0.51100000000E-03 0. -1.
    9000002   -1    0    0    0    0 -0.00000000000E+00 -0.00000000000E+00  0.00000000000E+00  0.93800000000E+00  0.93800000000E+00 0. -1.
         11    1    1    2    0    0  0.33951966989E+00 -0.11650312721E+00  0.23015963077E+01  0.23294188996E+01  0.51100000000E-03 0. -1.
    9000002    1    1    2    0    0 -0.54744709482E+00  0.19877336450E+00  0.23583014143E+00  0.11290124125E+01  0.93800000000E+00 0. -1.
         22    1    1    2    0    0  0.20792742493E+00 -0.82270237290E-01  0.14625735182E+01  0.14795686879E+01  0.00000000000E+00 0.  1.
</event>
<event>
 5    1  0.3269840E+002  0.1599677E+01  0.7818608E-02  0.3353714E+00
         11   -1    0    0    0    0  0.00000000000E+00  0.00000000000E+00  0.39999999674E+01  0.40000000000E+01  0.51100000000E-03 0.  1.
    9000002   -1    0    0    0    0 -0.00000000000E+00 -0.00000000000E+00  0.00000000000E+00  0.93800000000E+00  0.93800000000E+00 0.  1.
         11    1    1    2    0    0 -0.57389846280E-01  0.21634908750E-01  0.83641168497E+00  0.83865751747E+00  0.51100000000E-03 0.  1.
    9000002    1    1    2    0    0  0.26955831417E+00 -0.10009439840E+00  0.55094965083E-01  0.98262914088E+00  0.93800000000E+00 0.  1.
         22    1    1    2    0    0 -0.21216846789E+00  0.78459489652E-01  0.31084933173E+01  0.31167133417E+01  0.00000000000E+00 0. -1.
</event>
<event>
 5    1  0.3269840E+002  0.1598896E+01  0.7818608E-02  0.3354562E+00
         11   -1    0    0    0    0  0.00000000000E+00  0.00000000000E+00  0.39999999674E+01  0.40000000000E+01  0.51100000000E-03 0. -1.
    9000002   -1    0    0    0    0 -0.00000000000E+00 -0.00000000000E+00  0.00000000000E+00  0.93800000000E+00  0.93800000000E+00 0.  1.
         11    1    1    2    0    0  0.53771158229E-02 -0.27003954203E-02  0.34349390575E-01  0.34876170430E-01  0.51100000000E-03 0. -1.
    9000002    1    1    2    0    0 -0.13120957849E+00 -0.21545327497E+00  0.42877553917E-01  0.97227493633E+00  0.93800000000E+00 0.  1.
         22    1    1    2    0    0  0.12583246267E+00  0.21815367039E+00  0.39227730229E+01  0.39308488932E+01  0.00000000000E+00 0. -1.
</event>
<event>
 5    1  0.3269840E+002  0.1599677E+01  0.7818608E-02  0.3353714E+00
         11   -1    0    0    0    0  0.00000000000E+00  0.00000000000E+00  0.39999999674E+01  0.40000000000E+01  0.51100000000E-03 0.  1.
    9000002   -1    0    0    0    0 -0.00000000000E+00 -0.00000000000E+00  0.00000000000E+00  0.93800000000E+00  0.93800000000E+00 0.  1.
         11    1    1    2    0    0 -0.61838096526E-01 -0.23662529702E-01  0.62606798136E+00  0.62955956342E+00  0.51100000000E-03 0. -1.
    9000002    1    1    2    0    0  0.38353205784E+00  0.14705981160E+00  0.11396720653E+00  0.10303183740E+01  0.93800000000E+00 0.  1.
         22    1    1    2    0    0 -0.32169396132E+00 -0.12339728190E+00  0.32599647795E+01  0.32781220626E+01  0.00000000000E+00 0.  1.
</event>
<event>
 5    1  0.3269840E+002  0.1573465E+01  0.7818608E-02  0.3382677E+00
         11   -1    0    0    0    0  0.00000000000E+00  0.00000000000E+00  0.39999999674E+01  0.40000000000E+01  0.51100000000E-03 0.  1.
    9000002   -1    0    0    0    0 -0.00000000000E+00 -0.00000000000E+00  0.00000000000E+00  0.93800000000E+00  0.93800000000E+00 0.  1.
         11    1    1    2    0    0  0.16978132312E+00 -0.15408561750E+00  0.14035708188E+01  0.14221741735E+01  0.51100000000E-03 0.  1.
    9000002    1    1    2    0    0  0.22547035473E-01  0.27073592534E+00  0.69624785401E-01  0.97902907047E+00  0.93800000000E+00 0.  1.
         22    1    1    2    0    0 -0.19232835860E+00 -0.11665030785E+00  0.25268043631E+01  0.25367967560E+01  0.00000000000E+00 0. -1.
</event>
<event>
 5    1  0.3269840E+002  0.1599636E+01  0.7818608E-02  0.3353759E+00
         11   -1    0    0    0    0  0.00000000000E+00  0.00000000000E+00  0.39999999674E+01  0.40000000000E+01  0.51100000000E-03 0. -1.
    9000002   -1    0    0    0    0 -0.00000000000E+00 -0.00000000000E+00  0.00000000000E+00  0.93800000000E+00  0.93800000000E+00 0. -1.
         11    1    1    2    0    0 -0.26731030766E+00  0.80719897681E-01  0.19146882589E+01  0.19349423486E+01  0.51100000000E-03 0. -1.
    9000002    1    1    2    0    0  0.51567258070E+00 -0.16516004480E+00  0.20222504010E+00  0.11017871926E+01  0.93800000000E+00 0. -1.
         22    1    1    2    0    0 -0.24836227304E+00  0.84440147115E-01  0.18830866684E+01  0.19012704589E+01  0.00000000000E+00 0.  1.
</event>
<event>
 5    1  0.3269840E+002  0.1599362E+01  0.7818608E-02  0.3354056E+00
         11   -1    0    0    0    0  0.00000000000E+00  0.00000000000E+00  0.39999999674E+01  0.40000000000E+01  0.51100000000E-03 0.  1.
    9000002   -1    0    0    0    0 -0.00000000000E+00 -0.00000000000E+00  0.00000000000E+00  0.93800000000E+00  0.93800000000E+00 0.  1.
         11    1    1    2    0    0 -0.15696036123E+00 -0.22316089715E+00  0.18195708778E+01  0.18399118950E+01  0.51100000000E-03 0.  1.
    9000002    1    1    2    0    0  0.34747279822E+00  0.42541589681E+00  0.20866439427E+00  0.11068427441E+01  0.93800000000E+00 0.  1.
         22    1    1    2    0    0 -0.19051243700E+00 -0.20225499966E+00  0.19717646953E+01  0.19912453609E+01  0.00000000000E+00 0.  1.
</event>
<event>
 5    1  0.3269840E+002  0.1599281E+01  0.7818608E-02  0.3354144E+00
         11   -1    0    0    0    0  0.00000000000E+00  0.00000000000E+00  0.39999999674E+01  0.40000000000E+01  0.51100000000E-03 0. -1.
    9000002   -1    0    0    0    0 -0.00000000000E+00 -0.00000000000E+00  0.00000000000E+00  0.93800000000E+00  0.93800000000E+00 0. -1.
         11    1    1    2    0    0 -0.52847145609E-01  0.14890622795E+00  0.12854163326E+01  0.12950912303E+01  0.51100000000E-03 0. -1.
    9000002    1    1    2    0    0  0.22462687715E+00 -0.43572929135E+00  0.16459768254E+00  0.10710992701E+01  0.93800000000E+00 0. -1.
         22    1    1    2    0    0 -0.17177973154E+00  0.28682306341E+00  0.25499859522E+01  0.25718094997E+01  0.00000000000E+00 0. -1.
</event>
<event>
 5    1  0.3269840E+002  0.1599662E+01  0.7818608E-02  0.3353730E+00
         11   -1    0    0    0    0  0.00000000000E+00  0.00000000000E+00  0.39999999674E+01  0.40000000000E+01  0.51100000000E-03 0. -1.
    9000002   -1    0    0    0    0 -0.00000000000E+00 -0.00000000000E+00  0.00000000000E+00  0.93800000000E+00  0.93800000000E+00 0.  1.
         11    1    1    2    0    0  0.14154824624E-01 -0.88101543541E-02  0.18174773799E+00  0.18251158666E+00  0.51100000000E-03 0. -1.
    9000002    1    1    2    0    0 -0.30653129114E+00  0.23005400485E+00  0.98882497083E-01  0.10180903820E+01  0.93800000000E+00 0.  1.
         22    1    1    2    0    0  0.29237646652E+00 -0.22124385049E+00  0.37193697323E+01  0.37373980314E+01  0.00000000000E+00 0. -1.
</event>
<event>
 5    1  0.3269840E+002  0.1598692E+01  0.7818608E-02  0.3354785E+00
         11   -1    0    0    0    0  0.00000000000E+00  0.00000000000E+00  0.39999999674E+01  0.40000000000E+01  0.51100000000E-03 0. -1.
    9000002   -1    0    0    0    0 -0.00000000000E+00 -0.00000000000E+00  0.00000000000E+00  0.93800000000E+00  0.93800000000E+00 0. -1.
         11    1    1    2    0    0  0.23762175728E-01  0.88555351640E-01  0.83676291261E+00  0.84177142048E+00  0.51100000000E-03 0. -1.
    9000002    1    1    2    0    0 -0.17842895030E-02 -0.32045293003E+00  0.69423448343E-01  0.99365833123E+00  0.93800000000E+00 0. -1.
         22    1    1    2    0    0 -0.21977886225E-01  0.23189757839E+00  0.30938136064E+01  0.31025702483E+01  0.00000000000E+00 0. -1.
</event>
<event>
 5    1  0.3269840E+002  0.1599676E+01  0.7818608E-02  0.3353716E+00
         11   -1    0    0    0    0  0.00000000000E+00  0.00000000000E+00  0.39999999674E+01  0.40000000000E+01  0.51100000000E-03 0.  1.
    9000002   -1    0    0    0    0 -0.00000000000E+00 -0.00000000000E+00  0.00000000000E+00  0.93800000000E+00  0.93800000000E+00 0.  1.
         11    1    1    2    0    0  0.55891514706E-02 -0.11272431119E-01  0.19542181018E+00  0.19582709550E+00  0.51100000000E-03 0.  1.
    9000002    1    1    2    0    0 -0.11502119037E+00  0.22023243225E+00  0.41004346299E-01  0.97121447418E+00  0.93800000000E+00 0.  1.
         22    1    1    2    0    0  0.10943203890E+00 -0.20896000113E+00  0.37635738109E+01  0.37709584303E+01  0.00000000000E+00 0.  1.
</event>
<event>
 5    1  0.3269840E+002  0.1599650E+01  0.7818608E-02  0.3353743E+00
         11   -1    0    0    0    0  0.00000000000E+00  0.00000000000E+00  0.39999999674E+01  0.40000000000E+01  0.51100000000E-03 0.  1.
    9000002   -1    0    0    0    0 -0.00000000000E+00 -0.00000000000E+00  0.00000000000E+00  0.93800000000E+00  0.93800000000E+00 0.  1.
         11    1    1    2    0    0 -0.20888572576E-01 -0.76368823947E-01  0.93256826214E+00  0.93592326310E+00  0.51100000000E-03 0.  1.
    9000002    1    1    2    0    0  0.11007810081E+00  0.32238077753E+00  0.77752855339E-01  0.10009675622E+01  0.93800000000E+00 0.  1.
         22    1    1    2    0    0 -0.89189528236E-01 -0.24601195358E+00  0.29896788499E+01  0.30011091747E+01  0.00000000000E+00 0.  1.
</event>
<event>
 5    1  0.3269840E+002  0.1599677E+01  0.7818608E-02  0.3353714E+00
         11   -1    0    0    0    0  0.00000000000E+00  0.00000000000E+00  0.39999999674E+01  0.40000000000E+01  0.51100000000E-03 0.  1.
    9000002   -1    0    0    0    0 -0.00000000000E+00 -0.00000000000E+00  0.00000000000E+00  0.93800000000E+00  0.93800000000E+00 0. -1.
         11    1    1    2    0    0 -0.71120920980E-01  0.21207740705E+00  0.19239221624E+01  0.19368819686E+01  0.51100000000E-03 0.  1.
    9000002    1    1    2    0    0  0.14324537283E+00 -0.42488171095E+00  0.13651328819E+00  0.10485817007E+01  0.93800000000E+00 0. -1.
         22    1    1    2    0    0 -0.72124451847E-01  0.21280430390E+00  0.19395645167E+01  0.19525363308E+01  0.00000000000E+00 0.  1.
</event>
<event>
 5    1  0.3269840E+002  0.1597648E+01  0.7818608E-02  0.3355920E+00
         11   -1    0    0    0    0  0.00000000000E+00  0.00000000000E+00  0.39999999674E+01  0.40000000000E+01  0.51100000000E-03 0.  1.
    9000002   -1    0    0    0    0 -0.00000000000E+00 -0.00000000000E+00  0.00000000000E+00  0.93800000000E+00  0.93800000000E+00 0. -1.
         11    1    1    2    0    0  0.15830347039E+00 -0.15355305423E+00  0.11838022428E+01  0.12041704781E+01  0.51100000000E-03 0.  1.
    9000002    1    1    2    0    0 -0.34440562493E+00  0.46327343104E+00  0.23337337998E+00  0.11258528505E+01  0.93800000000E+00 0. -1.
         22    1    1    2    0    0  0.18610215455E+00 -0.30972037681E+00  0.25828243446E+01  0.26079766714E+01  0.00000000000E+00 0.  1.
</event>
<event>
 5    1  0.3269840E+002  0.1584985E+01  0.7818608E-02  0.3369823E+00
         11   -1    0    0    0    0  0.00000000000E+00  0.00000000000E+00  0.39999999674E+01  0.40000000000E+01  0.51100000000E-03 0. -1.
    9000002   -1    0    0    0    0 -0.00000000000E+00 -0.00000000000E+00  0.00000000000E+00  0.93800000000E+00  0.93800000000E+00 0. -1.
         11    1    1    2    0    0  0.57025003561E-01 -0.73234443084E-01  0.18713383040E+01  0.18736388243E+01  0.51100000000E-03 0. -1.
    9000002    1    1    2    0    0 -0.90950801876E-01 -0.15216742662E+00  0.31787489998E-01  0.95513424114E+00  0.93800000000E+00 0. -1.
         22    1    1    2    0    0  0.33925798315E-01  0.22540186970E+00  0.20968741733E+01  0.21092269345E+01  0.00000000000E+00 0. -1.
</event>
<event>
 5    1  0.3269840E+002  0.1586884E+01  0.7818608E-02  0.3367724E+00
         11   -1    0    0    0    0  0.00000000000E+00  0.00000000000E+00  0.39999999674E+01  0.40000000000E+01  0.51100000000E-03 0. -1.
    9000002   -1    0    0    0    0 -0.00000000000E+00 -0.00000000000E+00  0.00000000000E+00  0.93800000000E+00  0.93800000000E+00 0. -1.
         11    1    1    2    0    0 -0.10542632824E+00 -0.18498928125E+00  0.17176098328E+01  0.17307569280E+01  0.51100000000E-03 0. -1.
    9000002    1    1    2    0    0  0.29718867561E+00  0.11915205022E+00  0.78717324920E-01  0.99426291152E+00  0.93800000000E+00 0. -1.
         22    1    1    2    0    0 -0.19176234738E+00  0.65837231022E-01  0.22036728096E+01  0.22129801605E+01  0.00000000000E+00 0. -1.
</event>
<event>
 5    1  0.3269840E+002  0.1595259E+01  0.7818608E-02  0.3358526E+00
         11   -1    0    0    0    0  0.00000000000E+00  0.00000000000E+00  0.39999999674E+01  0.40000000000E+01  0.51100000000E-03 0.  1.
    9000002   -1    0    0    0    0 -0.00000000000E+00 -0.00000000000E+00  0.00000000000E+00  0.93800000000E+00  0.93800000000E+00 0.  1.
         11    1    1    2    0    0 -0.76327898814E-01 -0.63425085437E-01  0.50430012243E+00  0.51397233798E+00  0.51100000000E-03 0.  1.
    9000002    1    1    2    0    0  0.24065127703E+00  0.26276760738E+00  0.88767861260E-01  0.10073150380E+01  0.93800000000E+00 0.  1.
         22    1    1    2    0    0 -0.16432337822E+00 -0.19934252195E+00  0.34069319837E+01  0.34167126240E+01  0.00000000000E+00 0.  1.
</event>
<event>
 5    1  0.3269840E+002  0.1590702E+01  0.7818608E-02  0.3363517E+00
         11   -1    0    0    0    0  0.00000000000E+00  0.00000000000E+00  0.39999999674E+01  0.40000000000E+01  0.51100000000E-03 0.  1.
    9000002   -1    0    0    0    0 -0.00000000000E+00 -0.00000000000E+00  0.00000000000E+00  0.93800000000E+00  0.93800000000E+00 0.  1.
         11    1    1    2    0    0 -0.94235749648E-01 -0.32375360703E+00  0.17200959620E+01  0.17528340350E+01  0.51100000000E-03 0.  1.
    9000002    1    1    2    0    0  0.32533892705E+00  0.82306761207E+00  0.60934694458E+00  0.14263356584E+01  0.93800000000E+00 0.  1.
         22    1    1    2    0    0 -0.23110317741E+00 -0.49931400504E+00  0.16705570607E+01  0.17588303066E+01  0.00000000000E+00 0.  1.
</event>
<event>
 5    1  0.3269840E+002  0.1597173E+01  0.7818608E-02  0.3356437E+00
         11   -1    0    0    0    0  0.00000000000E+00  0.00000000000E+00  0.39999999674E+01  0.40000000000E+01  0.51100000000E-03 0.  1.
    9000002   -1    0    0    0    0 -0.00000000000E+00 -0.00000000000E+00  0.00000000000E+00  0.93800000000E+00  0.93800000000E+00 0. -1.
         11    1    1    2    0    0  0.17005588451E-02  0.12913798480E-01  0.78071180502E+00  0.78082062070E+00  0.51100000000E-03 0.  1.
    9000002    1    1    2    0    0  0.23180594976E+00 -0.29011989799E-01  0.38112804363E-01  0.96740492026E+00  0.93800000000E+00 0. -1.
         22    1    1    2    0    0 -0.23350650860E+00  0.16098191319E-01  0.31811753580E+01  0.31897744590E+01  0.00000000000E+00 0.  1.
</event>
<event>
 5    1  0.3269840E+002  0.1599675E+01  0.7818608E-02  0.3353716E+00
         11   -1    0    0    0    0  0.00000000000E+00  0.00000000000E+00  0.39999999674E+01  0.40000000000E+01  0.51100000000E-03 0.  1.
    9000002   -1    0    0    0    0 -0.00000000000E+00 -0.00000000000E+00  0.00000000000E+00  0.93800000000E+00  0.93800000000E+00 0. -1.
         11    1    1    2    0    0  0.97562133980E-02  0.84865114216E-03  0.13278498305E+00  0.13314659872E+00  0.51100000000E-03 0. -1.
    9000002    1    1    2    0    0 -0.28094035766E+00 -0.24987767636E-01  0.52985592924E-01  0.98091964306E+00  0.93800000000E+00 0. -1.
         22    1    1    2    0    0  0.27118414426E+00  0.24139116494E-01  0.38142293914E+01  0.38239337582E+01  0.00000000000E+00 0.  1.
</event>
<event>
 5    1  0.3269840E+002  0.1599668E+01  0.7818608E-02  0.3353724E+00
         11   -1    0    0    0    0  0.00000000000E+00  0.00000000000E+00  0.39999999674E+01  0.40000000000E+01  0.51100000000E-03 0.  1.
    9000002   -1    0    0    0    0 -0.00000000000E+00 -0.00000000000E+00  0.00000000000E+00  0.93800000000E+00  0.93800000000E+00 0.  1.
         11    1    1    2    0    0  0.26059148150E-01 -0.20334950816E-01  0.39097869459E+00  0.39237378885E+00  0.51100000000E-03 0.  1.
    9000002    1    1    2    0    0 -0.27514695140E+00  0.18780088588E+00  0.74282393287E-01  0.99816676540E+00  0.93800000000E+00 0.  1.
         22    1    1    2    0    0  0.24908780325E+00 -0.16746593506E+00  0.35347388795E+01  0.35474594458E+01  0.00000000000E+00 0.  1.
</event>
<event>
 5    1  0.3269840E+002  0.1599273E+01  0.7818608E-02  0.3354153E+00
         11   -1    0    0    0    0  0.00000000000E+00  0.00000000000E+00  0.39999999674E+01  0.40000000000E+01  0.51100000000E-03 0. -1.
    9000002   -1    0    0    0    0 -0.00000000000E+00 -0.00000000000E+00  0.00000000000E+00  0.93800000000E+00  0.93800000000E+00 0.  1.
         11    1    1    2    0    0 -0.90843289675E-01  0.19372948110E+00  0.15898676667E+01  0.16042016936E+01  0.51100000000E-03 0. -1.
    9000002    1    1    2    0    0  0.21296471112E+00 -0.41185917337E+00  0.14666549196E+00  0.10565683666E+01  0.93800000000E+00 0.  1.
         22    1    1    2    0    0 -0.12212142144E+00  0.21812969228E+00  0.22634668087E+01  0.22772299397E+01  0.00000000000E+00 0. -1.
</event>
<event>
 5    1  0.3269840E+002  0.1587536E+01  0.7818608E-02  0.3367004E+00
         11   -1    0    0    0    0  0.00000000000E+00  0.00000000000E+00  0.39999999674E+01  0.40000000000E+01  0.51100000000E-03 0.  1.
    9000002   -1    0    0    0    0 -0.00000000000E+00 -0.00000000000E+00  0.00000000000E+00  0.93800000000E+00  0.93800000000E+00 0.  1.
         11    1    1    2    0    0  0.31736282905E+00 -0.96944276542E-01  0.20285593170E+01  0.20555219585E+01  0.51100000000E-03 0.  1.
    9000002    1    1    2    0    0 -0.37869057827E+00  0.30119320260E+00  0.17070954728E+00  0.10691630600E+01  0.93800000000E+00 0.  1.
         22    1    1    2    0    0  0.61327749223E-01 -0.20424892606E+00  0.18007311031E+01  0.18133149815E+01  0.00000000000E+00 0. -1.
</event>
<event>
 5    1  0.3269840E+002  0.1599635E+01  0.7818608E-02  0.3353760E+00
         11   -1    0    0    0    0  0.00000000000E+00  0.00000000000E+00  0.39999999674E+01  0.40000000000E+01  0.51100000000E-03 0.  1.
    9000002   -1    0    0    0    0 -0.00000000000E+00 -0.00000000000E+00  0.00000000000E+00  0.93800000000E+00  0.93800000000E+00 0.  1.
         11    1    1    2    0    0  0.68648357849E-01 -0.59696522035E-01  0.93763539365E+00  0.94203856838E+00  0.51100000000E-03 0.  1.
    9000002    1    1    2    0    0 -0.27576515263E+00  0.22356635266E+00  0.84584413143E-01  0.10064923529E+01  0.93800000000E+00 0.  1.
         22    1    1    2    0    0  0.20711679479E+00 -0.16386983063E+00  0.29777801606E+01  0.29894690787E+01  0.00000000000E+00 0.  1.
</event>
<event>
 5    1  0.3269840E+002  0.1569267E+01  0.7818608E-02  0.3387411E+00
         11   -1    0    0    0    0  0.00000000000E+00  0.00000000000E+00  0.39999999674E+01  0.40000000000E+01  0.51100000000E-03 0.  1.
    9000002   -1    0    0    0    0 -0.00000000000E+00 -0.00000000000E+00  0.00000000000E+00  0.93800000000E+00  0.93800000000E+00 0. -1.
         11    1    1    2    0    0 -0.68992773855E-02 -0.12918058538E+00  0.10510323551E+01  0.10589638786E+01  0.51100000000E-03 0.  1.
    9000002    1    1    2    0    0  0.28350417265E+00 -0.16170402316E+00  0.95798751514E-01  0.99776961660E+00  0.93800000000E+00 0. -1.
         22    1    1    2    0    0 -0.27660489526E+00  0.29088460853E+00  0.28531688608E+01  0.28812665048E+01  0.00000000000E+00 0.  1.
</event>
<event>
 5    1  0.3269840E+002  0.1592875E+01  0.7818608E-02  0.3361133E+00
         11   -1    0    0    0    0  0.00000000000E+00  0.00000000000E+00  0.39999999674E+01  0.40000000000E+01  0.51100000000E-03 0. -1.
    9000002   -1    0    0    0    0 -0.00000000000E+00 -0.00000000000E+00  0.00000000000E+00  0.93800000000E+00  0.93800000000E+00 0. -1.
         11    1    1    2    0    0 -0.42243247650E-02 -0.31104562519E-01  0.13329851658E+01  0.13333548110E+01  0.51100000000E-03 0. -1.
    9000002    1    1    2    0    0  0.28696395118E+00  0.48760183740E-01  0.61794027960E-01  0.98406725720E+00  0.93800000000E+00 0. -1.
         22    1    1    2    0    0 -0.28273962642E+00 -0.17655621221E-01  0.26052207736E+01  0.26205779318E+01  0.00000000000E+00 0. -1.
</event>
<event>
 5    1  0.3269840E+002  0.1599627E+01  0.7818608E-02  0.3353769E+00
         11   -1    0    0    0    0  0.00000000000E+00  0.00000000000E+00  0.39999999674E+01  0.40000000000E+01  0.51100000000E-03 0.  1.
    9000002   -1    0    0    0    0 -0.00000000000E+00 -0.00000000000E+00  0.00000000000E+00  0.93800000000E+00  0.93800000000E+00 0.  1.
         11    1    1    2    0    0  0.13411961856E+00  0.97489693640E-02  0.11792107708E+01  0.11868535788E+01  0.51100000000E-03 0.  1.
    9000002    1    1    2    0    0 -0.45524485821E+00 -0.11917092264E-01  0.14101271998E+00  0.10521969802E+01  0.93800000000E+00 0.  1.
         22    1    1    2    0    0  0.32112523965E+00  0.21681228999E-02  0.26797764766E+01  0.26989494410E+01  0.00000000000E+00 0.  1.
</event>
<event>
 5    1  0.3269840E+002  0.1599677E+01  0.7818608E-02  0.3353714E+00
         11   -1    0    0    0    0  0.00000000000E+00  0.00000000000E+00  0.39999999674E+01  0.40000000000E+01  0.51100000000E-03 0. -1.
    9000002   -1    0    0    0    0 -0.00000000000E+00 -0.00000000000E+00  0.00000000000E+00  0.93800000000E+00  0.93800000000E+00 0. -1.
         11    1    1    2    0    0  0.10543461949E+00  0.33544961842E-01  0.13762551858E+01  0.13806955932E+01  0.51100000000E-03 0. -1.
    9000002    1    1    2    0    0 -0.29956039867E+00 -0.96131191160E-01  0.66121647186E-01  0.99156124904E+00  0.93800000000E+00 0. -1.
         22    1    1    2    0    0  0.19412577919E+00  0.62586229319E-01  0.25576231344E+01  0.25657431578E+01  0.00000000000E+00 0. -1.
</event>
<event>
 5    1  0.3269840E+002  0.1592249E+01  0.7818608E-02  0.3361819E+00
         11   -1    0    0    0    0  0.00000000000E+00  0.00000000000E+00  0.39999999674E+01  0.40000000000E+01  0.51100000000E-03 0.  1.
    9000002   -1    0    0    0    0 -0.00000000000E+00 -0.00000000000E+00  0.00000000000E+00  0.93800000000E+00  0.93800000000E+00 0.  1.
         11    1    1    2    0    0 -0.48240755476E-01 -0.15356599235E-01  0.62877295359E+00  0.63080796121E+00  0.51100000000E-03 0.  1.
    9000002    1    1    2    0    0 -0.17297468555E+00  0.74419108008E-01  0.29023148209E-01  0.95715452703E+00  0.93800000000E+00 0.  1.
         22    1    1    2    0    0  0.22121544103E+00 -0.59062508773E-01  0.33422038656E+01  0.33500375118E+01  0.00000000000E+00 0.  1.
</event>
<event>
 5    1  0.3269840E+002  0.1599105E+01  0.7818608E-02  0.3354335E+00
         11   -1    0    0    0    0  0.00000000000E+00  0.00000000000E+00  0.39999999674E+01  0.40000000000E+01  0.51100000000E-03 0. -1.
    9000002   -1    0    0    0    0 -0.00000000000E+00 -0.00000000000E+00  0.00000000000E+00  0.93800000000E+00  0.93800000000E+00 0.  1.
         11    1    1    2    0    0 -0.59254713718E-01 -0.16868786515E+00  0.17433373815E+01  0.17524817271E+01  0.51100000000E-03 0. -1.
    9000002    1    1    2    0    0  0.69029629760E-01  0.38526762474E+00  0.10369423490E+00  0.10216617477E+01  0.93800000000E+00 0.  1.
         22    1    1    2    0    0 -0.97749160414E-02 -0.21657975959E+00  0.21529683510E+01  0.21638565252E+01  0.00000000000E+00 0. -1.
</event>
<event>
 5    1  0.3269840E+002  0.1599669E+01  0.7818608E-02  0.3353722E+00
         11   -1    0    0    0    0  0.00000000000E+00  0.00000000000E+00  0.39999999674E+01  0.40000000000E+01  0.51100000000E-03 0.  1.
    9000002   -1    0    0    0    0 -0.00000000000E+00 -0.00000000000E+00  0.00000000000E+00  0.93800000000E+00  0.93800000000E+00 0. -1.
         11    1    1    2    0    0  0.83706624978E-01 -0.18529219044E+00  0.15639835273E+01  0.15771444860E+01  0.51100000000E-03 0.  1.
    9000002    1    1    2    0    0 -0.19942418365E+00  0.45945046889E+00  0.17176285785E+00  0.10771310123E+01  0.93800000000E+00 0. -1.
         22    1    1    2    0    0  0.11571755867E+00 -0.27415827845E+00  0.22642535822E+01  0.22837245017E+01  0.00000000000E+00 0.  1.
</event>
<event>
 5    1  0.3269840E+002  0.1597940E+01  0.7818608E-02  0.3355602E+00
         11   -1    0    0    0    0  0.00000000000E+00  0.00000000000E+00  0.39999999674E+01  0.40000000000E+01  0.51100000000E-03 0. -1.
    9000002   -1    0    0    0    0 -0.00000000000E+00 -0.00000000000E+00  0.00000000000E+00  0.93800000000E+00  0.93800000000E+00 0.  1.
         11    1    1    2    0    0  0.23057846977E+00 -0.29492941196E+00  0.19959969793E+01  0.20308013175E+01  0.51100000000E-03 0. -1.
    9000002    1    1    2    0    0 -0.33614220497E+00  0.56566169981E+00  0.30796119348E+00  0.11864437775E+01  0.93800000000E+00 0.  1.
         22    1    1    2    0    0  0.10556373520E+00 -0.27073228785E+00  0.16960417946E+01  0.17207549049E+01  0.00000000000E+00 0.  1.
</event>
<event>
 5    1  0.3269840E+002  0.1599639E+01  0.7818608E-02  0.3353756E+00
         11   -1    0    0    0    0  0.00000000000E+00  0.00000000000E+00  0.39999999674E+01  0.40000000000E+01  0.51100000000E-03 0.  1.
    9000002   -1    0    0    0    0 -0.00000000000E+00 -0.00000000000E+00  0.00000000000E+00  0.93800000000E+00  0.93800000000E+00 0. -1.
         11    1    1    2    0    0  0.12304429880E-01  0.48991604567E-02  0.15482153878E+00  0.15538780762E+00  0.51100000000E-03 0.  1.
    9000002    1    1    2    0    0 -0.24136304977E+00 -0.12013476507E+00  0.48391288034E-01  0.97717664745E+00  0.93800000000E+00 0. -1.
         22    1    1    2    0    0  0.22905861989E+00  0.11523560461E+00  0.37967871405E+01  0.38054355449E+01  0.00000000000E+00 0.  1.
</event>
<event>
 5    1  0.3269840E+002  0.1599668E+01  0.7818608E-02  0.3353724E+00
         11   -1    0    0    0    0  0.00000000000E+00  0.00000000000E+00  0.39999999674E+01  0.40000000000E+01  0.51100000000E-03 0. -1.
    9000002   -1    0    0    0    0 -0.00000000000E+00 -0.00000000000E+00  0.00000000000E+00  0.93800000000E+00  0.93800000000E+00 0. -1.
         11    1    1    2    0    0 -0.14233940307E-01 -0.13515286476E-01  0.30884488862E+00  0.30946840610E+00  0.51100000000E-03 0. -1.
    9000002    1    1    2    0    0  0.16874071622E+00  0.15359728991E+00  0.34538423380E-01  0.96597228711E+00  0.93800000000E+00 0. -1.
         22    1    1    2    0    0 -0.15450677592E+00 -0.14008200344E+00  0.36566166554E+01  0.36625593068E+01  0.00000000000E+00 0. -1.
</event>
<event>
 5    1  0.3269840E+002  0.1599677E+01  0.7818608E-02  0.3353714E+00
         11   -1    0    0    0    0  0.00000000000E+00  0.00000000000E+00  0.39999999674E+01  0.40000000000E+01  0.51100000000E-03 0. -1.
    9000002   -1    0    0    0    0 -0.00000000000E+00 -0.00000000000E+00  0.00000000000E+00  0.93800000000E+00  0.93800000000E+00 0.  1.
         11    1    1    2    0    0  0.12455356600E+00  0.13945131231E+00  0.17663031558E+01  0.17761721084E+01  0.51100000000E-03 0. -1.
    9000002    1    1    2    0    0 -0.27388157943E+00 -0.30533011522E+00  0.11363026941E+00  0.10300453567E+01  0.93800000000E+00 0.  1.
         22    1    1    2    0    0  0.14932801343E+00  0.16587880291E+00  0.21200665422E+01  0.21317825349E+01  0.00000000000E+00 0. -1.
</event>
<event>
 5    1  0.3269840E+002  0.1598118E+01  0.7818608E-02  0.3355409E+00
         11   -1    0    0    0    0  0.00000000000E+00  0.00000000000E+00  0.39999999674E+01  0.40000000000E+01  0.51100000000E-03 0. -1.
    9000002   -1    0    0    0    0 -0.00000000000E+00 -0.00000000000E+00  0.00000000000E+00  0.93800000000E+00  0.93800000000E+00 0.  1.
         11    1    1    2    0    0 -0.16989257093E-01 -0.32359874858E-01  0.25114989932E+00  0.25379584198E+00  0.51100000000E-03 0. -1.
    9000002    1    1    2    0    0  0.20741916194E+00  0.14833665231E+00  0.44408275405E-01  0.97305835698E+00  0.93800000000E+00 0.  1.
         22    1    1    2    0    0 -0.19042990485E+00 -0.11597677745E+00  0.37044417926E+01  0.37111458010E+01  0.00000000000E+00 0. -1.
</event>
<event>
 5    1  0.3269840E+002  0.1598450E+01  0.7818608E-02  0.3355047E+00
         11   -1    0    0    0    0  0.00000000000E+00  0.00000000000E+00  0.39999999674E+01  0.40000000000E+01  0.51100000000E-03 0.  1.
    9000002   -1    0    0    0    0 -0.00000000000E+00 -0.00000000000E+00  0.00000000000E+00  0.93800000000E+00  0.93800000000E+00 0. -1.
         11    1    1    2    0    0 -0.21453973847E+00  0.15237445039E+00  0.22304857748E+01  0.22459546579E+01  0.51100000000E-03 0.  1.
    9000002    1    1    2    0    0  0.43906176905E+00 -0.25575096908E+00  0.17809859335E+00  0.10815483827E+01  0.93800000000E+00 0. -1.
         22    1    1    2    0    0 -0.22452203057E+00  0.10337651868E+00  0.15914155992E+01  0.16104969594E+01  0.00000000000E+00 0.  1.
</event>
<event>
 5    1  0.3269840E+002  0.1599610E+01  0.7818608E-02  0.3353787E+00
         11   -1    0    0    0    0  0.00000000000E+00  0.00000000000E+00  0.39999999674E+01  0.40000000000E+01  0.51100000000E-03 0.  1.
    9000002   -1    0    0    0    0 -0.00000000000E+00 -0.00000000000E+00  0.00000000000E+00  0.93800000000E+00  0.93800000000E+00 0. -1.
         11    1    1    2    0    0  0.33949405974E-01 -0.64498314973E-01  0.61119569699E+00  0.61552663301E+00  0.51100000000E-03 0.  1.
    9000002    1    1    2    0    0 -0.17948670296E+00  0.38106288448E+00  0.12006971635E+00  0.10352222637E+01  0.93800000000E+00 0. -1.
         22    1    1    2    0    0  0.14553729699E+00 -0.31656456950E+00  0.32687345540E+01  0.32872511033E+01  0.00000000000E+00 0.  1.
</event>
<event>
 5    1  0.3269840E+002  0.1599479E+01  0.7818608E-02  0.3353930E+00
         11   -1    0    0    0    0  0.00000000000E+00  0.00000000000E+00  0.39999999674E+01  0.40000000000E+01  0.51100000000E-03 0.  1.
    9000002   -1    0    0    0    0 -0.00000000000E+00 -0.00000000000E+00  0.00000000000E+00  0.93800000000E+00  0.93800000000E+00 0. -1.
         11    1    1    2    0    0  0.87566611818E-01 -0.20192471574E-01  0.14381409151E+01  0.14409459394E+01  0.51100000000E-03 0.  1.
    9000002    1    1    2    0    0 -0.28391080362E+00  0.65009906136E-01  0.56701543746E-01  0.98381436124E+00  0.93800000000E+00 0. -1.
         22    1    1    2    0    0  0.19634419181E+00 -0.44817434562E-01  0.25051575085E+01  0.25132396994E+01  0.00000000000E+00 0.  1.
</event>
<event>
 5    1  0.3269840E+002  0.1599476E+01  0.7818608E-02  0.3353932E+00
         11   -1    0    0    0    0  0.00000000000E+00  0.00000000000E+00  0.39999999674E+01  0.40000000000E+01  0.51100000000E-03 0. -1.
    9000002   -1    0    0    0    0 -0.00000000000E+00 -0.00000000000E+00  0.00000000000E+00  0.93800000000E+00  0.93800000000E+00 0. -1.
         11    1    1    2    0    0  0.10384986685E+00 -0.24100016478E+00  0.11552049189E+01  0.11846368811E+01  0.51100000000E-03 0. -1.
    9000002    1    1    2    0    0 -0.27002718056E+00  0.73584705554E+00  0.45039474099E+00  0.13027221462E+01  0.93800000000E+00 0. -1.
         22    1    1    2    0    0  0.16617731371E+00 -0.49484689076E+00  0.23944003075E+01  0.24506409728E+01  0.00000000000E+00 0. -1.
</event>
<event>
 5    1  0.3269840E+002  0.1595899E+01  0.7818608E-02  0.3357826E+00
         11   -1    0    0    0    0  0.00000000000E+00  0.00000000000E+00  0.39999999674E+01  0.40000000000E+01  0.51100000000E-03 0. -1.
    9000002   -1    0    0    0    0 -0.00000000000E+00 -0.00000000000E+00  0.00000000000E+00  0.93800000000E+00  0.93800000000E+00 0. -1.
         11    1    1    2    0    0 -0.17523977282E+00 -0.58860693656E-02  0.21938639390E+01  0.22008595747E+01  0.51100000000E-03 0. -1.
    9000002    1    1    2    0    0  0.33270295878E+00 -0.11903011946E+00  0.86804752250E-01  0.10061006377E+01  0.93800000000E+00 0. -1.
         22    1    1    2    0    0 -0.15746318596E+00  0.12491618883E+00  0.17193312762E+01  0.17310397876E+01  0.00000000000E+00 0.  1.
</event>
<event>
 5    1  0.3269840E+002  0.1599512E+01  0.7818608E-02  0.3353893E+00
         11   -1    0    0    0    0  0.00000000000E+00  0.00000000000E+00  0.39999999674E+01  0.40000000000E+01  0.51100000000E-03 0.  1.
    9000002   -1    0    0    0    0 -0.00000000000E+00 -0.00000000000E+00  0.00000000000E+00  0.93800000000E+00  0.93800000000E+00 0. -1.
         11    1    1    2    0    0 -0.10109516386E+00 -0.14273426013E+00  0.16180337292E+01  0.16274602027E+01  0.51100000000E-03 0.  1.
    9000002    1    1    2    0    0  0.21254325240E+00  0.32413331342E+00  0.10131549025E+00  0.10199734642E+01  0.93800000000E+00 0. -1.
         22    1    1    2    0    0 -0.11144808854E+00 -0.18139905328E+00  0.22806507479E+01  0.22905663332E+01  0.00000000000E+00 0.  1.
</event>
<event>
 5    1  0.3269840E+002  0.1599673E+01  0.7818608E-02  0.3353719E+00
         11   -1    0    0    0    0  0.00000000000E+00  0.00000000000E+00  0.39999999674E+01  0.40000000000E+01  0.51100000000E-03 0. -1.
    9000002   -1    0    0    0    0 -0.00000000000E+00 -0.00000000000E+00  0.00000000000E+00  0.93800000000E+00  0.93800000000E+00 0. -1.
         11    1    1    2    0    0 -0.22865265417E+00 -0.27427039476E+00  0.18261597307E+01  0.18607433753E+01  0.51100000000E-03 0. -1.
    9000002    1    1    2    0    0  0.45222831348E+00  0.55011200505E+00  0.36364207200E+00  0.12325636787E+01  0.93800000000E+00 0. -1.
         22    1    1    2    0    0 -0.22357565932E+00 -0.27584161030E+00  0.18101981647E+01  0.18446929459E+01  0.00000000000E+00 0. -1.
</event>
<event>
 5    1  0.3269840E+002  0.1599670E+01  0.7818608E-02  0.3353721E+00
         11   -1    0    0    0    0  0.00000000000E+00  0.00000000000E+00  0.39999999674E+01  0.40000000000E+01  0.51100000000E-03 0. -1.
    9000002   -1    0    0    0    0 -0.00000000000E+00 -0.00000000000E+00  0.00000000000E+00  0.93800000000E+00  0.93800000000E+00 0.  1.
         11    1    1    2    0    0 -0.52322668940E-02  0.12319907427E-02  0.74611175070E-01  0.74806303106E-01  0.51100000000E-03 0. -1.
    9000002    1    1    2    0    0  0.24242563624E+00 -0.58490227295E-01  0.41316086013E-01  0.97146400590E+00  0.93800000000E+00 0.  1.
         22    1    1    2    0    0 -0.23719336935E+00  0.57258236553E-01  0.38840727063E+01  0.38917296910E+01  0.00000000000E+00 0. -1.
</event>
<event>
 5    1  0.3269840E+002  0.1599676E+01  0.7818608E-02  0.3353715E+00
         11   -1    0    0    0    0  0.00000000000E+00  0.00000000000E+00  0.39999999674E+01  0.40000000000E+01  0.51100000000E-03 0.  1.
    9000002   -1    0    0    0    0 -0.00000000000E+00 -0.00000000000E+00  0.00000000000E+00  0.93800000000E+00  0.93800000000E+00 0. -1.
         11    1    1    2    0    0 -0.27291945708E+00  0.31714232863E+00  0.23518985776E+01  0.23888263786E+01  0.51100000000E-03 0.  1.
    9000002    1    1    2    0    0  0.42926595719E+00 -0.49929905972E+00  0.30657555328E+00  0.11863394889E+01  0.93800000000E+00 0. -1.
         22    1    1    2    0    0 -0.15634650011E+00  0.18215673109E+00  0.13415258365E+01  0.13628341326E+01  0.00000000000E+00 0.  1.
</event>
<event>
 5    1  0.3269840E+002  0.1599676E+01  0.7818608E-02  0.3353715E+00
         11   -1    0    0    0    0  0.00000000000E+00  0.00000000000E+00  0.39999999674E+01  0.40000000000E+01  0.51100000000E-03 0.  1.
    9000002   -1    0    0    0    0 -0.00000000000E+00 -0.00000000000E+00  0.00000000000E+00  0.93800000000E+00  0.93800000000E+00 0. -1.
         11    1    1    2    0    0 -0.86417746716E-01 -0.11542423532E+00  0.14312124812E+01  0.14384575797E+01  0.51100000000E-03 0.  1.
    9000002    1    1    2    0    0  0.23799987407E+00  0.31496268976E+00  0.10505160355E+00  0.10230959268E+01  0.93800000000E+00 0. -1.
         22    1    1    2    0    0 -0.15158212735E+00 -0.19953845444E+00  0.24637358826E+01  0.24764464935E+01  0.00000000000E+00 0.  1.
</event>
<event>
 5    1  0.3269840E+002  0.1584795E+01  0.7818608E-02  0.3370034E+00
         11   -1    0    0    0    0  0.00000000000E+00  0.00000000000E+00  0.39999999674E+01  0.40000000000E+01  0.51100000000E-03 0.  1.
    9000002   -1    0    0    0    0 -0.00000000000E+00 -0.00000000000E+00  0.00000000000E+00  0.93800000000E+00  0.93800000000E+00 0. -1.
         11    1    1    2    0    0 -0.76849564657E-01 -0.21607047935E+00  0.24881305017E+01  0.24986768423E+01  0.51100000000E-03 0.  1.
    9000002    1    1    2    0    0 -0.67007233385E-01  0.44815436224E+00  0.15252393941E+00  0.10528247023E+01  0.93800000000E+00 0. -1.
         22    1    1    2    0    0  0.14385679804E+00 -0.23208388289E+00  0.13593455263E+01  0.13864984554E+01  0.00000000000E+00 0.  1.
</event>
<event>
 5    1  0.3269840E+002  0.1599655E+01  0.7818608E-02  0.3353738E+00
         11   -1    0    0    0    0  0.00000000000E+00  0.00000000000E+00  0.39999999674E+01  0.40000000000E+01  0.51100000000E-03 0. -1.
    9000002   -1    0    0    0    0 -0.00000000000E+00 -0.00000000000E+00  0.00000000000E+00  0.93800000000E+00  0.93800000000E+00 0.  1.
         11    1    1    2    0    0 -0.34378808114E+00  0.17171652411E+00  0.18537540721E+01  0.18931669843E+01  0.51100000000E-03 0. -1.
    9000002    1    1    2    0    0  0.66002692984E+00 -0.32776340513E+00  0.39218402742E+00  0.12556738069E+01  0.93800000000E+00 0.  1.
         22    1    1    2    0    0 -0.31623884870E+00  0.15604688101E+00  0.17540618678E+01  0.17891592089E+01  0.00000000000E+00 0. -1.
</event>
<event>
 5    1  0.3269840E+002  0.1599663E+01  0.7818608E-02  0.3353729E+00
         11   -1    0    0    0    0  0.00000000000E+00  0.00000000000E+00  0.39999999674E+01  0.40000000000E+01  0.51100000000E-03 0.  1.
    9000002   -1    0    0    0    0 -0.00000000000E+00 -0.00000000000E+00  0.00000000000E+00  0.93800000000E+00  0.93800000000E+00 0. -1.
         11    1    1    2    0    0 -0.35966088683E-02 -0.18001134778E-01  0.32054131515E+00  0.32106692805E+00  0.51100000000E-03 0.  1.
    9000002    1    1    2    0    0  0.70559788348E-01  0.20839420917E+00  0.32097556442E-01  0.96399226308E+00  0.93800000000E+00 0. -1.
         22    1    1    2    0    0 -0.66963179480E-01 -0.19039307440E+00  0.36473610958E+01  0.36529408089E+01  0.00000000000E+00 0.  1.
</event>
<event>
 5    1  0.3269840E+002  0.1599672E+01  0.7818608E-02  0.3353720E+00
         11   -1    0    0    0    0  0.00000000000E+00  0.00000000000E+00  0.39999999674E+01  0.40000000000E+01  0.51100000000E-03 0. -1.
    9000002   -1    0    0    0    0 -0.00000000000E+00 -0.00000000000E+00  0.00000000000E+00  0.93800000000E+00  0.93800000000E+00 0.  1.
         11    1    1    2    0    0  0.10146320335E+00 -0.84855785186E-01  0.11269658185E+01  0.11347015040E+01  0.51100000000E-03 0. -1.
    9000002    1    1    2    0    0 -0.34152603834E+00  0.28544710597E+00  0.13446807317E+00  0.10469220352E+01  0.93800000000E+00 0.  1.
         22    1    1    2    0    0  0.24006283499E+00 -0.20059132078E+00  0.27385660757E+01  0.27563764608E+01  0.00000000000E+00 0. -1.
</event>
<event>
 5    1  0.3269840E+002  0.1599284E+01  0.7818608E-02  0.3354141E+00
         11   -1    0    0    0    0  0.00000000000E+00  0.00000000000E+00  0.39999999674E+01  0.40000000000E+01  0.51100000000E-03 0.  1.
    9000002   -1    0    0    0    0 -0.00000000000E+00 -0.00000000000E+00  0.00000000000E+00  0.93800000000E+00  0.93800000000E+00 0. -1.
         11    1    1    2    0    0  0.16354069323E+00 -0.58485659036E-01  0.10912472059E+01  0.11049827402E+01  0.51100000000E-03 0.  1.
    9000002    1    1    2    0    0 -0.50921730249E+00  0.15843789286E+00  0.19619417126E+00  0.10966954818E+01  0.93800000000E+00 0. -1.
         22    1    1    2    0    0  0.34567660926E+00 -0.99952233823E-01  0.27125585902E+01  0.27363217779E+01  0.00000000000E+00 0.  1.
</event>
<event>
 5    1  0.3269840E+002  0.1599674E+01  0.7818608E-02  0.3353717E+00
         11   -1    0    0    0    0  0.00000000000E+00  0.00000000000E+00  0.39999999674E+01  0.40000000000E+01  0.51100000000E-03 0.  1.
    9000002   -1    0    0    0    0 -0.00000000000E+00 -0.00000000000E+00  0.00000000000E+00  0.93800000000E+00  0.93800000000E+00 0. -1.
         11    1    1    2    0    0  0.82899030705E-01  0.40958149395E-01  0.83402781738E+00  0.83913793895E+00  0.51100000000E-03 0. -1.
    9000002    1    1    2    0    0 -0.38460199697E+00 -0.18325802662E+00  0.12285435022E+00  0.10375159718E+01  0.93800000000E+00 0. -1.
         22    1    1    2    0    0  0.30170296626E+00  0.14229987722E+00  0.30431177998E+01  0.30613460892E+01  0.00000000000E+00 0.  1.
</event>
<event>
 5    1  0.3269840E+002  0.1599677E+01  0.7818608E-02  0.3353714E+00
         11   -1    0    0    0    0  0.00000000000E+00  0.00000000000E+00  0.39999999674E+01  0.40000000000E+01  0.51100000000E-03 0.  1.
    9000002   -1    0    0    0    0 -0.00000000000E+00 -0.00000000000E+00  0.00000000000E+00  0.93800000000E+00  0.93800000000E+00 0. -1.
         11    1    1    2    0    0 -0.34040139229E-01 -0.38901990310E+00  0.17525338177E+01  0.17955139262E+01  0.51100000000E-03 0.  1.
    9000002    1    1    2    0    0  0.67986372974E-01  0.78665844214E+00  0.45765129403E+00  0.13087178299E+01  0.93800000000E+00 0. -1.
         22    1    1    2    0    0 -0.33946233745E-01 -0.39763853903E+00  0.17898148557E+01  0.18337682438E+01  0.00000000000E+00 0.  1.
</event>
<event>
 5    1  0.3269840E+002  0.1583670E+01  0.7818608E-02  0.3371280E+00
         11   -1    0    0    0    0  0.00000000000E+00  0.00000000000E+00  0.39999999674E+01  0.40000000000E+01  0.51100000000E-03 0.  1.
    9000002   -1    0    0    0    0 -0.00000000000E+00 -0.00000000000E+00  0.00000000000E+00  0.93800000000E+00  0.93800000000E+00 0.  1.
         11    1    1    2    0    0 -0.15768778836E+00  0.26802206321E+00  0.19183976034E+01  0.19434379051E+01  0.51100000000E-03 0.  1.
    9000002    1    1    2    0    0  0.10874012253E-01 -0.52423920310E+00  0.20390381574E+00  0.10937850576E+01  0.93800000000E+00 0.  1.
         22    1    1    2    0    0  0.14681377611E+00  0.25621713989E+00  0.18776985482E+01  0.19007770373E+01  0.00000000000E+00 0.  1.
</event>
<event>
 5    1  0.3269840E+002  0.1522613E+01  0.7818608E-02  0.3441892E+00
         11   -1    0    0    0    0  0.00000000000E+00  0.00000000000E+00  0.39999999674E+01  0.40000000000E+01  0.51100000000E-03 0.  1.
    9000002   -1    0    0    0    0 -0.00000000000E+00 -0.00000000000E+00  0.00000000000E+00  0.93800000000E+00  0.93800000000E+00 0.  1.
         11    1    1    2    0    0 -0.71077765737E-01 -0.20726381928E+00  0.21282447682E+01  0.21394944248E+01  0.51100000000E-03 0.  1.
    9000002    1    1    2    0    0 -0.22983960409E+00 -0.11352333290E+00  0.10526192241E+00  0.97807865892E+00  0.93800000000E+00 0.  1.
         22    1    1    2    0    0  0.30091736982E+00  0.32078715218E+00  0.17664932768E+01  0.18204269163E+01  0.00000000000E+00 0.  1.
</event>
<event>
 5    1  0.3269840E+002  0.1599677E+01  0.7818608E-02  0.3353714E+00
         11   -1    0    0    0    0  0.00000000000E+00  0.00000000000E+00  0.39999999674E+01  0.40000000000E+01  0.51100000000E-03 0. -1.
    9000002   -1    0    0    0    0 -0.00000000000E+00 -0.00000000000E+00  0.00000000000E+00  0.93800000000E+00  0.93800000000E+00 0. -1.
         11    1    1    2    0    0 -0.21743184709E+00 -0.35589728482E+00  0.25223056068E+01  0.25565534065E+01  0.51100000000E-03 0. -1.
    9000002    1    1    2    0    0  0.32165610125E+00  0.52684849324E+00  0.26684906575E+00  0.11541596104E+01  0.93800000000E+00 0. -1.
         22    1    1    2    0    0 -0.10422425415E+00 -0.17095120843E+00  0.12108452948E+01  0.12272869831E+01  0.00000000000E+00 0. -1.
</event>
<event>
 5    1  0.3269840E+002  0.1548105E+01  0.7818608E-02  0.3411688E+00
         11   -1    0    0    0    0  0.00000000000E+00  0.00000000000E+00  0.39999999674E+01  0.40000000000E+01  0.51100000000E-03 0.  1.
    9000002   -1    0    0    0    0 -0.00000000000E+00 -0.00000000000E+00  0.00000000000E+00  0.93800000000E+00  0.93800000000E+00 0.  1.
         11    1    1    2    0    0 -0.25069089486E+00  0.10026895610E+00  0.19759198830E+01  0.19942816836E+01  0.51100000000E-03 0.  1.
    9000002    1    1    2    0    0  0.14778086438E+00  0.21535284808E+00  0.86069839536E-01  0.97748046033E+00  0.93800000000E+00 0.  1.
         22    1    1    2    0    0  0.10291003048E+00 -0.31562180418E+00  0.19380102448E+01  0.19662378561E+01  0.00000000000E+00 0.  1.
</event>
<event>
 5    1  0.3269840E+002  0.1599485E+01  0.7818608E-02  0.3353923E+00
         11   -1    0    0    0    0  0.00000000000E+00  0.00000000000E+00  0.39999999674E+01  0.40000000000E+01  0.51100000000E-03 0.  1.
    9000002   -1    0    0    0    0 -0.00000000000E+00 -0.00000000000E+00  0.00000000000E+00  0.93800000000E+00  0.93800000000E+00 0. -1.
         11    1    1    2    0    0  0.25859167685E-01 -0.59126852839E-01  0.80055734532E+00  0.80315440953E+00  0.51100000000E-03 0.  1.
    9000002    1    1    2    0    0 -0.70031222429E-01  0.25908937728E+00  0.48068221302E-01  0.97682456533E+00  0.93800000000E+00 0. -1.
         22    1    1    2    0    0  0.44172054745E-01 -0.19996252444E+00  0.31513744007E+01  0.31580210251E+01  0.00000000000E+00 0.  1.
</event>
<event>
 5    1  0.3269840E+002  0.1599533E+01  0.7818608E-02  0.3353870E+00
         11   -1    0    0    0    0  0.00000000000E+00  0.00000000000E+00  0.39999999674E+01  0.40000000000E+01  0.51100000000E-03 0.  1.
    9000002   -1    0    0    0    0 -0.00000000000E+00 -0.00000000000E+00  0.00000000000E+00  0.93800000000E+00  0.93800000000E+00 0. -1.
         11    1    1    2    0    0  0.13445294183E-01 -0.31853733820E+00  0.23533172254E+01  0.23748155794E+01  0.51100000000E-03 0.  1.
    9000002    1    1    2    0    0 -0.21426029490E-02  0.52708979754E+00  0.19121901108E+00  0.10928114913E+01  0.93800000000E+00 0. -1.
         22    1    1    2    0    0 -0.11302691234E-01 -0.20855245935E+00  0.14554637309E+01  0.14703729293E+01  0.00000000000E+00 0. -1.
</event>
<event>
 5    1  0.3269840E+002  0.1597789E+01  0.7818608E-02  0.3355766E+00
         11   -1    0    0    0    0  0.00000000000E+00  0.00000000000E+00  0.39999999674E+01  0.40000000000E+01  0.51100000000E-03 0.  1.
    9000002   -1    0    0    0    0 -0.00000000000E+00 -0.00000000000E+00  0.00000000000E+00  0.93800000000E+00  0.93800000000E+00 0.  1.
         11    1    1    2    0    0 -0.17458999990E-01  0.11688793999E-01  0.75168391141E-01  0.78051218655E-01  0.51100000000E-03 0.  1.
    9000002    1    1    2    0    0  0.22461726005E+00 -0.28108903710E+00  0.88433231446E-01  0.10085278364E+01  0.93800000000E+00 0.  1.
         22    1    1    2    0    0 -0.20715826006E+00  0.26940024310E+00  0.38363983448E+01  0.38514209450E+01  0.00000000000E+00 0.  1.
</event>
<event>
 5    1  0.3269840E+002  0.1599675E+01  0.7818608E-02  0.3353716E+00
         11   -1    0    0    0    0  0.00000000000E+00  0.00000000000E+00  0.39999999674E+01  0.40000000000E+01  0.51100000000E-03 0.  1.
    9000002   -1    0    0    0    0 -0.00000000000E+00 -0.00000000000E+00  0.00000000000E+00  0.93800000000E+00  0.93800000000E+00 0.  1.
         11    1    1    2    0    0 -0.15646724947E-01 -0.12049864913E+00  0.11434949920E+01  0.11499329555E+01  0.51100000000E-03 0.  1.
    9000002    1    1    2    0    0  0.49647667680E-01  0.40609532471E+00  0.11303550027E+00  0.10295626877E+01  0.93800000000E+00 0.  1.
         22    1    1    2    0    0 -0.34000942733E-01 -0.28559667557E+00  0.27434694751E+01  0.27585043567E+01  0.00000000000E+00 0.  1.
</event>
<event>
 5    1  0.3269840E+002  0.1527715E+01  0.7818608E-02  0.3435760E+00
         11   -1    0    0    0    0  0.00000000000E+00  0.00000000000E+00  0.39999999674E+01  0.40000000000E+01  0.51100000000E-03 0.  1.
    9000002   -1    0    0    0    0 -0.00000000000E+00 -0.00000000000E+00  0.00000000000E+00  0.93800000000E+00  0.93800000000E+00 0. -1.
         11    1    1    2    0    0  0.11916616111E-01 -0.33106341416E+00  0.13794166599E+01  0.14186386336E+01  0.51100000000E-03 0.  1.
    9000002    1    1    2    0    0 -0.78871730346E-01  0.65208763010E-01  0.61428441347E-01  0.94556352829E+00  0.93800000000E+00 0. -1.
         22    1    1    2    0    0  0.66955114236E-01  0.26585465115E+00  0.25591548661E+01  0.25737978381E+01  0.00000000000E+00 0.  1.
</event>
<event>
 5    1  0.3269840E+002  0.1599194E+01  0.7818608E-02  0.3354239E+00
         11   -1    0    0    0    0  0.00000000000E+00  0.00000000000E+00  0.39999999674E+01  0.40000000000E+01  0.51100000000E-03 0.  1.
    9000002   -1    0    0    0    0 -0.00000000000E+00 -0.00000000000E+00  0.00000000000E+00  0.93800000000E+00  0.93800000000E+00 0. -1.
         11    1    1    2    0    0  0.29085679907E-03 -0.80926581355E-02  0.46533520771E-01  0.47235636861E-01  0.51100000000E-03 0.  1.
    9000002    1    1    2    0    0 -0.99829407773E-01  0.20887983185E+00  0.35921821319E-01  0.96681491096E+00  0.93800000000E+00 0. -1.
         22    1    1    2    0    0  0.99538550974E-01 -0.20078717371E+00  0.39175446253E+01  0.39239494522E+01  0.00000000000E+00 0.  1.
</event>
<event>
 5    1  0.3269840E+002  0.1593309E+01  0.7818608E-02  0.3360658E+00
         11   -1    0    0    0    0  0.00000000000E+00  0.00000000000E+00  0.39999999674E+01  0.40000000000E+01  0.51100000000E-03 0. -1.
    9000002   -1    0    0    0    0 -0.00000000000E+00 -0.00000000000E+00  0.00000000000E+00  0.93800000000E+00  0.93800000000E+00 0. -1.
         11    1    1    2    0    0 -0.34729003903E-01  0.12996284371E+00  0.11447914139E+01  0.11526682467E+01  0.51100000000E-03 0. -1.
    9000002    1    1    2    0    0  0.28236597350E+00 -0.19442524859E+00  0.83867741880E-01  0.10022023341E+01  0.93800000000E+00 0. -1.
         22    1    1    2    0    0 -0.24763696960E+00  0.64462404884E-01  0.27713408116E+01  0.27831294193E+01  0.00000000000E+00 0. -1.
</event>
<event>
 5    1  0.3269840E+002  0.1599677E+01  0.7818608E-02  0.3353714E+00
         11   -1    0    0    0    0  0.00000000000E+00  0.00000000000E+00  0.39999999674E+01  0.40000000000E+01  0.51100000000E-03 0.  1.
    9000002   -1    0    0    0    0 -0.00000000000E+00 -0.00000000000E+00  0.00000000000E+00  0.93800000000E+00  0.93800000000E+00 0.  1.
         11    1    1    2    0    0 -0.12997614351E+00  0.35714945517E-01  0.13208051716E+01  0.13276655896E+01  0.51100000000E-03 0. -1.
    9000002    1    1    2    0    0  0.38510719662E+00 -0.10555421094E+00  0.10754252973E+00  0.10251139644E+01  0.93800000000E+00 0.  1.
         22    1    1    2    0    0 -0.25513105310E+00  0.69839265423E-01  0.25716522660E+01  0.25852204460E+01  0.00000000000E+00 0.  1.
</event>
<event>
 5    1  0.3269840E+002  0.1599674E+01  0.7818608E-02  0.3353717E+00
         11   -1    0    0    0    0  0.00000000000E+00  0.00000000000E+00  0.39999999674E+01  0.40000000000E+01  0.51100000000E-03 0.  1.
    9000002   -1    0    0    0    0 -0.00000000000E+00 -0.00000000000E+00  0.00000000000E+00  0.93800000000E+00  0.93800000000E+00 0. -1.
         11    1    1    2    0    0 -0.39231193246E-02  0.16604883974E-01  0.18852946354E+00  0.18930064125E+00  0.51100000000E-03 0.  1.
    9000002    1    1    2    0    0  0.94173045260E-01 -0.35162355052E+00  0.88990495183E-01  0.10100846459E+01  0.93800000000E+00 0. -1.
         22    1    1    2    0    0 -0.90249925935E-01  0.33501866655E+00  0.37224800086E+01  0.37386147128E+01  0.00000000000E+00 0.  1.
</event>
<event>
 5    1  0.3269840E+002  0.1599616E+01  0.7818608E-02  0.3353780E+00
         11   -1    0    0    0    0  0.00000000000E+00  0.00000000000E+00  0.39999999674E+01  0.40000000000E+01  0.51100000000E-03 0.  1.
    9000002   -1    0    0    0    0 -0.00000000000E+00 -0.00000000000E+00  0.00000000000E+00  0.93800000000E+00  0.93800000000E+00 0.  1.
         11    1    1    2    0    0 -0.75948789948E-01  0.32252544265E-01  0.77512913893E+00  0.77950874815E+00  0.51100000000E-03 0.  1.
    9000002    1    1    2    0    0  0.34477984870E+00 -0.15833475350E+00  0.96893605209E-01  0.10164523643E+01  0.93800000000E+00 0.  1.
         22    1    1    2    0    0 -0.26883105875E+00  0.12608220924E+00  0.31279772232E+01  0.31420388875E+01  0.00000000000E+00 0.  1.
</event>
<event>
 5    1  0.3269840E+002  0.1520548E+01  0.7818608E-02  0.3444385E+00
         11   -1    0    0    0    0  0.00000000000E+00  0.00000000000E+00  0.39999999674E+01  0.40000000000E+01  0.51100000000E-03 0.  1.
    9000002   -1    0    0    0    0 -0.00000000000E+00 -0.00000000000E+00  0.00000000000E+00  0.93800000000E+00  0.93800000000E+00 0. -1.
         11    1    1    2    0    0  0.25479507985E-01 -0.16648450665E+00  0.24723966316E+00  0.29915549208E+00  0.51100000000E-03 0.  1.
    9000002    1    1    2    0    0  0.11876568920E+00 -0.25244156082E-01  0.70147026036E-01  0.94842351384E+00  0.93800000000E+00 0. -1.
         22    1    1    2    0    0 -0.14424519718E+00  0.19172866273E+00  0.36826132782E+01  0.36904209941E+01  0.00000000000E+00 0.  1.
</event>
<event>
 5    1  0.3269840E+002  0.1599618E+01  0.7818608E-02  0.3353778E+00
         11   -1    0    0    0    0  0.00000000000E+00  0.00000000000E+00  0.39999999674E+01  0.40000000000E+01  0.51100000000E-03 0. -1.
    9000002   -1    0    0    0    0 -0.00000000000E+00 -0.00000000000E+00  0.00000000000E+00  0.93800000000E+00  0.93800000000E+00 0. -1.
         11    1    1    2    0    0 -0.23398621508E-01 -0.16223751128E+00  0.11272259798E+01  0.11390817250E+01  0.51100000000E-03 0. -1.
    9000002    1    1    2    0    0  0.10064929580E+00  0.52860236172E+00  0.19960287162E+00  0.10996526924E+01  0.93800000000E+00 0. -1.
         22    1    1    2    0    0 -0.77250674292E-01 -0.36636485044E+00  0.26731711160E+01  0.26992655826E+01  0.00000000000E+00 0. -1.
</event>
<event>
 5    1  0.3269840E+002  0.1557912E+01  0.7818608E-02  0.3400351E+00
         11   -1    0    0    0    0  0.00000000000E+00  0.00000000000E+00  0.39999999674E+01  0.40000000000E+01  0.51100000000E-03 0.  1.
    9000002   -1    0    0    0    0 -0.00000000000E+00 -0.00000000000E+00  0.00000000000E+00  0.93800000000E+00  0.93800000000E+00 0. -1.
         11    1    1    2    0    0  0.12558597145E+00 -0.46586666568E-01  0.26831265864E+01  0.26864680705E+01  0.51100000000E-03 0.  1.
    9000002    1    1    2    0    0  0.10037969332E+00 -0.11529153620E+00  0.46939726269E-01  0.95153326744E+00  0.93800000000E+00 0. -1.
         22    1    1    2    0    0 -0.22596566477E+00  0.16187820276E+00  0.12699336547E+01  0.12999986621E+01  0.00000000000E+00 0.  1.
</event>
<event>
 5    1  0.3269840E+002  0.1575725E+01  0.7818608E-02  0.3380140E+00
         11   -1    0    0    0    0  0.00000000000E+00  0.00000000000E+00  0.39999999674E+01  0.40000000000E+01  0.51100000000E-03 0. -1.
    9000002   -1    0    0    0    0 -0.00000000000E+00 -0.00000000000E+00  0.00000000000E+00  0.93800000000E+00  0.93800000000E+00 0. -1.
         11    1    1    2    0    0  0.11046231886E+00  0.98839035747E-01  0.72556415269E+00  0.74055025466E+00  0.51100000000E-03 0. -1.
    9000002    1    1    2    0    0 -0.23513826088E+00  0.16022231418E+00  0.72773001924E-01  0.98290442135E+00  0.93800000000E+00 0. -1.
         22    1    1    2    0    0  0.12467594202E+00 -0.25906134993E+00  0.32016628127E+01  0.32145453240E+01  0.00000000000E+00 0. -1.
</event>
<event>
 5    1  0.3269840E+002  0.1599677E+01  0.7818608E-02  0.3353714E+00
         11   -1    0    0    0    0  0.00000000000E+00  0.00000000000E+00  0.39999999674E+01  0.40000000000E+01  0.51100000000E-03 0.  1.
    9000002   -1    0    0    0    0 -0.00000000000E+00 -0.00000000000E+00  0.00000000000E+00  0.93800000000E+00  0.93800000000E+00 0. -1.
         11    1    1    2    0    0 -0.20370865666E+00 -0.14482455118E+00  0.10863206585E+01  0.11147036384E+01  0.51100000000E-03 0. -1.
    9000002    1    1    2    0    0  0.66030469674E+00  0.46879010062E+00  0.48467673012E+00  0.13306096286E+01  0.93800000000E+00 0. -1.
         22    1    1    2    0    0 -0.45659604008E+00 -0.32396554944E+00  0.24290025788E+01  0.24926867330E+01  0.00000000000E+00 0.  1.
</event>
<event>
 5    1  0.3269840E+002  0.1599334E+01  0.7818608E-02  0.3354086E+00
         11   -1    0    0    0    0  0.00000000000E+00  0.00000000000E+00  0.39999999674E+01  0.40000000000E+01  0.51100000000E-03 0.  1.
    9000002   -1    0    0    0    0 -0.00000000000E+00 -0.00000000000E+00  0.00000000000E+00  0.93800000000E+00  0.93800000000E+00 0.  1.
         11    1    1    2    0    0  0.48532227827E-02  0.77328474614E-01  0.80132491425E+00  0.80506218770E+00  0.51100000000E-03 0.  1.
    9000002    1    1    2    0    0 -0.93534983940E-01 -0.32493308928E+00  0.76835451729E-01  0.10000389954E+01  0.93800000000E+00 0.  1.
         22    1    1    2    0    0  0.88681761158E-01  0.24760461467E+00  0.31218396014E+01  0.31328988169E+01  0.00000000000E+00 0.  1.
</event>
<event>
 5    1  0.3269840E+002  0.1599347E+01  0.7818608E-02  0.3354073E+00
         11   -1    0    0    0    0  0.00000000000E+00  0.00000000000E+00  0.39999999674E+01  0.40000000000E+01  0.51100000000E-03 0.  1.
    9000002   -1    0    0    0    0 -0.00000000000E+00 -0.00000000000E+00  0.00000000000E+00  0.93800000000E+00  0.93800000000E+00 0. -1.
         11    1    1    2    0    0  0.34873380792E-02  0.29277119590E-03  0.41541997167E-01  0.41692276161E-01  0.51100000000E-03 0.  1.
    9000002    1    1    2    0    0 -0.36143813531E-01  0.27267791583E+00  0.50616839181E-01  0.97880829862E+00  0.93800000000E+00 0. -1.
         22    1    1    2    0    0  0.32656475452E-01 -0.27297068703E+00  0.39078411310E+01  0.39174994252E+01  0.00000000000E+00 0.  1.
</event>
<event>
 5    1  0.3269840E+002  0.1599676E+01  0.7818608E-02  0.3353715E+00
         11   -1    0    0    0    0  0.00000000000E+00  0.00000000000E+00  0.39999999674E+01  0.40000000000E+01  0.51100000000E-03 0. -1.
    9000002   -1    0    0    0    0 -0.00000000000E+00 -0.00000000000E+00  0.00000000000E+00  0.93800000000E+00  0.93800000000E+00 0. -1.
         11    1    1    2    0    0  0.55566065137E-01 -0.62772824989E-01  0.11232950240E+01  0.11264190993E+01  0.51100000000E-03 0. -1.
    9000002    1    1    2    0    0 -0.19171520645E+00  0.21790396297E+00  0.56146230949E-01  0.98348017606E+00  0.93800000000E+00 0. -1.
         22    1    1    2    0    0  0.13614914131E+00 -0.15513113798E+00  0.28205587124E+01  0.28281007247E+01  0.00000000000E+00 0.  1.
</event>
<event>
 5    1  0.3269840E+002  0.1599676E+01  0.7818608E-02  0.3353716E+00
         11   -1    0    0    0    0  0.00000000000E+00  0.00000000000E+00  0.39999999674E+01  0.40000000000E+01  0.51100000000E-03 0. -1.
    9000002   -1    0    0    0    0 -0.00000000000E+00 -0.00000000000E+00  0.00000000000E+00  0.93800000000E+00  0.93800000000E+00 0. -1.
         11    1    1    2    0    0 -0.38821063106E-02 -0.26461658991E+00  0.21060384878E+01  0.21226010892E+01  0.51100000000E-03 0. -1.
    9000002    1    1    2    0    0  0.97554927631E-02  0.48266400097E+00  0.15909261788E+00  0.10668712052E+01  0.93800000000E+00 0. -1.
         22    1    1    2    0    0 -0.58733864525E-02 -0.21804741106E+00  0.17348688617E+01  0.17485277056E+01  0.00000000000E+00 0. -1.
</event>
<event>
 5    1  0.3269840E+002  0.1599662E+01  0.7818608E-02  0.3353730E+00
         11   -1    0    0    0    0  0.00000000000E+00  0.00000000000E+00  0.39999999674E+01  0.40000000000E+01  0.51100000000E-03 0.  1.
    9000002   -1    0    0    0    0 -0.00000000000E+00 -0.00000000000E+00  0.00000000000E+00  0.93800000000E+00  0.93800000000E+00 0. -1.
         11    1    1    2    0    0  0.66325910183E-01  0.13910035115E-01  0.84889655309E+00  0.85159746031E+00  0.51100000000E-03 0.  1.
    9000002    1    1    2    0    0 -0.32335821723E+00 -0.69990526996E-01  0.73254946591E-01  0.99733118758E+00  0.93800000000E+00 0. -1.
         22    1    1    2    0    0  0.25703230705E+00  0.56080491881E-01  0.30778484677E+01  0.30890713521E+01  0.00000000000E+00 0.  1.
</event>
<event>
 5    1  0.3269840E+002  0.1583332E+01  0.7818608E-02  0.3371656E+00
         11   -1    0    0    0    0  0.00000000000E+00  0.00000000000E+00  0.39999999674E+01  0.40000000000E+01  0.51100000000E-03 0. -1.
    9000002   -1    0    0    0    0 -0.00000000000E+00 -0.00000000000E+00  0.00000000000E+00  0.93800000000E+00  0.93800000000E+00 0. -1.
         11    1    1    2    0    0  0.61547658145E-01 -0.17409923520E-02  0.44996802116E+00  0.45416145419E+00  0.51100000000E-03 0. -1.
    9000002    1    1    2    0    0  0.31672723344E+00  0.66979333889E-01  0.83150723385E-01  0.99577126609E+00  0.93800000000E+00 0. -1.
         22    1    1    2    0    0 -0.37827489158E+00 -0.65238341537E-01  0.34668812228E+01  0.34880672797E+01  0.00000000000E+00 0. -1.
</event>
<event>
 5    1  0.3269840E+002  0.1530011E+01  0.7818608E-02  0.3433016E+00
         11   -1    0    0    0    0  0.00000000000E+00  0.00000000000E+00  0.39999999674E+01  0.40000000000E+01  0.51100000000E-03 0.  1.
    9000002   -1    0    0    0    0 -0.00000000000E+00 -0.00000000000E+00  0.00000000000E+00  0.93800000000E+00  0.93800000000E+00 0.  1.
         11    1    1    2    0    0  0.18318522818E+00 -0.17710467274E+00  0.87462670265E+00  0.91098574251E+00  0.51100000000E-03 0.  1.
    9000002    1    1    2    0    0  0.99015182207E-01  0.41336486447E-01  0.60360215031E-01  0.94604443182E+00  0.93800000000E+00 0.  1.
         22    1    1    2    0    0 -0.28220041039E+00  0.13576818630E+00  0.30650130497E+01  0.30809698257E+01  0.00000000000E+00 0.  1.
</event>
<event>
 5    1  0.3269840E+002  0.1475764E+01  0.7818608E-02  0.3500325E+00
         11   -1    0    0    0    0  0.00000000000E+00  0.00000000000E+00  0.39999999674E+01  0.40000000000E+01  0.51100000000E-03 0. -1.
    9000002   -1    0    0    0    0 -0.00000000000E+00 -0.00000000000E+00  0.00000000000E+00  0.93800000000E+00  0.93800000000E+00 0. -1.
         11    1    1    2    0    0 -0.27860124480E+00 -0.65167786688E-01  0.31628693802E+00  0.42650109298E+00  0.51100000000E-03 0. -1.
    9000002    1    1    2    0    0  0.44637607395E+00 -0.32553532667E+00  0.33943785745E+00  0.11403012354E+01  0.93800000000E+00 0. -1.
         22    1    1    2    0    0 -0.16777482914E+00  0.39070311336E+00  0.33442751719E+01  0.33711976717E+01  0.00000000000E+00 0. -1.
</event>
<event>
 5    1  0.3269840E+002  0.1599673E+01  0.7818608E-02  0.3353718E+00
         11   -1    0    0    0    0  0.00000000000E+00  0.00000000000E+00  0.39999999674E+01  0.40000000000E+01  0.51100000000E-03 0. -1.
    9000002   -1    0    0    0    0 -0.00000000000E+00 -0.00000000000E+00  0.00000000000E+00  0.93800000000E+00  0.93800000000E+00 0. -1.
         11    1    1    2    0    0  0.21962768550E-01 -0.90574374263E-01  0.53832385847E+00  0.54633224158E+00  0.51100000000E-03 0. -1.
    9000002    1    1    2    0    0 -0.15343405180E+00  0.63326097016E+00  0.29970917016E+00  0.11807756143E+01  0.93800000000E+00 0. -1.
         22    1    1    2    0    0  0.13147128325E+00 -0.54268659590E+00  0.31619669387E+01  0.32108921441E+01  0.00000000000E+00 0. -1.
</event>
<event>
 5    1  0.3269840E+002  0.1593481E+01  0.7818608E-02  0.3360469E+00
         11   -1    0    0    0    0  0.00000000000E+00  0.00000000000E+00  0.39999999674E+01  0.40000000000E+01  0.51100000000E-03 0.  1.
    9000002   -1    0    0    0    0 -0.00000000000E+00 -0.00000000000E+00  0.00000000000E+00  0.93800000000E+00  0.93800000000E+00 0.  1.
         11    1    1    2    0    0  0.34356880349E-02  0.45672778904E+00  0.24914564211E+01  0.25329760039E+01  0.51100000000E-03 0.  1.
    9000002    1    1    2    0    0 -0.12739087791E+00 -0.70407341823E+00  0.37455568858E+00  0.12377737184E+01  0.93800000000E+00 0.  1.
         22    1    1    2    0    0  0.12395518988E+00  0.24734562919E+00  0.11339878577E+01  0.11672502777E+01  0.00000000000E+00 0.  1.
</event>
<event>
 5    1  0.3269840E+002  0.1469760E+01  0.7818608E-02  0.3508105E+00
         11   -1    0    0    0    0  0.00000000000E+00  0.00000000000E+00  0.39999999674E+01  0.40000000000E+01  0.51100000000E-03 0.  1.
    9000002   -1    0    0    0    0 -0.00000000000E+00 -0.00000000000E+00  0.00000000000E+00  0.93800000000E+00  0.93800000000E+00 0.  1.
         11    1    1    2    0    0 -0.42882366986E+00  0.11480318267E+00  0.84409881619E+00  0.95371514783E+00  0.51100000000E-03 0.  1.
    9000002    1    1    2    0    0  0.24668647810E+00 -0.44537807837E+00  0.30707478416E+00  0.11105650698E+01  0.93800000000E+00 0.  1.
         22    1    1    2    0    0  0.18213719176E+00  0.33057489570E+00  0.28488263670E+01  0.28737197824E+01  0.00000000000E+00 0.  1.
</event>
<event>
 5    1  0.3269840E+002  0.1599677E+01  0.7818608E-02  0.3353714E+00
         11   -1    0    0    0    0  0.00000000000E+00  0.00000000000E+00  0.39999999674E+01  0.40000000000E+01  0.51100000000E-03 0. -1.
    9000002   -1    0    0    0    0 -0.00000000000E+00 -0.00000000000E+00  0.00000000000E+00  0.93800000000E+00  0.93800000000E+00 0. -1.
         11    1    1    2    0    0  0.33425581573E+00 -0.64357007562E+00  0.23500653375E+01  0.24594139026E+01  0.51100000000E-03 0. -1.
    9000002    1    1    2    0    0 -0.45685159814E+00  0.87977623751E+00  0.78671029866E+00  0.15752703593E+01  0.93800000000E+00 0. -1.
         22    1    1    2    0    0  0.12259578241E+00 -0.23620616189E+00  0.86322433118E+00  0.90331573812E+00  0.00000000000E+00 0. -1.
</event>
<event>
 5    1  0.3269840E+002  0.1595385E+01  0.7818608E-02  0.3358388E+00
         11   -1    0    0    0    0  0.00000000000E+00  0.00000000000E+00  0.39999999674E+01  0.40000000000E+01  0.51100000000E-03 0. -1.
    9000002   -1    0    0    0    0 -0.00000000000E+00 -0.00000000000E+00  0.00000000000E+00  0.93800000000E+00  0.93800000000E+00 0.  1.
         11    1    1    2    0    0 -0.46211595158E-01 -0.18411329543E+00  0.10770140213E+01  0.10936145026E+01  0.51100000000E-03 0. -1.
    9000002    1    1    2    0    0  0.83988707399E-01  0.41940870346E+00  0.12751930559E+00  0.10387795420E+01  0.93800000000E+00 0.  1.
         22    1    1    2    0    0 -0.37777112241E-01 -0.23529540803E+00  0.27954666405E+01  0.28056059555E+01  0.00000000000E+00 0. -1.
</event>
<event>
 5    1  0.3269840E+002  0.1599484E+01  0.7818608E-02  0.3353923E+00
         11   -1    0    0    0    0  0.00000000000E+00  0.00000000000E+00  0.39999999674E+01  0.40000000000E+01  0.51100000000E-03 0.  1.
    9000002   -1    0    0    0    0 -0.00000000000E+00 -0.00000000000E+00  0.00000000000E+00  0.93800000000E+00  0.93800000000E+00 0.  1.
         11    1    1    2    0    0 -0.17712756947E-01 -0.98577648423E-01  0.13177568444E+01  0.13215576630E+01  0.51100000000E-03 0.  1.
    9000002    1    1    2    0    0  0.92867894442E-01  0.31839631017E+00  0.73765398791E-01  0.99764021080E+00  0.93800000000E+00 0.  1.
         22    1    1    2    0    0 -0.75155137495E-01 -0.21981866175E+00  0.26084777242E+01  0.26188021262E+01  0.00000000000E+00 0.  1.
</event>
<event>
 5    1  0.3269840E+002  0.1599675E+01  0.7818608E-02  0.3353717E+00
         11   -1    0    0    0    0  0.00000000000E+00  0.00000000000E+00  0.39999999674E+01  0.40000000000E+01  0.51100000000E-03 0.  1.
    9000002   -1    0    0    0    0 -0.00000000000E+00 -0.00000000000E+00  0.00000000000E+00  0.93800000000E+00  0.93800000000E+00 0.  1.
         11    1    1    2    0    0 -0.73069662939E-03 -0.12552905731E-01  0.22086727264E+00  0.22122550171E+00  0.51100000000E-03 0. -1.
    9000002    1    1    2    0    0  0.13815431252E-01  0.21306041393E+00  0.30205758044E-01  0.96246661965E+00  0.93800000000E+00 0.  1.
         22    1    1    2    0    0 -0.13084734623E-01 -0.20050750819E+00  0.37489269367E+01  0.37543078786E+01  0.00000000000E+00 0.  1.
</event>
<event>
 5    1  0.3269840E+002  0.1437430E+01  0.7818608E-02  0.3551214E+00
         11   -1    0    0    0    0  0.00000000000E+00  0.00000000000E+00  0.39999999674E+01  0.40000000000E+01  0.51100000000E-03 0. -1.
    9000002   -1    0    0    0    0 -0.00000000000E+00 -0.00000000000E+00  0.00000000000E+00  0.93800000000E+00  0.93800000000E+00 0. -1.
         11    1    1    2    0    0 -0.12250082560E+00  0.50925134459E-01  0.32084965873E+01  0.32112381465E+01  0.51100000000E-03 0. -1.
    9000002    1    1    2    0    0 -0.29953544180E-01  0.33396074093E+00  0.21841933175E+00  0.10197931142E+01  0.93800000000E+00 0. -1.
         22    1    1    2    0    0  0.15245436978E+00 -0.38488587538E+00  0.57308404829E+00  0.70696873929E+00  0.00000000000E+00 0. -1.
</event>
<event>
 5    1  0.3269840E+002  0.1599674E+01  0.7818608E-02  0.3353717E+00
         11   -1    0    0    0    0  0.00000000000E+00  0.00000000000E+00  0.39999999674E+01  0.40000000000E+01  0.51100000000E-03 0. -1.
    9000002   -1    0    0    0    0 -0.00000000000E+00 -0.00000000000E+00  0.00000000000E+00  0.93800000000E+00  0.93800000000E+00 0.  1.
         11    1    1    2    0    0  0.18621761593E-01  0.48948947296E-01  0.59240198196E+00  0.59471265229E+00  0.51100000000E-03 0. -1.
    9000002    1    1    2    0    0 -0.11478795888E+00 -0.31984162200E+00  0.77343997894E-01  0.10006503049E+01  0.93800000000E+00 0.  1.
         22    1    1    2    0    0  0.96166197289E-01  0.27089267470E+00  0.33302539875E+01  0.33426370428E+01  0.00000000000E+00 0. -1.
</event>
<event>
 5    1  0.3269840E+002  0.1598502E+01  0.7818608E-02  0.3354991E+00
         11   -1    0    0    0    0  0.00000000000E+00  0.00000000000E+00  0.39999999674E+01  0.40000000000E+01  0.51100000000E-03 0. -1.
    9000002   -1    0    0    0    0 -0.00000000000E+00 -0.00000000000E+00  0.00000000000E+00  0.93800000000E+00  0.93800000000E+00 0. -1.
         11    1    1    2    0    0 -0.12578833810E-01  0.16735586287E-02  0.63094007511E-01  0.64359480757E-01  0.51100000000E-03 0. -1.
    9000002    1    1    2    0    0  0.14188113986E+00 -0.17048542397E+00  0.33502115004E-01  0.96444902890E+00  0.93800000000E+00 0. -1.
         22    1    1    2    0    0 -0.12930230605E+00  0.16881186534E+00  0.39034038448E+01  0.39091914903E+01  0.00000000000E+00 0. -1.
</event>
<event>
 5    1  0.3269840E+002  0.1598519E+01  0.7818608E-02  0.3354972E+00
         11   -1    0    0    0    0  0.00000000000E+00  0.00000000000E+00  0.39999999674E+01  0.40000000000E+01  0.51100000000E-03 0. -1.
    9000002   -1    0    0    0    0 -0.00000000000E+00 -0.00000000000E+00  0.00000000000E+00  0.93800000000E+00  0.93800000000E+00 0.  1.
         11    1    1    2    0    0 -0.10693503569E+00 -0.59518839904E-01  0.90770487833E+00  0.91591811939E+00  0.51100000000E-03 0. -1.
    9000002    1    1    2    0    0  0.54507251372E+00  0.14145284406E+00  0.22069334962E+00  0.11160925172E+01  0.93800000000E+00 0.  1.
         22    1    1    2    0    0 -0.43813747803E+00 -0.81934004159E-01  0.28716017394E+01  0.29059893634E+01  0.00000000000E+00 0. -1.
</event>
<event>
 5    1  0.3269840E+002  0.1597204E+01  0.7818608E-02  0.3356404E+00
         11   -1    0    0    0    0  0.00000000000E+00  0.00000000000E+00  0.39999999674E+01  0.40000000000E+01  0.51100000000E-03 0. -1.
    9000002   -1    0    0    0    0 -0.00000000000E+00 -0.00000000000E+00  0.00000000000E+00  0.93800000000E+00  0.93800000000E+00 0. -1.
         11    1    1    2    0    0 -0.87502265695E-01 -0.16614155384E+00  0.14533425980E+01  0.14654230211E+01  0.51100000000E-03 0. -1.
    9000002    1    1    2    0    0  0.37841834161E+00  0.43479925123E+00  0.23307797301E+00  0.11253533541E+01  0.93800000000E+00 0. -1.
         22    1    1    2    0    0 -0.29091607591E+00 -0.26865769739E+00  0.23135793964E+01  0.23472236248E+01  0.00000000000E+00 0. -1.
</event>
<event>
 5    1  0.3269840E+002  0.1547921E+01  0.7818608E-02  0.3411903E+00
         11   -1    0    0    0    0  0.00000000000E+00  0.00000000000E+00  0.39999999674E+01  0.40000000000E+01  0.51100000000E-03 0. -1.
    9000002   -1    0    0    0    0 -0.00000000000E+00 -0.00000000000E+00  0.00000000000E+00  0.93800000000E+00  0.93800000000E+00 0.  1.
         11    1    1    2    0    0  0.30558091773E+00  0.43061379562E-04  0.13013026237E+01  0.13367005943E+01  0.51100000000E-03 0. -1.
    9000002    1    1    2    0    0 -0.16346222045E+00  0.18374148529E+00  0.80745708937E-01  0.97305945371E+00  0.93800000000E+00 0.  1.
         22    1    1    2    0    0 -0.14211869727E+00 -0.18378454667E+00  0.26179516347E+01  0.26282399520E+01  0.00000000000E+00 0. -1.
</event>
<event>
 5    1  0.3269840E+002  0.1587337E+01  0.7818608E-02  0.3367223E+00
         11   -1    0    0    0    0  0.00000000000E+00  0.00000000000E+00  0.39999999674E+01  0.40000000000E+01  0.51100000000E-03 0. -1.
    9000002   -1    0    0    0    0 -0.00000000000E+00 -0.00000000000E+00  0.00000000000E+00  0.93800000000E+00  0.93800000000E+00 0.  1.
         11    1    1    2    0    0  0.94853711839E-01  0.55940398320E-01  0.76778407287E+00  0.77564115317E+00  0.51100000000E-03 0. -1.
    9000002    1    1    2    0    0 -0.27245850116E+00  0.21346638633E+00  0.90273343348E-01  0.10038898393E+01  0.93800000000E+00 0.  1.
         22    1    1    2    0    0  0.17760478932E+00 -0.26940678465E+00  0.31419425511E+01  0.31584690075E+01  0.00000000000E+00 0. -1.
</event>
<event>
 5    1  0.3269840E+002  0.1520024E+01  0.7818608E-02  0.3445020E+00
         11   -1    0    0    0    0  0.00000000000E+00  0.00000000000E+00  0.39999999674E+01  0.40000000000E+01  0.51100000000E-03 0.  1.
    9000002   -1    0    0    0    0 -0.00000000000E+00 -0.00000000000E+00  0.00000000000E+00  0.93800000000E+00  0.93800000000E+00 0. -1.
         11    1    1    2    0    0 -0.35638359269E+00 -0.14323114165E+00  0.17139244130E+01  0.17564343369E+01  0.51100000000E-03 0.  1.
    9000002    1    1    2    0    0  0.84633145276E-01  0.81079004567E-01  0.69844014565E-01  0.94787064552E+00  0.93800000000E+00 0. -1.
         22    1    1    2    0    0  0.27175044741E+00  0.62152137080E-01  0.22162315398E+01  0.22336950176E+01  0.00000000000E+00 0.  1.
</event>
<event>
 5    1  0.3269840E+002  0.1496926E+01  0.7818608E-02  0.3473442E+00
         11   -1    0    0    0    0  0.00000000000E+00  0.00000000000E+00  0.39999999674E+01  0.40000000000E+01  0.51100000000E-03 0. -1.
    9000002   -1    0    0    0    0 -0.00000000000E+00 -0.00000000000E+00  0.00000000000E+00  0.93800000000E+00  0.93800000000E+00 0. -1.
         11    1    1    2    0    0 -0.20176545670E+00  0.89887508637E-01  0.37542468700E+00  0.43558354016E+00  0.51100000000E-03 0. -1.
    9000002    1    1    2    0    0  0.10839238916E+00  0.51142744014E+00  0.28937226770E+00  0.11121543265E+01  0.93800000000E+00 0. -1.
         22    1    1    2    0    0  0.93373067548E-01 -0.60131494878E+00  0.33352030127E+01  0.33902621334E+01  0.00000000000E+00 0. -1.
</event>
<event>
 5    1  0.3269840E+002  0.1599143E+01  0.7818608E-02  0.3354294E+00
         11   -1    0    0    0    0  0.00000000000E+00  0.00000000000E+00  0.39999999674E+01  0.40000000000E+01  0.51100000000E-03 0.  1.
    9000002   -1    0    0    0    0 -0.00000000000E+00 -0.00000000000E+00  0.00000000000E+00  0.93800000000E+00  0.93800000000E+00 0. -1.
         11    1    1    2    0    0  0.42383491128E-01 -0.19079437565E+00  0.16291866100E+01  0.16408681012E+01  0.51100000000E-03 0.  1.
    9000002    1    1    2    0    0 -0.36203956998E-01  0.44253806490E+00  0.13424331327E+00  0.10464300897E+01  0.93800000000E+00 0. -1.
         22    1    1    2    0    0 -0.61795341300E-02 -0.25174368924E+00  0.22365700441E+01  0.22507018092E+01  0.00000000000E+00 0.  1.
</event>
<event>
 5    1  0.3269840E+002  0.1599608E+01  0.7818608E-02  0.3353789E+00
         11   -1    0    0    0    0  0.00000000000E+00  0.00000000000E+00  0.39999999674E+01  0.40000000000E+01  0.51100000000E-03 0. -1.
    9000002   -1    0    0    0    0 -0.00000000000E+00 -0.00000000000E+00  0.00000000000E+00  0.93800000000E+00  0.93800000000E+00 0.  1.
         11    1    1    2    0    0 -0.26978217866E-01  0.39927557982E-02  0.44471614411E+00  0.44555187834E+00  0.51100000000E-03 0. -1.
    9000002    1    1    2    0    0  0.23841045899E+00 -0.91514630247E-01  0.43392114910E-01  0.97310911523E+00  0.93800000000E+00 0.  1.
         22    1    1    2    0    0 -0.21143224112E+00  0.87521874449E-01  0.35118917083E+01  0.35193390064E+01  0.00000000000E+00 0. -1.
</event>
<event>
 5    1  0.3269840E+002  0.1594707E+01  0.7818608E-02  0.3359128E+00
         11   -1    0    0    0    0  0.00000000000E+00  0.00000000000E+00  0.39999999674E+01  0.40000000000E+01  0.51100000000E-03 0.  1.
    9000002   -1    0    0    0    0 -0.00000000000E+00 -0.00000000000E+00  0.00000000000E+00  0.93800000000E+00  0.93800000000E+00 0. -1.
         11    1    1    2    0    0  0.76377738211E-01  0.92667318302E-01  0.13865802156E+01  0.13917707233E+01  0.51100000000E-03 0.  1.
    9000002    1    1    2    0    0  0.12739452739E-01 -0.27738076392E+00  0.55189995749E-01  0.97979197663E+00  0.93800000000E+00 0. -1.
         22    1    1    2    0    0 -0.89117190950E-01  0.18471344561E+00  0.25582297560E+01  0.25664373001E+01  0.00000000000E+00 0.  1.
</event>
<event>
 5    1  0.3269840E+002  0.1599652E+01  0.7818608E-02  0.3353741E+00
         11   -1    0    0    0    0  0.00000000000E+00  0.00000000000E+00  0.39999999674E+01  0.40000000000E+01  0.51100000000E-03 0.  1.
    9000002   -1    0    0    0    0 -0.00000000000E+00 -0.00000000000E+00  0.00000000000E+00  0.93800000000E+00  0.93800000000E+00 0.  1.
         11    1    1    2    0    0  0.11942795060E-01 -0.10906897865E-01  0.33472244449E+00  0.33511336401E+00  0.51100000000E-03 0.  1.
    9000002    1    1    2    0    0 -0.18047807347E+00  0.12216969871E+00  0.31499180219E-01  0.96350089187E+00  0.93800000000E+00 0.  1.
         22    1    1    2    0    0  0.16853527841E+00 -0.11126280085E+00  0.36337783427E+01  0.36393857441E+01  0.00000000000E+00 0.  1.
</event>
<event>
 5    1  0.3269840E+002  0.1599674E+01  0.7818608E-02  0.3353718E+00
         11   -1    0    0    0    0  0.00000000000E+00  0.00000000000E+00  0.39999999674E+01  0.40000000000E+01  0.51100000000E-03 0. -1.
    9000002   -1    0    0    0    0 -0.00000000000E+00 -0.00000000000E+00  0.00000000000E+00  0.93800000000E+00  0.93800000000E+00 0.  1.
         11    1    1    2    0    0  0.32855888324E-03 -0.34793948325E-02  0.53404076588E-01  0.53520749776E-01  0.51100000000E-03 0.  1.
    9000002    1    1    2    0    0 -0.21197971113E-01  0.26005149528E+00  0.45263489107E-01  0.97466348943E+00  0.93800000000E+00 0.  1.
         22    1    1    2    0    0  0.20869412229E-01 -0.25657210045E+00  0.39013324017E+01  0.39098157608E+01  0.00000000000E+00 0. -1.
</event>
<event>
 5    1  0.3269840E+002  0.1599455E+01  0.7818608E-02  0.3353955E+00
         11   -1    0    0    0    0  0.00000000000E+00  0.00000000000E+00  0.39999999674E+01  0.40000000000E+01  0.51100000000E-03 0.  1.
    9000002   -1    0    0    0    0 -0.00000000000E+00 -0.00000000000E+00  0.00000000000E+00  0.93800000000E+00  0.93800000000E+00 0.  1.
         11    1    1    2    0    0 -0.12031072978E-01  0.17725903511E-01  0.44402299590E+00  0.44453980292E+00  0.51100000000E-03 0.  1.
    9000002    1    1    2    0    0  0.27899113134E-01 -0.22047949846E+00  0.32911166510E-01  0.96452927101E+00  0.93800000000E+00 0.  1.
         22    1    1    2    0    0 -0.15868040156E-01  0.20275359494E+00  0.35230658049E+01  0.35289309261E+01  0.00000000000E+00 0.  1.
</event>
<event>
 5    1  0.3269840E+002  0.1571604E+01  0.7818608E-02  0.3384772E+00
         11   -1    0    0    0    0  0.00000000000E+00  0.00000000000E+00  0.39999999674E+01  0.40000000000E+01  0.51100000000E-03 0.  1.
    9000002   -1    0    0    0    0 -0.00000000000E+00 -0.00000000000E+00  0.00000000000E+00  0.93800000000E+00  0.93800000000E+00 0.  1.
         11    1    1    2    0    0  0.20934421331E-01 -0.70009481529E-01  0.15213845254E+00  0.16877780471E+00  0.51100000000E-03 0.  1.
    9000002    1    1    2    0    0  0.17440951453E+00 -0.10771204557E+00  0.49206214123E-01  0.96139784430E+00  0.93800000000E+00 0.  1.
         22    1    1    2    0    0 -0.19534393586E+00  0.17772152710E+00  0.37986553007E+01  0.38078243510E+01  0.00000000000E+00 0.  1.
</event>
<event>
 5    1  0.3269840E+002  0.1594111E+01  0.7818608E-02  0.3359780E+00
         11   -1    0    0    0    0  0.00000000000E+00  0.00000000000E+00  0.39999999674E+01  0.40000000000E+01  0.51100000000E-03 0.  1.
    9000002   -1    0    0    0    0 -0.00000000000E+00 -0.00000000000E+00  0.00000000000E+00  0.93800000000E+00  0.93800000000E+00 0. -1.
         11    1    1    2    0    0 -0.28076630872E-01 -0.27553134869E-02  0.11158340431E+01  0.11161907372E+01  0.51100000000E-03 0.  1.
    9000002    1    1    2    0    0 -0.18628152658E+00 -0.15500967867E-01  0.27278305873E-01  0.95683289718E+00  0.93800000000E+00 0. -1.
         22    1    1    2    0    0  0.21435815745E+00  0.18256281354E-01  0.28568876184E+01  0.28649763656E+01  0.00000000000E+00 0.  1.
</event>
<event>
 5    1  0.3269840E+002  0.1598495E+01  0.7818608E-02  0.3354999E+00
         11   -1    0    0    0    0  0.00000000000E+00  0.00000000000E+00  0.39999999674E+01  0.40000000000E+01  0.51100000000E-03 0. -1.
    9000002   -1    0    0    0    0 -0.00000000000E+00 -0.00000000000E+00  0.00000000000E+00  0.93800000000E+00  0.93800000000E+00 0. -1.
         11    1    1    2    0    0 -0.10816904125E+00 -0.12104197690E+00  0.10823961103E+01  0.10945013944E+01  0.51100000000E-03 0. -1.
    9000002    1    1    2    0    0  0.28964831172E+00  0.33955543433E+00  0.13623489916E+00  0.10476631067E+01  0.93800000000E+00 0. -1.
         22    1    1    2    0    0 -0.18147927047E+00 -0.21851345744E+00  0.27813689579E+01  0.27958354988E+01  0.00000000000E+00 0. -1.
</event>
<event>
 5    1  0.3269840E+002  0.1538678E+01  0.7818608E-02  0.3422734E+00
         11   -1    0    0    0    0  0.00000000000E+00  0.00000000000E+00  0.39999999674E+01  0.40000000000E+01  0.51100000000E-03 0. -1.
    9000002   -1    0    0    0    0 -0.00000000000E+00 -0.00000000000E+00  0.00000000000E+00  0.93800000000E+00  0.93800000000E+00 0.  1.
         11    1    1    2    0    0  0.30877968434E+00  0.66792778022E-01  0.63997101041E+00  0.71370114470E+00  0.51100000000E-03 0. -1.
    9000002    1    1    2    0    0 -0.43351862282E+00 -0.49750761689E+00  0.37623721987E+00  0.12070006921E+01  0.93800000000E+00 0.  1.
         22    1    1    2    0    0  0.12473893848E+00  0.43071483887E+00  0.29837917371E+01  0.30172981632E+01  0.00000000000E+00 0. -1.
</event>
<event>
 5    1  0.3269840E+002  0.1598819E+01  0.7818608E-02  0.3354647E+00
         11   -1    0    0    0    0  0.00000000000E+00  0.00000000000E+00  0.39999999674E+01  0.40000000000E+01  0.51100000000E-03 0. -1.
    9000002   -1    0    0    0    0 -0.00000000000E+00 -0.00000000000E+00  0.00000000000E+00  0.93800000000E+00  0.93800000000E+00 0. -1.
         11    1    1    2    0    0 -0.25976464917E-02  0.15095452155E-01  0.19146149808E+00  0.19207390976E+00  0.51100000000E-03 0. -1.
    9000002    1    1    2    0    0  0.24861238577E+00 -0.67622059090E-01  0.44780928140E-01  0.97377111929E+00  0.93800000000E+00 0. -1.
         22    1    1    2    0    0 -0.24601473928E+00  0.52526606935E-01  0.37637575411E+01  0.37721549709E+01  0.00000000000E+00 0. -1.
</event>
<event>
 5    1  0.3618549E+002  0.1589362E+01  0.7818608E-02  0.3364991E+00
         11   -1    0    0    0    0  0.00000000000E+00  0.00000000000E+00  0.39999999674E+01  0.40000000000E+01  0.51100000000E-03 0.  1.
    9000002   -1    0    0    0    0 -0.00000000000E+00 -0.00000000000E+00  0.00000000000E+00  0.93800000000E+00  0.93800000000E+00 0. -1.
         11    1    1    2    0    0  0.67445019782E-01  0.25645787627E-01  0.93263668650E+00  0.93542396123E+00  0.51100000000E-03 0.  1.
    9000002    1    1    2    0    0  0.15191850984E+00 -0.66798639233E-01  0.25884704050E-01  0.95291936161E+00  0.93800000000E+00 0. -1.
         22    1    1    2    0    0 -0.21936352963E+00  0.41152851607E-01  0.30414785768E+01  0.30496566772E+01  0.00000000000E+00 0.  1.
</event>
<event>
 5    1  0.3269840E+002  0.1599675E+01  0.7818608E-02  0.3353716E+00
         11   -1    0    0    0    0  0.00000000000E+00  0.00000000000E+00  0.39999999674E+01  0.40000000000E+01  0.51100000000E-03 0. -1.
    9000002   -1    0    0    0    0 -0.00000000000E+00 -0.00000000000E+00  0.00000000000E+00  0.93800000000E+00  0.93800000000E+00 0. -1.
         11    1    1    2    0    0 -0.29441127014E-01 -0.33015475874E-02  0.47884731352E+00  0.47976316132E+00  0.51100000000E-03 0. -1.
    9000002    1    1    2    0    0  0.23946981451E+00  0.19107910797E-01  0.38310417313E-01  0.96903178090E+00  0.93800000000E+00 0. -1.
         22    1    1    2    0    0 -0.21002868750E+00 -0.15806363210E-01  0.34828422365E+01  0.34892050578E+01  0.00000000000E+00 0. -1.
</event>
<event>
 5    1  0.3269840E+002  0.1599622E+01  0.7818608E-02  0.3353774E+00
         11   -1    0    0    0    0  0.00000000000E+00  0.00000000000E+00  0.39999999674E+01  0.40000000000E+01  0.51100000000E-03 0.  1.
    9000002   -1    0    0    0    0 -0.00000000000E+00 -0.00000000000E+00  0.00000000000E+00  0.93800000000E+00  0.93800000000E+00 0.  1.
         11    1    1    2    0    0 -0.12349794770E+00 -0.12758828765E+00  0.16292910415E+01  0.16389387033E+01  0.51100000000E-03 0.  1.
    9000002    1    1    2    0    0  0.28580126410E+00  0.28545011162E+00  0.11015955121E+00  0.10272016625E+01  0.93800000000E+00 0.  1.
         22    1    1    2    0    0 -0.16230331640E+00 -0.15786182397E+00  0.22605493747E+01  0.22718596342E+01  0.00000000000E+00 0.  1.
</event>
<event>
 5    1  0.3269840E+002  0.1599656E+01  0.7818608E-02  0.3353737E+00
         11   -1    0    0    0    0  0.00000000000E+00  0.00000000000E+00  0.39999999674E+01  0.40000000000E+01  0.51100000000E-03 0. -1.
    9000002   -1    0    0    0    0 -0.00000000000E+00 -0.00000000000E+00  0.00000000000E+00  0.93800000000E+00  0.93800000000E+00 0. -1.
         11    1    1    2    0    0 -0.31415550847E-01 -0.23467750423E-01  0.22071303667E+00  0.22416997529E+00  0.51100000000E-03 0. -1.
    9000002    1    1    2    0    0  0.49916415973E+00  0.36593051817E+00  0.26839679369E+00  0.11554007276E+01  0.93800000000E+00 0. -1.
         22    1    1    2    0    0 -0.46774860889E+00 -0.34246276775E+00  0.35108901370E+01  0.35584292971E+01  0.00000000000E+00 0. -1.
</event>
<event>
 5    1  0.3269840E+002  0.1599675E+01  0.7818608E-02  0.3353716E+00
         11   -1    0    0    0    0  0.00000000000E+00  0.00000000000E+00  0.39999999674E+01  0.40000000000E+01  0.51100000000E-03 0. -1.
    9000002   -1    0    0    0    0 -0.00000000000E+00 -0.00000000000E+00  0.00000000000E+00  0.93800000000E+00  0.93800000000E+00 0.  1.
         11    1    1    2    0    0 -0.14287427301E-02  0.23334147235E-01  0.31355253271E+00  0.31442324281E+00  0.51100000000E-03 0. -1.
    9000002    1    1    2    0    0  0.24281188354E-01 -0.29947971918E+00  0.60229194055E-01  0.98678732974E+00  0.93800000000E+00 0.  1.
         22    1    1    2    0    0 -0.22852445624E-01  0.27614557195E+00  0.36262182406E+01  0.36367894275E+01  0.00000000000E+00 0. -1.
</event>
<event>
 5    1  0.3269840E+002  0.1599677E+01  0.7818608E-02  0.3353714E+00
         11   -1    0    0    0    0  0.00000000000E+00  0.00000000000E+00  0.39999999674E+01  0.40000000000E+01  0.51100000000E-03 0. -1.
    9000002   -1    0    0    0    0 -0.00000000000E+00 -0.00000000000E+00  0.00000000000E+00  0.93800000000E+00  0.93800000000E+00 0. -1.
         11    1    1    2    0    0  0.53887633522E-01  0.93210019915E-01  0.13622519594E+01  0.13665001452E+01  0.51100000000E-03 0. -1.
    9000002    1    1    2    0    0 -0.15433567763E+00 -0.26902490784E+00  0.64234036899E-01  0.99003227923E+00  0.93800000000E+00 0. -1.
         22    1    1    2    0    0  0.10044804411E+00  0.17581488793E+00  0.25735139710E+01  0.25814675755E+01  0.00000000000E+00 0. -1.
</event>
<event>
 5    1  0.4119420E+002  0.1592969E+01  0.7818608E-02  0.3361030E+00
         11   -1    0    0    0    0  0.00000000000E+00  0.00000000000E+00  0.39999999674E+01  0.40000000000E+01  0.51100000000E-03 0.  1.
    9000002   -1    0    0    0    0 -0.00000000000E+00 -0.00000000000E+00  0.00000000000E+00  0.93800000000E+00  0.93800000000E+00 0. -1.
         11    1    1    2    0    0  0.18958905466E-01  0.34315217964E-01  0.30924398126E+00  0.31171954598E+00  0.51100000000E-03 0.  1.
    9000002    1    1    2    0    0  0.84474850939E-01  0.15328613324E+00  0.25253406514E-01  0.95452311320E+00  0.93800000000E+00 0. -1.
         22    1    1    2    0    0 -0.10343375640E+00 -0.18760135120E+00  0.36655025796E+01  0.36717573408E+01  0.00000000000E+00 0.  1.
</event>
<event>
 5    1  0.3269840E+002  0.1599674E+01  0.7818608E-02  0.3353717E+00
         11   -1    0    0    0    0  0.00000000000E+00  0.00000000000E+00  0.39999999674E+01  0.40000000000E+01  0.51100000000E-03 0.  1.
    9000002   -1    0    0    0    0 -0.00000000000E+00 -0.00000000000E+00  0.00000000000E+00  0.93800000000E+00  0.93800000000E+00 0. -1.
         11    1    1    2    0    0  0.17705565144E+00 -0.70905401315E-01  0.13497511272E+01  0.13631598021E+01  0.51100000000E-03 0.  1.
    9000002    1    1    2    0    0 -0.49713415740E+00  0.20466874537E+00  0.19917497953E+00  0.10993390461E+01  0.93800000000E+00 0. -1.
         22    1    1    2    0    0  0.32007850596E+00 -0.13376334406E+00  0.24510738607E+01  0.24755011518E+01  0.00000000000E+00 0.  1.
</event>
<event>
 5    1  0.3269840E+002  0.1599587E+01  0.7818608E-02  0.3353812E+00
         11   -1    0    0    0    0  0.00000000000E+00  0.00000000000E+00  0.39999999674E+01  0.40000000000E+01  0.51100000000E-03 0.  1.
    9000002   -1    0    0    0    0 -0.00000000000E+00 -0.00000000000E+00  0.00000000000E+00  0.93800000000E+00  0.93800000000E+00 0. -1.
         11    1    1    2    0    0 -0.50302073648E-01 -0.88552565142E-01  0.10050760563E+01  0.10102227455E+01  0.51100000000E-03 0.  1.
    9000002    1    1    2    0    0  0.23301195150E+00  0.33953629827E+00  0.11463651048E+00  0.10308079341E+01  0.93800000000E+00 0. -1.
         22    1    1    2    0    0 -0.18270987785E+00 -0.25098373313E+00  0.28802874006E+01  0.28969693205E+01  0.00000000000E+00 0.  1.
</event>
<event>
 5    1  0.3269840E+002  0.1494358E+01  0.7818608E-02  0.3476660E+00
         11   -1    0    0    0    0  0.00000000000E+00  0.00000000000E+00  0.39999999674E+01  0.40000000000E+01  0.51100000000E-03 0.  1.
    9000002   -1    0    0    0    0 -0.00000000000E+00 -0.00000000000E+00  0.00000000000E+00  0.93800000000E+00  0.93800000000E+00 0.  1.
         11    1    1    2    0    0 -0.39984900658E+00  0.15266975776E+00  0.16371281804E+01  0.16921513594E+01  0.51100000000E-03 0.  1.
    9000002    1    1    2    0    0  0.41218227413E-01 -0.23440340076E+00  0.12245710834E+00  0.97544022879E+00  0.93800000000E+00 0.  1.
         22    1    1    2    0    0  0.35863077917E+00  0.81733642999E-01  0.22404146786E+01  0.22704084118E+01  0.00000000000E+00 0.  1.
</event>
<event>
 5    1  0.3269840E+002  0.1588161E+01  0.7818608E-02  0.3366314E+00
         11   -1    0    0    0    0  0.00000000000E+00  0.00000000000E+00  0.39999999674E+01  0.40000000000E+01  0.51100000000E-03 0. -1.
    9000002   -1    0    0    0    0 -0.00000000000E+00 -0.00000000000E+00  0.00000000000E+00  0.93800000000E+00  0.93800000000E+00 0. -1.
         11    1    1    2    0    0 -0.15581694988E+00  0.13417337123E-01  0.12772879907E+01  0.12868270355E+01  0.51100000000E-03 0. -1.
    9000002    1    1    2    0    0  0.22790404273E+00  0.23338177612E+00  0.80366985427E-01  0.99634841219E+00  0.93800000000E+00 0. -1.
         22    1    1    2    0    0 -0.72087092844E-01 -0.24679911324E+00  0.26423449912E+01  0.26548245523E+01  0.00000000000E+00 0. -1.
</event>
<event>
 5    1  0.3269840E+002  0.1599610E+01  0.7818608E-02  0.3353787E+00
         11   -1    0    0    0    0  0.00000000000E+00  0.00000000000E+00  0.39999999674E+01  0.40000000000E+01  0.51100000000E-03 0. -1.
    9000002   -1    0    0    0    0 -0.00000000000E+00 -0.00000000000E+00  0.00000000000E+00  0.93800000000E+00  0.93800000000E+00 0. -1.
         11    1    1    2    0    0 -0.30903883418E-01  0.67736783151E-01  0.92748034701E+00  0.93046406541E+00  0.51100000000E-03 0. -1.
    9000002    1    1    2    0    0  0.13654070290E+00 -0.25293866596E+00  0.55106718822E-01  0.98259965538E+00  0.93800000000E+00 0. -1.
         22    1    1    2    0    0 -0.10563681948E+00  0.18520188281E+00  0.30174129015E+01  0.30249362792E+01  0.00000000000E+00 0. -1.
</event>
<event>
 5    1  0.3269840E+002  0.1530731E+01  0.7818608E-02  0.3432157E+00
         11   -1    0    0    0    0  0.00000000000E+00  0.00000000000E+00  0.39999999674E+01  0.40000000000E+01  0.51100000000E-03 0.  1.
    9000002   -1    0    0    0    0 -0.00000000000E+00 -0.00000000000E+00  0.00000000000E+00  0.93800000000E+00  0.93800000000E+00 0. -1.
         11    1    1    2    0    0  0.38607567606E-01 -0.19537926501E+00  0.62745761646E+00  0.65830610133E+00  0.51100000000E-03 0.  1.
    9000002    1    1    2    0    0  0.53772797034E+00 -0.19017706804E-01  0.26698073190E+00  0.11138382982E+01  0.93800000000E+00 0. -1.
         22    1    1    2    0    0 -0.57633553795E+00  0.21439697181E+00  0.31055616190E+01  0.31658556005E+01  0.00000000000E+00 0.  1.
</event>
<event>
 5    1  0.3269840E+002  0.1599676E+01  0.7818608E-02  0.3353715E+00
         11   -1    0    0    0    0  0.00000000000E+00  0.00000000000E+00  0.39999999674E+01  0.40000000000E+01  0.51100000000E-03 0. -1.
    9000002   -1    0    0    0    0 -0.00000000000E+00 -0.00000000000E+00  0.00000000000E+00  0.93800000000E+00  0.93800000000E+00 0. -1.
         11    1    1    2    0    0 -0.43517647514E-01  0.27715386920E+00  0.20086833813E+01  0.20281807711E+01  0.51100000000E-03 0. -1.
    9000002    1    1    2    0    0  0.83188305009E-01 -0.52685199707E+00  0.19589372181E+00  0.10966821195E+01  0.93800000000E+00 0. -1.
         22    1    1    2    0    0 -0.39670657495E-01  0.24969812787E+00  0.17954228643E+01  0.18131371094E+01  0.00000000000E+00 0. -1.
</event>
<event>
 5    1  0.3269840E+002  0.1599135E+01  0.7818608E-02  0.3354302E+00
         11   -1    0    0    0    0  0.00000000000E+00  0.00000000000E+00  0.39999999674E+01  0.40000000000E+01  0.51100000000E-03 0.  1.
    9000002   -1    0    0    0    0 -0.00000000000E+00 -0.00000000000E+00  0.00000000000E+00  0.93800000000E+00  0.93800000000E+00 0.  1.
         11    1    1    2    0    0  0.36924345427E-01  0.38299971787E-01  0.55631251036E+00  0.55885075417E+00  0.51100000000E-03 0.  1.
    9000002    1    1    2    0    0 -0.24690278798E+00 -0.13410183717E+00  0.52994688967E-01  0.98061038466E+00  0.93800000000E+00 0.  1.
         22    1    1    2    0    0  0.20997844255E+00  0.95801865379E-01  0.33906927680E+01  0.33985388612E+01  0.00000000000E+00 0.  1.
</event>
<event>
 5    1  0.3269840E+002  0.1593027E+01  0.7818608E-02  0.3360966E+00
         11   -1    0    0    0    0  0.00000000000E+00  0.00000000000E+00  0.39999999674E+01  0.40000000000E+01  0.51100000000E-03 0. -1.
    9000002   -1    0    0    0    0 -0.00000000000E+00 -0.00000000000E+00  0.00000000000E+00  0.93800000000E+00  0.93800000000E+00 0.  1.
         11    1    1    2    0    0 -0.35151537685E-01 -0.14306024442E+00  0.51551384849E+00  0.53614984216E+00  0.51100000000E-03 0. -1.
    9000002    1    1    2    0    0  0.19661052505E+00  0.54455769835E+00  0.23933619091E+00  0.11279736689E+01  0.93800000000E+00 0.  1.
         22    1    1    2    0    0 -0.16145898737E+00 -0.40149745392E+00  0.32451499280E+01  0.32738764890E+01  0.00000000000E+00 0. -1.
</event>
<event>
 5    1  0.3269840E+002  0.1592174E+01  0.7818608E-02  0.3361902E+00
         11   -1    0    0    0    0  0.00000000000E+00  0.00000000000E+00  0.39999999674E+01  0.40000000000E+01  0.51100000000E-03 0.  1.
    9000002   -1    0    0    0    0 -0.00000000000E+00 -0.00000000000E+00  0.00000000000E+00  0.93800000000E+00  0.93800000000E+00 0. -1.
         11    1    1    2    0    0  0.15138317988E-01 -0.21893543415E-01  0.58691365015E-01  0.64447136190E-01  0.51100000000E-03 0.  1.
    9000002    1    1    2    0    0  0.19060824619E+00  0.22272416508E+00  0.63168850079E-01  0.98476995326E+00  0.93800000000E+00 0. -1.
         22    1    1    2    0    0 -0.20574656418E+00 -0.20083062167E+00  0.38781397523E+01  0.38887829105E+01  0.00000000000E+00 0.  1.
</event>
<event>
 5    1  0.3269840E+002  0.1599644E+01  0.7818608E-02  0.3353749E+00
         11   -1    0    0    0    0  0.00000000000E+00  0.00000000000E+00  0.39999999674E+01  0.40000000000E+01  0.51100000000E-03 0. -1.
    9000002   -1    0    0    0    0 -0.00000000000E+00 -0.00000000000E+00  0.00000000000E+00  0.93800000000E+00  0.93800000000E+00 0. -1.
         11    1    1    2    0    0 -0.31540020938E-01  0.42072483205E-01  0.68593824963E+00  0.68795087775E+00  0.51100000000E-03 0. -1.
    9000002    1    1    2    0    0  0.16300920731E+00 -0.21883772343E+00  0.49580426592E-01  0.97814322549E+00  0.93800000000E+00 0. -1.
         22    1    1    2    0    0 -0.13146918638E+00  0.17676524022E+00  0.32644812911E+01  0.32719058968E+01  0.00000000000E+00 0. -1.
</event>
<event>
 5    1  0.3269840E+002  0.1598534E+01  0.7818608E-02  0.3354956E+00
         11   -1    0    0    0    0  0.00000000000E+00  0.00000000000E+00  0.39999999674E+01  0.40000000000E+01  0.51100000000E-03 0. -1.
    9000002   -1    0    0    0    0 -0.00000000000E+00 -0.00000000000E+00  0.00000000000E+00  0.93800000000E+00  0.93800000000E+00 0.  1.
         11    1    1    2    0    0  0.78664326197E-02 -0.16186457923E+00  0.13081874379E+01  0.13181868823E+01  0.51100000000E-03 0. -1.
    9000002    1    1    2    0    0  0.45891844275E-02  0.37157754816E+00  0.93753582609E-01  0.10132742320E+01  0.93800000000E+00 0.  1.
         22    1    1    2    0    0 -0.12455617047E-01 -0.20971296893E+00  0.25980589469E+01  0.26065388858E+01  0.00000000000E+00 0. -1.
</event>
<event>
 5    1  0.3269840E+002  0.1599262E+01  0.7818608E-02  0.3354164E+00
         11   -1    0    0    0    0  0.00000000000E+00  0.00000000000E+00  0.39999999674E+01  0.40000000000E+01  0.51100000000E-03 0.  1.
    9000002   -1    0    0    0    0 -0.00000000000E+00 -0.00000000000E+00  0.00000000000E+00  0.93800000000E+00  0.93800000000E+00 0. -1.
         11    1    1    2    0    0 -0.40328603900E+00 -0.11987054104E+00  0.24928567340E+01  0.25281106648E+01  0.51100000000E-03 0.  1.
    9000002    1    1    2    0    0  0.62400785133E+00  0.15376620514E+00  0.29137919152E+00  0.11737868962E+01  0.93800000000E+00 0. -1.
         22    1    1    2    0    0 -0.22072181232E+00 -0.33895664103E-01  0.12157640418E+01  0.12361024391E+01  0.00000000000E+00 0.  1.
</event>
<event>
 5    1  0.3269840E+002  0.1594163E+01  0.7818608E-02  0.3359723E+00
         11   -1    0    0    0    0  0.00000000000E+00  0.00000000000E+00  0.39999999674E+01  0.40000000000E+01  0.51100000000E-03 0. -1.
    9000002   -1    0    0    0    0 -0.00000000000E+00 -0.00000000000E+00  0.00000000000E+00  0.93800000000E+00  0.93800000000E+00 0. -1.
         11    1    1    2    0    0  0.26304058326E-01 -0.26309706067E-01  0.39031863757E+00  0.39208800553E+00  0.51100000000E-03 0. -1.
    9000002    1    1    2    0    0 -0.49897202349E-01 -0.22805721843E+00  0.40356008538E-01  0.96745668281E+00  0.93800000000E+00 0. -1.
         22    1    1    2    0    0  0.23593144022E-01  0.25436692449E+00  0.35693253212E+01  0.35784553117E+01  0.00000000000E+00 0. -1.
</event>
<event>
 5    1  0.3269840E+002  0.1599605E+01  0.7818608E-02  0.3353792E+00
         11   -1    0    0    0    0  0.00000000000E+00  0.00000000000E+00  0.39999999674E+01  0.40000000000E+01  0.51100000000E-03 0.  1.
    9000002   -1    0    0    0    0 -0.00000000000E+00 -0.00000000000E+00  0.00000000000E+00  0.93800000000E+00  0.93800000000E+00 0.  1.
         11    1    1    2    0    0 -0.11713974495E+00  0.33505126517E-01  0.14530679636E+01  0.14581670279E+01  0.51100000000E-03 0.  1.
    9000002    1    1    2    0    0  0.33625592905E+00 -0.10735099636E+00  0.83626109641E-01  0.10056985694E+01  0.93800000000E+00 0.  1.
         22    1    1    2    0    0 -0.21911618409E+00  0.73845869848E-01  0.24633058941E+01  0.24741344027E+01  0.00000000000E+00 0.  1.
</event>
<event>
 5    1  0.3269840E+002  0.1599653E+01  0.7818608E-02  0.3353740E+00
         11   -1    0    0    0    0  0.00000000000E+00  0.00000000000E+00  0.39999999674E+01  0.40000000000E+01  0.51100000000E-03 0.  1.
    9000002   -1    0    0    0    0 -0.00000000000E+00 -0.00000000000E+00  0.00000000000E+00  0.93800000000E+00  0.93800000000E+00 0.  1.
         11    1    1    2    0    0  0.87686706760E-02  0.20273387056E+00  0.19615493716E+01  0.19720177764E+01  0.51100000000E-03 0.  1.
    9000002    1    1    2    0    0 -0.24318749145E-01 -0.41110730195E+00  0.11459615638E+00  0.10308137050E+01  0.93800000000E+00 0.  1.
         22    1    1    2    0    0  0.15550078468E-01  0.20837343139E+00  0.19238544394E+01  0.19351685187E+01  0.00000000000E+00 0. -1.
</event>
<event>
 5    1  0.3269840E+002  0.1599667E+01  0.7818608E-02  0.3353724E+00
         11   -1    0    0    0    0  0.00000000000E+00  0.00000000000E+00  0.39999999674E+01  0.40000000000E+01  0.51100000000E-03 0. -1.
    9000002   -1    0    0    0    0 -0.00000000000E+00 -0.00000000000E+00  0.00000000000E+00  0.93800000000E+00  0.93800000000E+00 0. -1.
         11    1    1    2    0    0  0.90641106530E-01  0.10914474131E-01  0.12286212610E+01  0.12320086850E+01  0.51100000000E-03 0. -1.
    9000002    1    1    2    0    0 -0.29916711234E+00 -0.41970823001E-01  0.60901715471E-01  0.98732746849E+00  0.93800000000E+00 0. -1.
         22    1    1    2    0    0  0.20852600581E+00  0.31056348870E-01  0.27104769909E+01  0.27186638465E+01  0.00000000000E+00 0. -1.
</event>
<event>
 5    1  0.3269840E+002  0.1599677E+01  0.7818608E-02  0.3353715E+00
         11   -1    0    0    0    0  0.00000000000E+00  0.00000000000E+00  0.39999999674E+01  0.40000000000E+01  0.51100000000E-03 0.  1.
    9000002   -1    0    0    0    0 -0.00000000000E+00 -0.00000000000E+00  0.00000000000E+00  0.93800000000E+00  0.93800000000E+00 0.  1.
         11    1    1    2    0    0  0.24950821175E-01  0.52639293956E-01  0.75306016886E+00  0.75531008056E+00  0.51100000000E-03 0.  1.
    9000002    1    1    2    0    0 -0.12887365499E+00 -0.27294292485E+00  0.60788874597E-01  0.98724138206E+00  0.93800000000E+00 0.  1.
         22    1    1    2    0    0  0.10392283381E+00  0.22030363090E+00  0.31861509239E+01  0.31954485374E+01  0.00000000000E+00 0.  1.
</event>
<event>
 5    1  0.3269840E+002  0.1585853E+01  0.7818608E-02  0.3368862E+00
         11   -1    0    0    0    0  0.00000000000E+00  0.00000000000E+00  0.39999999674E+01  0.40000000000E+01  0.51100000000E-03 0.  1.
    9000002   -1    0    0    0    0 -0.00000000000E+00 -0.00000000000E+00  0.00000000000E+00  0.93800000000E+00  0.93800000000E+00 0.  1.
         11    1    1    2    0    0  0.98707460705E-01  0.13219760533E-01  0.29674555844E+00  0.31301136153E+00  0.51100000000E-03 0.  1.
    9000002    1    1    2    0    0 -0.31974460809E+00  0.38935964772E-01  0.80394704821E-01  0.99501755377E+00  0.93800000000E+00 0.  1.
         22    1    1    2    0    0  0.22103714738E+00 -0.52155725305E-01  0.36228597041E+01  0.36299710847E+01  0.00000000000E+00 0.  1.
</event>
<event>
 5    1  0.3269840E+002  0.1599676E+01  0.7818608E-02  0.3353715E+00
         11   -1    0    0    0    0  0.00000000000E+00  0.00000000000E+00  0.39999999674E+01  0.40000000000E+01  0.51100000000E-03 0.  1.
    9000002   -1    0    0    0    0 -0.00000000000E+00 -0.00000000000E+00  0.00000000000E+00  0.93800000000E+00  0.93800000000E+00 0. -1.
         11    1    1    2    0    0 -0.32248681974E-01  0.18281511332E-01  0.46927736610E+00  0.47073952310E+00  0.51100000000E-03 0.  1.
    9000002    1    1    2    0    0  0.26591973984E+00 -0.15730766884E+00  0.63736754511E-01  0.98962891257E+00  0.93800000000E+00 0. -1.
         22    1    1    2    0    0 -0.23367105786E+00  0.13902615751E+00  0.34669858467E+01  0.34776315643E+01  0.00000000000E+00 0.  1.
</event>
<event>
 5    1  0.3269840E+002  0.1599665E+01  0.7818608E-02  0.3353727E+00
         11   -1    0    0    0    0  0.00000000000E+00  0.00000000000E+00  0.39999999674E+01  0.40000000000E+01  0.51100000000E-03 0.  1.
    9000002   -1    0    0    0    0 -0.00000000000E+00 -0.00000000000E+00  0.00000000000E+00  0.93800000000E+00  0.93800000000E+00 0. -1.
         11    1    1    2    0    0  0.20917948001E-01  0.73751128885E-03  0.24677533794E+00  0.24766193290E+00  0.51100000000E-03 0.  1.
    9000002    1    1    2    0    0 -0.34789075207E+00 -0.38106413830E-01  0.82133198456E-01  0.10045247316E+01  0.93800000000E+00 0. -1.
         22    1    1    2    0    0  0.32697280407E+00  0.37368902541E-01  0.36710914310E+01  0.36858133355E+01  0.00000000000E+00 0.  1.
</event>
<event>
 5    1  0.3269840E+002  0.1594109E+01  0.7818608E-02  0.3359783E+00
         11   -1    0    0    0    0  0.00000000000E+00  0.00000000000E+00  0.39999999674E+01  0.40000000000E+01  0.51100000000E-03 0. -1.
    9000002   -1    0    0    0    0 -0.00000000000E+00 -0.00000000000E+00  0.00000000000E+00  0.93800000000E+00  0.93800000000E+00 0. -1.
         11    1    1    2    0    0 -0.18116078791E-01 -0.58889032937E-02  0.43454937628E-01  0.47449596605E-01  0.51100000000E-03 0. -1.
    9000002    1    1    2    0    0  0.92107379415E-01 -0.24043892122E+00  0.48346047093E-01  0.97389731720E+00  0.93800000000E+00 0. -1.
         22    1    1    2    0    0 -0.73991300624E-01  0.24632782451E+00  0.39081989826E+01  0.39166530862E+01  0.00000000000E+00 0. -1.
</event>
<event>
 5    1  0.3269840E+002  0.1563661E+01  0.7818608E-02  0.3393775E+00
         11   -1    0    0    0    0  0.00000000000E+00  0.00000000000E+00  0.39999999674E+01  0.40000000000E+01  0.51100000000E-03 0.  1.
    9000002   -1    0    0    0    0 -0.00000000000E+00 -0.00000000000E+00  0.00000000000E+00  0.93800000000E+00  0.93800000000E+00 0.  1.
         11    1    1    2    0    0 -0.24851037244E-01 -0.17966278138E+00  0.17496256509E+01  0.17590015545E+01  0.51100000000E-03 0.  1.
    9000002    1    1    2    0    0 -0.25486828046E+00 -0.84636108536E-03  0.71278131997E-01  0.97461947898E+00  0.93800000000E+00 0.  1.
         22    1    1    2    0    0  0.27971931770E+00  0.18050914247E+00  0.21790961844E+01  0.22043789666E+01  0.00000000000E+00 0.  1.
</event>
<event>
 5    1  0.3269840E+002  0.1599666E+01  0.7818608E-02  0.3353726E+00
         11   -1    0    0    0    0  0.00000000000E+00  0.00000000000E+00  0.39999999674E+01  0.40000000000E+01  0.51100000000E-03 0.  1.
    9000002   -1    0    0    0    0 -0.00000000000E+00 -0.00000000000E+00  0.00000000000E+00  0.93800000000E+00  0.93800000000E+00 0. -1.
         11    1    1    2    0    0  0.20123017366E+00 -0.60781350938E-01  0.17614126616E+01  0.17739117174E+01  0.51100000000E-03 0.  1.
    9000002    1    1    2    0    0 -0.43222340224E+00  0.13423571833E+00  0.13918469813E+00  0.10507391102E+01  0.93800000000E+00 0. -1.
         22    1    1    2    0    0  0.23099322858E+00 -0.73454367393E-01  0.20994026076E+01  0.21133491724E+01  0.00000000000E+00 0.  1.
</event>
<event>
 5    1  0.3269840E+002  0.1565630E+01  0.7818608E-02  0.3391534E+00
         11   -1    0    0    0    0  0.00000000000E+00  0.00000000000E+00  0.39999999674E+01  0.40000000000E+01  0.51100000000E-03 0.  1.
    9000002   -1    0    0    0    0 -0.00000000000E+00 -0.00000000000E+00  0.00000000000E+00  0.93800000000E+00  0.93800000000E+00 0. -1.
         11    1    1    2    0    0 -0.63735044976E-01 -0.10025839730E+00  0.45123287294E+00  0.46661040380E+00  0.51100000000E-03 0.  1.
    9000002    1    1    2    0    0 -0.10513277515E+00 -0.17147755095E+00  0.52759185819E-01  0.96077311712E+00  0.93800000000E+00 0. -1.
         22    1    1    2    0    0  0.16886782012E+00  0.27173594824E+00  0.34960079086E+01  0.35106164791E+01  0.00000000000E+00 0.  1.
</event>
<event>
 5    1  0.3269840E+002  0.1599676E+01  0.7818608E-02  0.3353715E+00
         11   -1    0    0    0    0  0.00000000000E+00  0.00000000000E+00  0.39999999674E+01  0.40000000000E+01  0.51100000000E-03 0. -1.
    9000002   -1    0    0    0    0 -0.00000000000E+00 -0.00000000000E+00  0.00000000000E+00  0.93800000000E+00  0.93800000000E+00 0.  1.
         11    1    1    2    0    0 -0.69902873984E-01 -0.10976392840E+00  0.13198283869E+01  0.13262283980E+01  0.51100000000E-03 0. -1.
    9000002    1    1    2    0    0  0.20370409303E+00  0.32284248963E+00  0.98069542293E-01  0.10174400551E+01  0.93800000000E+00 0.  1.
         22    1    1    2    0    0 -0.13380121905E+00 -0.21307856122E+00  0.25821020382E+01  0.25943315469E+01  0.00000000000E+00 0. -1.
</event>
<event>
 5    1  0.3269840E+002  0.1599592E+01  0.7818608E-02  0.3353806E+00
         11   -1    0    0    0    0  0.00000000000E+00  0.00000000000E+00  0.39999999674E+01  0.40000000000E+01  0.51100000000E-03 0.  1.
    9000002   -1    0    0    0    0 -0.00000000000E+00 -0.00000000000E+00  0.00000000000E+00  0.93800000000E+00  0.93800000000E+00 0. -1.
         11    1    1    2    0    0  0.78423700976E-03  0.67595147034E-02  0.10534517254E+00  0.10556596310E+00  0.51100000000E-03 0.  1.
    9000002    1    1    2    0    0  0.10278323302E+00 -0.26581250281E+00  0.54175741867E-01  0.98183485915E+00  0.93800000000E+00 0. -1.
         22    1    1    2    0    0 -0.10356747003E+00  0.25905298811E+00  0.38404790530E+01  0.38505991777E+01  0.00000000000E+00 0.  1.
</event>
<event>
 5    1  0.3269840E+002  0.1532011E+01  0.7818608E-02  0.3430632E+00
         11   -1    0    0    0    0  0.00000000000E+00  0.00000000000E+00  0.39999999674E+01  0.40000000000E+01  0.51100000000E-03 0. -1.
    9000002   -1    0    0    0    0 -0.00000000000E+00 -0.00000000000E+00  0.00000000000E+00  0.93800000000E+00  0.93800000000E+00 0. -1.
         11    1    1    2    0    0 -0.16564390686E+00  0.23028357803E-01  0.30602530398E+00  0.34874052953E+00  0.51100000000E-03 0. -1.
    9000002    1    1    2    0    0 -0.16723540370E-01  0.26443286492E+00  0.10069739767E+00  0.97989202607E+00  0.93800000000E+00 0. -1.
         22    1    1    2    0    0  0.18236744723E+00 -0.28746122273E+00  0.35932772657E+01  0.36093674444E+01  0.00000000000E+00 0. -1.
</event>
<event>
 5    1  0.3269840E+002  0.1598625E+01  0.7818608E-02  0.3354857E+00
         11   -1    0    0    0    0  0.00000000000E+00  0.00000000000E+00  0.39999999674E+01  0.40000000000E+01  0.51100000000E-03 0. -1.
    9000002   -1    0    0    0    0 -0.00000000000E+00 -0.00000000000E+00  0.00000000000E+00  0.93800000000E+00  0.93800000000E+00 0.  1.
         11    1    1    2    0    0  0.86732088083E-02 -0.58092971940E-01  0.10257455827E+01  0.10274260457E+01  0.51100000000E-03 0. -1.
    9000002    1    1    2    0    0 -0.13334045022E+00  0.30739546438E+00  0.75998229511E-01  0.99894513266E+00  0.93800000000E+00 0.  1.
         22    1    1    2    0    0  0.12466724141E+00 -0.24930249244E+00  0.28982561552E+01  0.29116288216E+01  0.00000000000E+00 0. -1.
</event>
<event>
 5    1  0.3269840E+002  0.1563601E+01  0.7818608E-02  0.3393843E+00
         11   -1    0    0    0    0  0.00000000000E+00  0.00000000000E+00  0.39999999674E+01  0.40000000000E+01  0.51100000000E-03 0.  1.
    9000002   -1    0    0    0    0 -0.00000000000E+00 -0.00000000000E+00  0.00000000000E+00  0.93800000000E+00  0.93800000000E+00 0.  1.
         11    1    1    2    0    0  0.11985812638E+00 -0.12311762507E+00  0.75978178058E+00  0.77896889237E+00  0.51100000000E-03 0.  1.
    9000002    1    1    2    0    0 -0.19597876468E+00 -0.19813449311E+00  0.80190737498E-01  0.98180421060E+00  0.93800000000E+00 0.  1.
         22    1    1    2    0    0  0.76120638299E-01  0.32125211818E+00  0.31600274493E+01  0.31772268970E+01  0.00000000000E+00 0.  1.
</event>
<event>
 5    1  0.3269840E+002  0.1599389E+01  0.7818608E-02  0.3354027E+00
         11   -1    0    0    0    0  0.00000000000E+00  0.00000000000E+00  0.39999999674E+01  0.40000000000E+01  0.51100000000E-03 0. -1.
    9000002   -1    0    0    0    0 -0.00000000000E+00 -0.00000000000E+00  0.00000000000E+00  0.93800000000E+00  0.93800000000E+00 0.  1.
         11    1    1    2    0    0  0.15432485676E+00 -0.24772821197E+00  0.22476235748E+01  0.22664945232E+01  0.51100000000E-03 0. -1.
    9000002    1    1    2    0    0 -0.23552908398E+00  0.44261871181E+00  0.17238742879E+00  0.10774723658E+01  0.93800000000E+00 0.  1.
         22    1    1    2    0    0  0.81204227219E-01 -0.19489049985E+00  0.15799889637E+01  0.15940331110E+01  0.00000000000E+00 0.  1.
</event>
<event>
 5    1  0.3269840E+002  0.1599675E+01  0.7818608E-02  0.3353716E+00
         11   -1    0    0    0    0  0.00000000000E+00  0.00000000000E+00  0.39999999674E+01  0.40000000000E+01  0.51100000000E-03 0.  1.
    9000002   -1    0    0    0    0 -0.00000000000E+00 -0.00000000000E+00  0.00000000000E+00  0.93800000000E+00  0.93800000000E+00 0.  1.
         11    1    1    2    0    0  0.27970758310E+00  0.41685883291E+00  0.21790901995E+01  0.22361668045E+01  0.51100000000E-03 0.  1.
    9000002    1    1    2    0    0 -0.45202485604E+00 -0.67434374268E+00  0.48746247956E+00  0.13328651930E+01  0.93800000000E+00 0.  1.
         22    1    1    2    0    0  0.17231727293E+00  0.25748490977E+00  0.13334472883E+01  0.13689680025E+01  0.00000000000E+00 0.  1.
</event>
<event>
 5    1  0.3269840E+002  0.1599413E+01  0.7818608E-02  0.3354001E+00
         11   -1    0    0    0    0  0.00000000000E+00  0.00000000000E+00  0.39999999674E+01  0.40000000000E+01  0.51100000000E-03 0. -1.
    9000002   -1    0    0    0    0 -0.00000000000E+00 -0.00000000000E+00  0.00000000000E+00  0.93800000000E+00  0.93800000000E+00 0. -1.
         11    1    1    2    0    0 -0.17796874912E+00  0.63643482777E+00  0.20259240703E+01  0.21309835207E+01  0.51100000000E-03 0. -1.
    9000002    1    1    2    0    0  0.25658334743E+00 -0.10032035869E+01  0.88190214175E+00  0.16522251174E+01  0.93800000000E+00 0. -1.
         22    1    1    2    0    0 -0.78614598315E-01  0.36676875915E+00  0.10921737553E+01  0.11547913619E+01  0.00000000000E+00 0. -1.
</event>
<event>
 5    1  0.3269840E+002  0.1599663E+01  0.7818608E-02  0.3353730E+00
         11   -1    0    0    0    0  0.00000000000E+00  0.00000000000E+00  0.39999999674E+01  0.40000000000E+01  0.51100000000E-03 0. -1.
    9000002   -1    0    0    0    0 -0.00000000000E+00 -0.00000000000E+00  0.00000000000E+00  0.93800000000E+00  0.93800000000E+00 0.  1.
         11    1    1    2    0    0 -0.15995839089E+00  0.17304724175E+00  0.20581490627E+01  0.20715959694E+01  0.51100000000E-03 0. -1.
    9000002    1    1    2    0    0  0.29217162606E+00 -0.32581484600E+00  0.12985625788E+00  0.10431808188E+01  0.93800000000E+00 0.  1.
         22    1    1    2    0    0 -0.13221323516E+00  0.15276760425E+00  0.18119946467E+01  0.18232232119E+01  0.00000000000E+00 0. -1.
</event>
<event>
 5    1  0.3269840E+002  0.1599677E+01  0.7818608E-02  0.3353714E+00
         11   -1    0    0    0    0  0.00000000000E+00  0.00000000000E+00  0.39999999674E+01  0.40000000000E+01  0.51100000000E-03 0.  1.
    9000002   -1    0    0    0    0 -0.00000000000E+00 -0.00000000000E+00  0.00000000000E+00  0.93800000000E+00  0.93800000000E+00 0. -1.
         11    1    1    2    0    0  0.24749786531E+00  0.58472711008E+00  0.23990439060E+01  0.24816472172E+01  0.51100000000E-03 0.  1.
    9000002    1    1    2    0    0 -0.34956685456E+00 -0.82600531983E+00  0.61495074318E+00  0.14361372465E+01  0.93800000000E+00 0.  1.
         22    1    1    2    0    0  0.10206898925E+00  0.24127820975E+00  0.98600531816E+00  0.10202155363E+01  0.00000000000E+00 0.  1.
</event>
<event>
 5    1  0.3269840E+002  0.1599673E+01  0.7818608E-02  0.3353719E+00
         11   -1    0    0    0    0  0.00000000000E+00  0.00000000000E+00  0.39999999674E+01  0.40000000000E+01  0.51100000000E-03 0. -1.
    9000002   -1    0    0    0    0 -0.00000000000E+00 -0.00000000000E+00  0.00000000000E+00  0.93800000000E+00  0.93800000000E+00 0. -1.
         11    1    1    2    0    0 -0.68514019306E-02 -0.43304515088E-01  0.55838376606E+00  0.56010259244E+00  0.51100000000E-03 0. -1.
    9000002    1    1    2    0    0  0.48515378385E-01  0.29340675644E+00  0.58989439196E-01  0.98578142638E+00  0.93800000000E+00 0. -1.
         22    1    1    2    0    0 -0.41663976455E-01 -0.25010224135E+00  0.33826267621E+01  0.33921159812E+01  0.00000000000E+00 0. -1.
</event>
<event>
 5    1  0.3269840E+002  0.1598894E+01  0.7818608E-02  0.3354565E+00
         11   -1    0    0    0    0  0.00000000000E+00  0.00000000000E+00  0.39999999674E+01  0.40000000000E+01  0.51100000000E-03 0. -1.
    9000002   -1    0    0    0    0 -0.00000000000E+00 -0.00000000000E+00  0.00000000000E+00  0.93800000000E+00  0.93800000000E+00 0.  1.
         11    1    1    2    0    0 -0.11672730789E+00 -0.64323403308E-01  0.10237639557E+01  0.10324028587E+01  0.51100000000E-03 0. -1.
    9000002    1    1    2    0    0  0.33027532791E+00  0.23788835254E+00  0.11250633903E+00  0.10286760116E+01  0.93800000000E+00 0.  1.
         22    1    1    2    0    0 -0.21354802002E+00 -0.17356494924E+00  0.28637296726E+01  0.28769211297E+01  0.00000000000E+00 0. -1.
</event>
<event>
 5    1  0.3269840E+002  0.1599555E+01  0.7818608E-02  0.3353847E+00
         11   -1    0    0    0    0  0.00000000000E+00  0.00000000000E+00  0.39999999674E+01  0.40000000000E+01  0.51100000000E-03 0.  1.
    9000002   -1    0    0    0    0 -0.00000000000E+00 -0.00000000000E+00  0.00000000000E+00  0.93800000000E+00  0.93800000000E+00 0.  1.
         11    1    1    2    0    0  0.47563169616E-01  0.33112197562E-01  0.10474768579E+01  0.10490789778E+01  0.51100000000E-03 0.  1.
    9000002    1    1    2    0    0 -0.19934463207E+00 -0.16479566358E+00  0.44562004917E-01  0.97402549523E+00  0.93800000000E+00 0.  1.
         22    1    1    2    0    0  0.15178146245E+00  0.13168346602E+00  0.29079611046E+01  0.29148955270E+01  0.00000000000E+00 0.  1.
</event>
<event>
 5    1  0.3269840E+002  0.1599426E+01  0.7818608E-02  0.3353987E+00
         11   -1    0    0    0    0  0.00000000000E+00  0.00000000000E+00  0.39999999674E+01  0.40000000000E+01  0.51100000000E-03 0.  1.
    9000002   -1    0    0    0    0 -0.00000000000E+00 -0.00000000000E+00  0.00000000000E+00  0.93800000000E+00  0.93800000000E+00 0. -1.
         11    1    1    2    0    0 -0.64340386007E-02  0.15203165936E+00  0.10891342126E+01  0.10997129700E+01  0.51100000000E-03 0.  1.
    9000002    1    1    2    0    0 -0.93625080975E-02 -0.48409983989E+00  0.16029374474E+00  0.10676977082E+01  0.93800000000E+00 0. -1.
         22    1    1    2    0    0  0.15796546698E-01  0.33206818053E+00  0.27505720100E+01  0.27705893218E+01  0.00000000000E+00 0.  1.
</event>
<event>
 5    1  0.3269840E+002  0.1590970E+01  0.7818608E-02  0.3363223E+00
         11   -1    0    0    0    0  0.00000000000E+00  0.00000000000E+00  0.39999999674E+01  0.40000000000E+01  0.51100000000E-03 0.  1.
    9000002   -1    0    0    0    0 -0.00000000000E+00 -0.00000000000E+00  0.00000000000E+00  0.93800000000E+00  0.93800000000E+00 0. -1.
         11    1    1    2    0    0 -0.14396610656E+00  0.33566453122E-01  0.18859507435E+01  0.18917355562E+01  0.51100000000E-03 0.  1.
    9000002    1    1    2    0    0  0.23205800348E+00  0.15398892967E+00  0.58416431732E-01  0.98021425563E+00  0.93800000000E+00 0. -1.
         22    1    1    2    0    0 -0.88091896920E-01 -0.18755538279E+00  0.20556327921E+01  0.20660501882E+01  0.00000000000E+00 0.  1.
</event>
<event>
 5    1  0.3269840E+002  0.1599676E+01  0.7818608E-02  0.3353715E+00
         11   -1    0    0    0    0  0.00000000000E+00  0.00000000000E+00  0.39999999674E+01  0.40000000000E+01  0.51100000000E-03 0.  1.
    9000002   -1    0    0    0    0 -0.00000000000E+00 -0.00000000000E+00  0.00000000000E+00  0.93800000000E+00  0.93800000000E+00 0.  1.
         11    1    1    2    0    0 -0.32221734568E-01 -0.22048681037E-01  0.28457768771E+00  0.28724398336E+00  0.51100000000E-03 0.  1.
    9000002    1    1    2    0    0  0.42963039478E+00  0.29586312984E+00  0.18697701880E+00  0.10894593491E+01  0.93800000000E+00 0.  1.
         22    1    1    2    0    0 -0.39740866022E+00 -0.27381444880E+00  0.35284452609E+01  0.35612966676E+01  0.00000000000E+00 0.  1.
</event>
<event>
 5    1  0.3269840E+002  0.1599654E+01  0.7818608E-02  0.3353739E+00
         11   -1    0    0    0    0  0.00000000000E+00  0.00000000000E+00  0.39999999674E+01  0.40000000000E+01  0.51100000000E-03 0. -1.
    9000002   -1    0    0    0    0 -0.00000000000E+00 -0.00000000000E+00  0.00000000000E+00  0.93800000000E+00  0.93800000000E+00 0. -1.
         11    1    1    2    0    0  0.15129484876E-01  0.60534331586E-02  0.12794587548E+00  0.12898043859E+00  0.51100000000E-03 0. -1.
    9000002    1    1    2    0    0 -0.50842019819E+00 -0.16285925958E+00  0.19629085860E+00  0.10969905822E+01  0.93800000000E+00 0. -1.
         22    1    1    2    0    0  0.49329071331E+00  0.15680582642E+00  0.36757632333E+01  0.37120289792E+01  0.00000000000E+00 0. -1.
</event>
<event>
 5    1  0.3269840E+002  0.1599609E+01  0.7818608E-02  0.3353788E+00
         11   -1    0    0    0    0  0.00000000000E+00  0.00000000000E+00  0.39999999674E+01  0.40000000000E+01  0.51100000000E-03 0. -1.
    9000002   -1    0    0    0    0 -0.00000000000E+00 -0.00000000000E+00  0.00000000000E+00  0.93800000000E+00  0.93800000000E+00 0.  1.
         11    1    1    2    0    0  0.84975250787E-01 -0.21400111316E-01  0.10952139370E+01  0.10987140606E+01  0.51100000000E-03 0. -1.
    9000002    1    1    2    0    0 -0.28289928413E+00  0.54957219616E-01  0.55398359092E-01  0.98283532656E+00  0.93800000000E+00 0.  1.
         22    1    1    2    0    0  0.19792403334E+00 -0.33557108301E-01  0.28493876713E+01  0.28564506129E+01  0.00000000000E+00 0. -1.
</event>
<event>
 5    1  0.3269840E+002  0.1522844E+01  0.7818608E-02  0.3441613E+00
         11   -1    0    0    0    0  0.00000000000E+00  0.00000000000E+00  0.39999999674E+01  0.40000000000E+01  0.51100000000E-03 0.  1.
    9000002   -1    0    0    0    0 -0.00000000000E+00 -0.00000000000E+00  0.00000000000E+00  0.93800000000E+00  0.93800000000E+00 0.  1.
         11    1    1    2    0    0 -0.19158215598E+00  0.18270306088E+00  0.79689013688E+00  0.83971321433E+00  0.51100000000E-03 0.  1.
    9000002    1    1    2    0    0 -0.14248927849E+00 -0.13033493446E+00  0.84493795896E-01  0.96139148695E+00  0.93800000000E+00 0.  1.
         22    1    1    2    0    0  0.33407143447E+00 -0.52368126419E-01  0.31186160346E+01  0.31368952987E+01  0.00000000000E+00 0.  1.
</event>
<event>
 5    1  0.3269840E+002  0.1599581E+01  0.7818608E-02  0.3353818E+00
         11   -1    0    0    0    0  0.00000000000E+00  0.00000000000E+00  0.39999999674E+01  0.40000000000E+01  0.51100000000E-03 0. -1.
    9000002   -1    0    0    0    0 -0.00000000000E+00 -0.00000000000E+00  0.00000000000E+00  0.93800000000E+00  0.93800000000E+00 0. -1.
         11    1    1    2    0    0 -0.27364070301E+00  0.42273948862E+00  0.25324024489E+01  0.25819857346E+01  0.51100000000E-03 0. -1.
    9000002    1    1    2    0    0  0.40397687053E+00 -0.59574494563E+00  0.37241281313E+00  0.12396147206E+01  0.93800000000E+00 0. -1.
         22    1    1    2    0    0 -0.13033616751E+00  0.17300545702E+00  0.10951847054E+01  0.11163995448E+01  0.00000000000E+00 0. -1.
</event>
<event>
 5    1  0.3269840E+002  0.1599677E+01  0.7818608E-02  0.3353714E+00
         11   -1    0    0    0    0  0.00000000000E+00  0.00000000000E+00  0.39999999674E+01  0.40000000000E+01  0.51100000000E-03 0. -1.
    9000002   -1    0    0    0    0 -0.00000000000E+00 -0.00000000000E+00  0.00000000000E+00  0.93800000000E+00  0.93800000000E+00 0. -1.
         11    1    1    2    0    0  0.57903091405E-01 -0.17712950352E+00  0.17872595584E+01  0.17969486969E+01  0.51100000000E-03 0. -1.
    9000002    1    1    2    0    0 -0.12681689399E+00  0.38607686360E+00  0.11148089919E+00  0.10283043616E+01  0.93800000000E+00 0. -1.
         22    1    1    2    0    0  0.68913802580E-01 -0.20894736008E+00  0.21012595098E+01  0.21127469415E+01  0.00000000000E+00 0. -1.
</event>
<event>
 5    1  0.3269840E+002  0.1599676E+01  0.7818608E-02  0.3353716E+00
         11   -1    0    0    0    0  0.00000000000E+00  0.00000000000E+00  0.39999999674E+01  0.40000000000E+01  0.51100000000E-03 0.  1.
    9000002   -1    0    0    0    0 -0.00000000000E+00 -0.00000000000E+00  0.00000000000E+00  0.93800000000E+00  0.93800000000E+00 0.  1.
         11    1    1    2    0    0  0.14729244096E+00 -0.17687831257E-01  0.11681500107E+01  0.11775324332E+01  0.51100000000E-03 0.  1.
    9000002    1    1    2    0    0 -0.48611189957E+00  0.54534309365E-01  0.16350724415E+00  0.10704472844E+01  0.93800000000E+00 0.  1.
         22    1    1    2    0    0  0.33881945861E+00 -0.36846478108E-01  0.26683427125E+01  0.26900202824E+01  0.00000000000E+00 0.  1.
</event>
<event>
 5    1  0.3269840E+002  0.1592479E+01  0.7818608E-02  0.3361567E+00
         11   -1    0    0    0    0  0.00000000000E+00  0.00000000000E+00  0.39999999674E+01  0.40000000000E+01  0.51100000000E-03 0. -1.
    9000002   -1    0    0    0    0 -0.00000000000E+00 -0.00000000000E+00  0.00000000000E+00  0.93800000000E+00  0.93800000000E+00 0.  1.
         11    1    1    2    0    0 -0.28277959185E-01 -0.64971878605E-01  0.37199052457E+00  0.37867954721E+00  0.51100000000E-03 0. -1.
    9000002    1    1    2    0    0  0.33950521123E+00  0.53134531452E-01  0.84919519396E-01  0.10025678988E+01  0.93800000000E+00 0.  1.
         22    1    1    2    0    0 -0.31122725205E+00  0.11837347153E-01  0.35430899234E+01  0.35567525540E+01  0.00000000000E+00 0. -1.
</event>
<event>
 5    1  0.3269840E+002  0.1593149E+01  0.7818608E-02  0.3360833E+00
         11   -1    0    0    0    0  0.00000000000E+00  0.00000000000E+00  0.39999999674E+01  0.40000000000E+01  0.51100000000E-03 0.  1.
    9000002   -1    0    0    0    0 -0.00000000000E+00 -0.00000000000E+00  0.00000000000E+00  0.93800000000E+00  0.93800000000E+00 0. -1.
         11    1    1    2    0    0 -0.34913366071E+00 -0.11807811945E+00  0.16502916620E+01  0.16909463581E+01  0.51100000000E-03 0.  1.
    9000002    1    1    2    0    0  0.63110127564E+00  0.10777406923E+00  0.29540177780E+00  0.11734608133E+01  0.93800000000E+00 0. -1.
         22    1    1    2    0    0 -0.28196761493E+00  0.10304050217E-01  0.20543065276E+01  0.20735928286E+01  0.00000000000E+00 0.  1.
</event>
<event>
 5    1  0.3269840E+002  0.1599675E+01  0.7818608E-02  0.3353716E+00
         11   -1    0    0    0    0  0.00000000000E+00  0.00000000000E+00  0.39999999674E+01  0.40000000000E+01  0.51100000000E-03 0. -1.
    9000002   -1    0    0    0    0 -0.00000000000E+00 -0.00000000000E+00  0.00000000000E+00  0.93800000000E+00  0.93800000000E+00 0. -1.
         11    1    1    2    0    0  0.86060104035E-02 -0.90337083102E-02  0.20626757053E+00  0.20664521063E+00  0.51100000000E-03 0.  1.
    9000002    1    1    2    0    0 -0.16584896761E+00  0.16400093821E+00  0.36095356413E-01  0.96723785210E+00  0.93800000000E+00 0. -1.
         22    1    1    2    0    0  0.15724295720E+00 -0.15496722990E+00  0.37576370404E+01  0.37641169373E+01  0.00000000000E+00 0. -1.
</event>
<event>
 5    1  0.3269840E+002  0.1599670E+01  0.7818608E-02  0.3353722E+00
         11   -1    0    0    0    0  0.00000000000E+00  0.00000000000E+00  0.39999999674E+01  0.40000000000E+01  0.51100000000E-03 0.  1.
    9000002   -1    0    0    0    0 -0.00000000000E+00 -0.00000000000E+00  0.00000000000E+00  0.93800000000E+00  0.93800000000E+00 0.  1.
         11    1    1    2    0    0 -0.18872893503E+00  0.35116018321E-01  0.12544425213E+01  0.12690461166E+01  0.51100000000E-03 0. -1.
    9000002    1    1    2    0    0  0.56525524363E+00 -0.11452289934E+00  0.23096181597E+00  0.11250850392E+01  0.93800000000E+00 0.  1.
         22    1    1    2    0    0 -0.37652630861E+00  0.79406881015E-01  0.25145956301E+01  0.25438688442E+01  0.00000000000E+00 0.  1.
</event>
<event>
 5    1  0.3269840E+002  0.1598071E+01  0.7818608E-02  0.3355459E+00
         11   -1    0    0    0    0  0.00000000000E+00  0.00000000000E+00  0.39999999674E+01  0.40000000000E+01  0.51100000000E-03 0. -1.
    9000002   -1    0    0    0    0 -0.00000000000E+00 -0.00000000000E+00  0.00000000000E+00  0.93800000000E+00  0.93800000000E+00 0. -1.
         11    1    1    2    0    0 -0.95978463397E-02 -0.11483135169E-01  0.19945447498E+00  0.20001582377E+00  0.51100000000E-03 0. -1.
    9000002    1    1    2    0    0 -0.19212831424E+00  0.58669493370E-01  0.27921907178E-01  0.95967652440E+00  0.93800000000E+00 0. -1.
         22    1    1    2    0    0  0.20172616058E+00 -0.47186358201E-01  0.37726235852E+01  0.37783076518E+01  0.00000000000E+00 0. -1.
</event>
<event>
 5    1  0.3269840E+002  0.1599667E+01  0.7818608E-02  0.3353725E+00
         11   -1    0    0    0    0  0.00000000000E+00  0.00000000000E+00  0.39999999674E+01  0.40000000000E+01  0.51100000000E-03 0. -1.
    9000002   -1    0    0    0    0 -0.00000000000E+00 -0.00000000000E+00  0.00000000000E+00  0.93800000000E+00  0.93800000000E+00 0.  1.
         11    1    1    2    0    0 -0.12245664044E-01  0.75367929524E-02  0.21483111964E+00  0.21531240239E+00  0.51100000000E-03 0. -1.
    9000002    1    1    2    0    0  0.19533969552E+00 -0.13549890860E+00  0.37517337248E-01  0.96838478998E+00  0.93800000000E+00 0.  1.
         22    1    1    2    0    0 -0.18309403148E+00  0.12796211565E+00  0.37476515105E+01  0.37543028076E+01  0.00000000000E+00 0. -1.
</event>
<event>
 5    1  0.3269840E+002  0.1599584E+01  0.7818608E-02  0.3353815E+00
         11   -1    0    0    0    0  0.00000000000E+00  0.00000000000E+00  0.39999999674E+01  0.40000000000E+01  0.51100000000E-03 0. -1.
    9000002   -1    0    0    0    0 -0.00000000000E+00 -0.00000000000E+00  0.00000000000E+00  0.93800000000E+00  0.93800000000E+00 0. -1.
         11    1    1    2    0    0  0.66160307847E-02  0.45301323010E-01  0.62013079801E+00  0.62181866287E+00  0.51100000000E-03 0. -1.
    9000002    1    1    2    0    0 -0.64710192909E-01 -0.24026751176E+00  0.41197378900E-01  0.97131720375E+00  0.93800000000E+00 0. -1.
         22    1    1    2    0    0  0.58094162125E-01  0.19496618875E+00  0.33386717904E+01  0.33448641334E+01  0.00000000000E+00 0. -1.
</event>
<event>
 5    1  0.3269840E+002  0.1585757E+01  0.7818608E-02  0.3368969E+00
         11   -1    0    0    0    0  0.00000000000E+00  0.00000000000E+00  0.39999999674E+01  0.40000000000E+01  0.51100000000E-03 0.  1.
    9000002   -1    0    0    0    0 -0.00000000000E+00 -0.00000000000E+00  0.00000000000E+00  0.93800000000E+00  0.93800000000E+00 0.  1.
         11    1    1    2    0    0  0.17803134453E-01  0.89479090487E-01  0.44991859333E+00  0.45907565932E+00  0.51100000000E-03 0.  1.
    9000002    1    1    2    0    0 -0.32574923263E+00 -0.76047203688E-02  0.82139292687E-01  0.99637405513E+00  0.93800000000E+00 0.  1.
         22    1    1    2    0    0  0.30794609818E+00 -0.81874370119E-01  0.34679420813E+01  0.34825502856E+01  0.00000000000E+00 0.  1.
</event>
<event>
 5    1  0.3269840E+002  0.1599677E+01  0.7818608E-02  0.3353714E+00
         11   -1    0    0    0    0  0.00000000000E+00  0.00000000000E+00  0.39999999674E+01  0.40000000000E+01  0.51100000000E-03 0.  1.
    9000002   -1    0    0    0    0 -0.00000000000E+00 -0.00000000000E+00  0.00000000000E+00  0.93800000000E+00  0.93800000000E+00 0.  1.
         11    1    1    2    0    0  0.15054603837E-01 -0.10085503637E+00  0.10619436941E+01  0.10668285008E+01  0.51100000000E-03 0.  1.
    9000002    1    1    2    0    0 -0.57319123771E-01  0.37167055937E+00  0.95111315167E-01  0.10150441611E+01  0.93800000000E+00 0.  1.
         22    1    1    2    0    0  0.42264519934E-01 -0.27081552299E+00  0.28429449581E+01  0.28561273382E+01  0.00000000000E+00 0.  1.
</event>
<event>
 5    1  0.3269840E+002  0.1596975E+01  0.7818608E-02  0.3356653E+00
         11   -1    0    0    0    0  0.00000000000E+00  0.00000000000E+00  0.39999999674E+01  0.40000000000E+01  0.51100000000E-03 0.  1.
    9000002   -1    0    0    0    0 -0.00000000000E+00 -0.00000000000E+00  0.00000000000E+00  0.93800000000E+00  0.93800000000E+00 0. -1.
         11    1    1    2    0    0 -0.41804952237E-01  0.10035707844E+00  0.89550791792E+00  0.90208308343E+00  0.51100000000E-03 0.  1.
    9000002    1    1    2    0    0 -0.24162964675E-01 -0.33900922426E+00  0.79531501509E-01  0.10008398287E+01  0.93800000000E+00 0. -1.
         22    1    1    2    0    0  0.65967916913E-01  0.23865214581E+00  0.30249605479E+01  0.30350770879E+01  0.00000000000E+00 0.  1.
</event>
<event>
 5    1  0.3269840E+002  0.1599670E+01  0.7818608E-02  0.3353722E+00
         11   -1    0    0    0    0  0.00000000000E+00  0.00000000000E+00  0.39999999674E+01  0.40000000000E+01  0.51100000000E-03 0.  1.
    9000002   -1    0    0    0    0 -0.00000000000E+00 -0.00000000000E+00  0.00000000000E+00  0.93800000000E+00  0.93800000000E+00 0. -1.
         11    1    1    2    0    0  0.71791669822E-02  0.20579126383E-01  0.23102757683E+00  0.23205396626E+00  0.51100000000E-03 0.  1.
    9000002    1    1    2    0    0 -0.10742427163E+00 -0.32867243895E+00  0.80138824505E-01  0.10029116499E+01  0.93800000000E+00 0. -1.
         22    1    1    2    0    0  0.10024510464E+00  0.30809331256E+00  0.36888335660E+01  0.37030343839E+01  0.00000000000E+00 0.  1.
</event>
<event>
 5    1  0.3269840E+002  0.1542403E+01  0.7818608E-02  0.3418352E+00
         11   -1    0    0    0    0  0.00000000000E+00  0.00000000000E+00  0.39999999674E+01  0.40000000000E+01  0.51100000000E-03 0. -1.
    9000002   -1    0    0    0    0 -0.00000000000E+00 -0.00000000000E+00  0.00000000000E+00  0.93800000000E+00  0.93800000000E+00 0. -1.
         11    1    1    2    0    0  0.20490437192E+00 -0.22548400739E+00  0.14926159209E+01  0.15233946920E+01  0.51100000000E-03 0. -1.
    9000002    1    1    2    0    0  0.47686122487E-01  0.14941153562E+00  0.59857147587E-01  0.95290327493E+00  0.93800000000E+00 0. -1.
         22    1    1    2    0    0 -0.25259049441E+00  0.76072471778E-01  0.24475268989E+01  0.24617020331E+01  0.00000000000E+00 0. -1.
</event>
<event>
 5    1  0.3269840E+002  0.1597290E+01  0.7818608E-02  0.3356310E+00
         11   -1    0    0    0    0  0.00000000000E+00  0.00000000000E+00  0.39999999674E+01  0.40000000000E+01  0.51100000000E-03 0. -1.
    9000002   -1    0    0    0    0 -0.00000000000E+00 -0.00000000000E+00  0.00000000000E+00  0.93800000000E+00  0.93800000000E+00 0.  1.
         11    1    1    2    0    0 -0.23000122081E-01 -0.95494022913E-01  0.27361090404E+00  0.29070827639E+00  0.51100000000E-03 0. -1.
    9000002    1    1    2    0    0  0.56907619975E+00  0.86413807470E+00  0.88458509194E+00  0.16531536886E+01  0.93800000000E+00 0.  1.
         22    1    1    2    0    0 -0.54607607767E+00 -0.76864405179E+00  0.28418039714E+01  0.29941380350E+01  0.00000000000E+00 0. -1.
</event>
<event>
 5    1  0.3269840E+002  0.1593407E+01  0.7818608E-02  0.3360551E+00
         11   -1    0    0    0    0  0.00000000000E+00  0.00000000000E+00  0.39999999674E+01  0.40000000000E+01  0.51100000000E-03 0.  1.
    9000002   -1    0    0    0    0 -0.00000000000E+00 -0.00000000000E+00  0.00000000000E+00  0.93800000000E+00  0.93800000000E+00 0. -1.
         11    1    1    2    0    0 -0.23860351203E-01 -0.22403706166E-01  0.11913438313E+01  0.11917934502E+01  0.51100000000E-03 0.  1.
    9000002    1    1    2    0    0 -0.15434560046E+00 -0.98829752200E-01  0.26902946264E-01  0.95611592018E+00  0.93800000000E+00 0. -1.
         22    1    1    2    0    0  0.17820595166E+00  0.12123345837E+00  0.27817531898E+01  0.27900906296E+01  0.00000000000E+00 0.  1.
</event>
<event>
 5    1  0.3269840E+002  0.1599673E+01  0.7818608E-02  0.3353718E+00
         11   -1    0    0    0    0  0.00000000000E+00  0.00000000000E+00  0.39999999674E+01  0.40000000000E+01  0.51100000000E-03 0.  1.
    9000002   -1    0    0    0    0 -0.00000000000E+00 -0.00000000000E+00  0.00000000000E+00  0.93800000000E+00  0.93800000000E+00 0.  1.
         11    1    1    2    0    0 -0.25779272886E-01  0.42030805391E-01  0.70140404303E+00  0.70313515928E+00  0.51100000000E-03 0.  1.
    9000002    1    1    2    0    0  0.14818518910E+00 -0.22756946114E+00  0.49076666887E-01  0.97775213073E+00  0.93800000000E+00 0.  1.
         22    1    1    2    0    0 -0.12240591622E+00  0.18553865575E+00  0.32495192574E+01  0.32571127100E+01  0.00000000000E+00 0.  1.
</event>
<event>
 5    1  0.3269840E+002  0.1599180E+01  0.7818608E-02  0.3354254E+00
         11   -1    0    0    0    0  0.00000000000E+00  0.00000000000E+00  0.39999999674E+01  0.40000000000E+01  0.51100000000E-03 0.  1.
    9000002   -1    0    0    0    0 -0.00000000000E+00 -0.00000000000E+00  0.00000000000E+00  0.93800000000E+00  0.93800000000E+00 0. -1.
         11    1    1    2    0    0  0.69282258288E-01  0.23008182323E+00  0.20954469443E+01  0.21091789479E+01  0.51100000000E-03 0.  1.
    9000002    1    1    2    0    0 -0.13296574644E+00 -0.47014587169E+00  0.16354986668E+00  0.10701913797E+01  0.93800000000E+00 0. -1.
         22    1    1    2    0    0  0.63683488151E-01  0.24006404846E+00  0.17410031564E+01  0.17586296724E+01  0.00000000000E+00 0. -1.
</event>
<event>
 5    1  0.3269840E+002  0.1599030E+01  0.7818608E-02  0.3354417E+00
         11   -1    0    0    0    0  0.00000000000E+00  0.00000000000E+00  0.39999999674E+01  0.40000000000E+01  0.51100000000E-03 0. -1.
    9000002   -1    0    0    0    0 -0.00000000000E+00 -0.00000000000E+00  0.00000000000E+00  0.93800000000E+00  0.93800000000E+00 0. -1.
         11    1    1    2    0    0  0.36227095553E-01 -0.18108430391E-01  0.37434003434E+00  0.37652495287E+00  0.51100000000E-03 0. -1.
    9000002    1    1    2    0    0 -0.19722251310E+00  0.15238526010E+00  0.41756299522E-01  0.97144509661E+00  0.93800000000E+00 0. -1.
         22    1    1    2    0    0  0.16099541754E+00 -0.13427682971E+00  0.35839036335E+01  0.35900299505E+01  0.00000000000E+00 0. -1.
</event>
<event>
 5    1  0.3269840E+002  0.1599488E+01  0.7818608E-02  0.3353919E+00
         11   -1    0    0    0    0  0.00000000000E+00  0.00000000000E+00  0.39999999674E+01  0.40000000000E+01  0.51100000000E-03 0.  1.
    9000002   -1    0    0    0    0 -0.00000000000E+00 -0.00000000000E+00  0.00000000000E+00  0.93800000000E+00  0.93800000000E+00 0. -1.
         11    1    1    2    0    0 -0.28599143569E+00 -0.95601716171E-01  0.13382666075E+01  0.13718194354E+01  0.51100000000E-03 0.  1.
    9000002    1    1    2    0    0  0.73423602370E+00  0.22263975843E+00  0.42925061087E+00  0.12856014497E+01  0.93800000000E+00 0. -1.
         22    1    1    2    0    0 -0.44824458801E+00 -0.12703804226E+00  0.22324827490E+01  0.22805791149E+01  0.00000000000E+00 0.  1.
</event>
<event>
 5    1  0.3269840E+002  0.1599424E+01  0.7818608E-02  0.3353988E+00
         11   -1    0    0    0    0  0.00000000000E+00  0.00000000000E+00  0.39999999674E+01  0.40000000000E+01  0.51100000000E-03 0.  1.
    9000002   -1    0    0    0    0 -0.00000000000E+00 -0.00000000000E+00  0.00000000000E+00  0.93800000000E+00  0.93800000000E+00 0. -1.
         11    1    1    2    0    0  0.52306921918E-02  0.13630068221E-01  0.14915084780E+00  0.14986452356E+00  0.51100000000E-03 0.  1.
    9000002    1    1    2    0    0 -0.38558787040E-02 -0.22416461527E+00  0.33518924801E-01  0.96500371028E+00  0.93800000000E+00 0. -1.
         22    1    1    2    0    0 -0.13748134878E-02  0.21053454705E+00  0.38173301948E+01  0.38231317662E+01  0.00000000000E+00 0.  1.
</event>
<event>
 5    1  0.3269840E+002  0.1597269E+01  0.7818608E-02  0.3356333E+00
         11   -1    0    0    0    0  0.00000000000E+00  0.00000000000E+00  0.39999999674E+01  0.40000000000E+01  0.51100000000E-03 0. -1.
    9000002   -1    0    0    0    0 -0.00000000000E+00 -0.00000000000E+00  0.00000000000E+00  0.93800000000E+00  0.93800000000E+00 0.  1.
         11    1    1    2    0    0 -0.75746545997E-01  0.18481884578E-01  0.69062730691E+00  0.69501471744E+00  0.51100000000E-03 0. -1.
    9000002    1    1    2    0    0  0.26084393160E+00  0.84943157116E-01  0.51952433858E-01  0.97867152405E+00  0.93800000000E+00 0.  1.
         22    1    1    2    0    0 -0.18509738561E+00 -0.10342504169E+00  0.32574202266E+01  0.32643137585E+01  0.00000000000E+00 0. -1.
</event>
<event>
 5    1  0.3269840E+002  0.1599670E+01  0.7818608E-02  0.3353721E+00
         11   -1    0    0    0    0  0.00000000000E+00  0.00000000000E+00  0.39999999674E+01  0.40000000000E+01  0.51100000000E-03 0.  1.
    9000002   -1    0    0    0    0 -0.00000000000E+00 -0.00000000000E+00  0.00000000000E+00  0.93800000000E+00  0.93800000000E+00 0.  1.
         11    1    1    2    0    0  0.11917378904E+00  0.71353484659E-01  0.15582811540E+01  0.15644596920E+01  0.51100000000E-03 0.  1.
    9000002    1    1    2    0    0 -0.29276040846E+00 -0.18230879789E+00  0.79714582946E-01  0.10025684861E+01  0.93800000000E+00 0.  1.
         22    1    1    2    0    0  0.17358661943E+00  0.11095531323E+00  0.23620042304E+01  0.23709718219E+01  0.00000000000E+00 0.  1.
</event>
<event>
 5    1  0.3269840E+002  0.1594988E+01  0.7818608E-02  0.3358821E+00
         11   -1    0    0    0    0  0.00000000000E+00  0.00000000000E+00  0.39999999674E+01  0.40000000000E+01  0.51100000000E-03 0. -1.
    9000002   -1    0    0    0    0 -0.00000000000E+00 -0.00000000000E+00  0.00000000000E+00  0.93800000000E+00  0.93800000000E+00 0.  1.
         11    1    1    2    0    0  0.61794015061E-02  0.17485090694E-01  0.45856691754E+00  0.45894203597E+00  0.51100000000E-03 0. -1.
    9000002    1    1    2    0    0  0.19843462730E+00  0.22778295001E+00  0.64576404501E-01  0.98756037063E+00  0.93800000000E+00 0.  1.
         22    1    1    2    0    0 -0.20461402881E+00 -0.24526804070E+00  0.34768566453E+01  0.34914975934E+01  0.00000000000E+00 0. -1.
</event>
<event>
 5    1  0.3269840E+002  0.1576605E+01  0.7818608E-02  0.3379154E+00
         11   -1    0    0    0    0  0.00000000000E+00  0.00000000000E+00  0.39999999674E+01  0.40000000000E+01  0.51100000000E-03 0. -1.
    9000002   -1    0    0    0    0 -0.00000000000E+00 -0.00000000000E+00  0.00000000000E+00  0.93800000000E+00  0.93800000000E+00 0.  1.
         11    1    1    2    0    0 -0.82924624209E-01 -0.11681956057E+00  0.11613368842E+01  0.11701397022E+01  0.51100000000E-03 0. -1.
    9000002    1    1    2    0    0  0.15959154613E+00 -0.15574236188E+00  0.50612119520E-01  0.96546917689E+00  0.93800000000E+00 0.  1.
         22    1    1    2    0    0 -0.76666921921E-01  0.27256192245E+00  0.27880509637E+01  0.28023911209E+01  0.00000000000E+00 0. -1.
</event>
<event>
 5    1  0.3269840E+002  0.1599628E+01  0.7818608E-02  0.3353767E+00
         11   -1    0    0    0    0  0.00000000000E+00  0.00000000000E+00  0.39999999674E+01  0.40000000000E+01  0.51100000000E-03 0. -1.
    9000002   -1    0    0    0    0 -0.00000000000E+00 -0.00000000000E+00  0.00000000000E+00  0.93800000000E+00  0.93800000000E+00 0. -1.
         11    1    1    2    0    0 -0.41263607230E-01 -0.80835030241E-01  0.89909098822E+00  0.90366025342E+00  0.51100000000E-03 0. -1.
    9000002    1    1    2    0    0  0.20408367854E+00  0.33293128555E+00  0.10277658911E+00  0.10212249586E+01  0.93800000000E+00 0. -1.
         22    1    1    2    0    0 -0.16282007131E+00 -0.25209625531E+00  0.29981323900E+01  0.30131147880E+01  0.00000000000E+00 0. -1.
</event>
<event>
 5    1  0.3269840E+002  0.1599672E+01  0.7818608E-02  0.3353720E+00
         11   -1    0    0    0    0  0.00000000000E+00  0.00000000000E+00  0.39999999674E+01  0.40000000000E+01  0.51100000000E-03 0. -1.
    9000002   -1    0    0    0    0 -0.00000000000E+00 -0.00000000000E+00  0.00000000000E+00  0.93800000000E+00  0.93800000000E+00 0.  1.
         11    1    1    2    0    0  0.29774239409E+00  0.43690789931E+00  0.24117906852E+01  0.24690633074E+01  0.51100000000E-03 0. -1.
    9000002    1    1    2    0    0 -0.43823252643E+00 -0.64735088321E+00  0.44744384971E+00  0.13004464279E+01  0.93800000000E+00 0.  1.
         22    1    1    2    0    0  0.14049013233E+00  0.21044298390E+00  0.11407654324E+01  0.11684902647E+01  0.00000000000E+00 0.  1.
</event>
<event>
 5    1  0.3269840E+002  0.1591466E+01  0.7818608E-02  0.3362679E+00
         11   -1    0    0    0    0  0.00000000000E+00  0.00000000000E+00  0.39999999674E+01  0.40000000000E+01  0.51100000000E-03 0.  1.
    9000002   -1    0    0    0    0 -0.00000000000E+00 -0.00000000000E+00  0.00000000000E+00  0.93800000000E+00  0.93800000000E+00 0. -1.
         11    1    1    2    0    0 -0.85010864970E-01 -0.40809580117E-02  0.10571287760E+01  0.10605493914E+01  0.51100000000E-03 0.  1.
    9000002    1    1    2    0    0  0.10116178285E-01  0.20367259074E+00  0.33724095950E-01  0.96050308481E+00  0.93800000000E+00 0. -1.
         22    1    1    2    0    0  0.74894686686E-01 -0.19959163273E+00  0.29091470954E+01  0.29169475238E+01  0.00000000000E+00 0.  1.
</event>
<event>
 5    1  0.3269840E+002  0.1599355E+01  0.7818608E-02  0.3354064E+00
         11   -1    0    0    0    0  0.00000000000E+00  0.00000000000E+00  0.39999999674E+01  0.40000000000E+01  0.51100000000E-03 0. -1.
    9000002   -1    0    0    0    0 -0.00000000000E+00 -0.00000000000E+00  0.00000000000E+00  0.93800000000E+00  0.93800000000E+00 0. -1.
         11    1    1    2    0    0  0.12308207050E-01  0.44388371477E-02  0.31552444599E+00  0.31579602970E+00  0.51100000000E-03 0. -1.
    9000002    1    1    2    0    0 -0.15637984548E+00 -0.20233893833E+00  0.43707810364E-01  0.97321635556E+00  0.93800000000E+00 0. -1.
         22    1    1    2    0    0  0.14407163843E+00  0.19790010118E+00  0.36407677110E+01  0.36489876147E+01  0.00000000000E+00 0. -1.
</event>
<event>
 5    1  0.3269840E+002  0.1599578E+01  0.7818608E-02  0.3353821E+00
         11   -1    0    0    0    0  0.00000000000E+00  0.00000000000E+00  0.39999999674E+01  0.40000000000E+01  0.51100000000E-03 0. -1.
    9000002   -1    0    0    0    0 -0.00000000000E+00 -0.00000000000E+00  0.00000000000E+00  0.93800000000E+00  0.93800000000E+00 0. -1.
         11    1    1    2    0    0 -0.83642191954E-01 -0.84141512312E-01  0.12050339284E+01  0.12108603718E+01  0.51100000000E-03 0. -1.
    9000002    1    1    2    0    0  0.25559963521E+00  0.24141976460E+00  0.82978963928E-01  0.10051587858E+01  0.93800000000E+00 0. -1.
         22    1    1    2    0    0 -0.17195744326E+00 -0.15727825229E+00  0.27119870751E+01  0.27219808424E+01  0.00000000000E+00 0. -1.
</event>
<event>
 5    1  0.3269840E+002  0.1599254E+01  0.7818608E-02  0.3354173E+00
         11   -1    0    0    0    0  0.00000000000E+00  0.00000000000E+00  0.39999999674E+01  0.40000000000E+01  0.51100000000E-03 0. -1.
    9000002   -1    0    0    0    0 -0.00000000000E+00 -0.00000000000E+00  0.00000000000E+00  0.93800000000E+00  0.93800000000E+00 0. -1.
         11    1    1    2    0    0  0.26476757661E+00 -0.96412951832E-01  0.17759728822E+01  0.17981872167E+01  0.51100000000E-03 0. -1.
    9000002    1    1    2    0    0 -0.57504699867E+00  0.25036459883E+00  0.27653207418E+00  0.11617553405E+01  0.93800000000E+00 0. -1.
         22    1    1    2    0    0  0.31027942205E+00 -0.15395164700E+00  0.19474950110E+01  0.19780574429E+01  0.00000000000E+00 0. -1.
</event>
<event>
 5    1  0.3269840E+002  0.1599677E+01  0.7818608E-02  0.3353714E+00
         11   -1    0    0    0    0  0.00000000000E+00  0.00000000000E+00  0.39999999674E+01  0.40000000000E+01  0.51100000000E-03 0.  1.
    9000002   -1    0    0    0    0 -0.00000000000E+00 -0.00000000000E+00  0.00000000000E+00  0.93800000000E+00  0.93800000000E+00 0. -1.
         11    1    1    2    0    0 -0.16334167473E+00  0.38167806545E+00  0.20561399058E+01  0.20976344347E+01  0.51100000000E-03 0.  1.
    9000002    1    1    2    0    0  0.28774608387E+00 -0.67194943451E+00  0.38517165344E+00  0.12500060216E+01  0.93800000000E+00 0. -1.
         22    1    1    2    0    0 -0.12440440915E+00  0.29027136906E+00  0.15586884081E+01  0.15903595437E+01  0.00000000000E+00 0.  1.
</event>
<event>
 5    1  0.3269840E+002  0.1598656E+01  0.7818608E-02  0.3354823E+00
         11   -1    0    0    0    0  0.00000000000E+00  0.00000000000E+00  0.39999999674E+01  0.40000000000E+01  0.51100000000E-03 0. -1.
    9000002   -1    0    0    0    0 -0.00000000000E+00 -0.00000000000E+00  0.00000000000E+00  0.93800000000E+00  0.93800000000E+00 0. -1.
         11    1    1    2    0    0 -0.46810429495E-01 -0.26689808103E-02  0.98765938247E+00  0.98877179200E+00  0.51100000000E-03 0. -1.
    9000002    1    1    2    0    0  0.20762627492E+00 -0.12126184686E+00  0.39154625048E-01  0.96911825398E+00  0.93800000000E+00 0. -1.
         22    1    1    2    0    0 -0.16081584542E+00  0.12393082767E+00  0.29731859598E+01  0.29801099540E+01  0.00000000000E+00 0. -1.
</event>
<event>
 5    1  0.3269840E+002  0.1599608E+01  0.7818608E-02  0.3353789E+00
         11   -1    0    0    0    0  0.00000000000E+00  0.00000000000E+00  0.39999999674E+01  0.40000000000E+01  0.51100000000E-03 0. -1.
    9000002   -1    0    0    0    0 -0.00000000000E+00 -0.00000000000E+00  0.00000000000E+00  0.93800000000E+00  0.93800000000E+00 0. -1.
         11    1    1    2    0    0  0.25268058957E-01 -0.57527652044E-01  0.57566335034E+00  0.57908242902E+00  0.51100000000E-03 0. -1.
    9000002    1    1    2    0    0 -0.12655566432E+00  0.40707064273E+00  0.12306453561E+00  0.10376472061E+01  0.93800000000E+00 0. -1.
         22    1    1    2    0    0  0.10128760537E+00 -0.34954299068E+00  0.33012720814E+01  0.33212703649E+01  0.00000000000E+00 0. -1.
</event>
<event>
 5    1  0.3269840E+002  0.1599600E+01  0.7818608E-02  0.3353797E+00
         11   -1    0    0    0    0  0.00000000000E+00  0.00000000000E+00  0.39999999674E+01  0.40000000000E+01  0.51100000000E-03 0. -1.
    9000002   -1    0    0    0    0 -0.00000000000E+00 -0.00000000000E+00  0.00000000000E+00  0.93800000000E+00  0.93800000000E+00 0. -1.
         11    1    1    2    0    0  0.21864720501E-02 -0.25440769142E+00  0.17812829192E+01  0.17993602067E+01  0.51100000000E-03 0. -1.
    9000002    1    1    2    0    0  0.11251024612E-01  0.52787937986E+00  0.19184501224E+00  0.10933580081E+01  0.93800000000E+00 0. -1.
         22    1    1    2    0    0 -0.13437496662E-01 -0.27347168844E+00  0.20268720359E+01  0.20452817852E+01  0.00000000000E+00 0. -1.
</event>
<event>
 5    1  0.3269840E+002  0.1599677E+01  0.7818608E-02  0.3353714E+00
         11   -1    0    0    0    0  0.00000000000E+00  0.00000000000E+00  0.39999999674E+01  0.40000000000E+01  0.51100000000E-03 0. -1.
    9000002   -1    0    0    0    0 -0.00000000000E+00 -0.00000000000E+00  0.00000000000E+00  0.93800000000E+00  0.93800000000E+00 0.  1.
         11    1    1    2    0    0 -0.19711404324E+00  0.13790582154E+00  0.20442438273E+01  0.20583500791E+01  0.51100000000E-03 0. -1.
    9000002    1    1    2    0    0  0.37211831137E+00 -0.26144879210E+00  0.14057390559E+00  0.10518709671E+01  0.93800000000E+00 0.  1.
         22    1    1    2    0    0 -0.17500426813E+00  0.12354297056E+00  0.18151822345E+01  0.18277789538E+01  0.00000000000E+00 0. -1.
</event>
<event>
 5    1  0.3269840E+002  0.1581094E+01  0.7818608E-02  0.3374143E+00
         11   -1    0    0    0    0  0.00000000000E+00  0.00000000000E+00  0.39999999674E+01  0.40000000000E+01  0.51100000000E-03 0. -1.
    9000002   -1    0    0    0    0 -0.00000000000E+00 -0.00000000000E+00  0.00000000000E+00  0.93800000000E+00  0.93800000000E+00 0. -1.
         11    1    1    2    0    0  0.10060085498E+00  0.26059495431E-02  0.14883573713E+01  0.14917557605E+01  0.51100000000E-03 0. -1.
    9000002    1    1    2    0    0  0.14163592787E+00 -0.11338327744E+00  0.35738502974E-01  0.95605321204E+00  0.93800000000E+00 0. -1.
         22    1    1    2    0    0 -0.24223678284E+00  0.11077732789E+00  0.24759040931E+01  0.24901910275E+01  0.00000000000E+00 0. -1.
</event>
<event>
 5    1  0.3269840E+002  0.1599583E+01  0.7818608E-02  0.3353816E+00
         11   -1    0    0    0    0  0.00000000000E+00  0.00000000000E+00  0.39999999674E+01  0.40000000000E+01  0.51100000000E-03 0. -1.
    9000002   -1    0    0    0    0 -0.00000000000E+00 -0.00000000000E+00  0.00000000000E+00  0.93800000000E+00  0.93800000000E+00 0. -1.
         11    1    1    2    0    0  0.10722372406E+00  0.41009821905E-01  0.12911899439E+01  0.12962833274E+01  0.51100000000E-03 0. -1.
    9000002    1    1    2    0    0 -0.34486420586E+00 -0.15023203765E+00  0.95240763354E-01  0.10150939802E+01  0.93800000000E+00 0. -1.
         22    1    1    2    0    0  0.23764048180E+00  0.10922221574E+00  0.26135692601E+01  0.26266226924E+01  0.00000000000E+00 0. -1.
</event>
<event>
 5    1  0.3269840E+002  0.1597990E+01  0.7818608E-02  0.3355548E+00
         11   -1    0    0    0    0  0.00000000000E+00  0.00000000000E+00  0.39999999674E+01  0.40000000000E+01  0.51100000000E-03 0.  1.
    9000002   -1    0    0    0    0 -0.00000000000E+00 -0.00000000000E+00  0.00000000000E+00  0.93800000000E+00  0.93800000000E+00 0. -1.
         11    1    1    2    0    0 -0.60605051228E-02 -0.41942535602E-02  0.30266971393E-01  0.31155612072E-01  0.51100000000E-03 0.  1.
    9000002    1    1    2    0    0 -0.24063582622E+00  0.92078648080E-01  0.45419427632E-01  0.97380234273E+00  0.93800000000E+00 0. -1.
         22    1    1    2    0    0  0.24669633135E+00 -0.87884394519E-01  0.39243135683E+01  0.39330420452E+01  0.00000000000E+00 0.  1.
</event>
<event>
 5    1  0.3269840E+002  0.1596459E+01  0.7818608E-02  0.3357216E+00
         11   -1    0    0    0    0  0.00000000000E+00  0.00000000000E+00  0.39999999674E+01  0.40000000000E+01  0.51100000000E-03 0.  1.
    9000002   -1    0    0    0    0 -0.00000000000E+00 -0.00000000000E+00  0.00000000000E+00  0.93800000000E+00  0.93800000000E+00 0. -1.
         11    1    1    2    0    0 -0.64854565486E-01 -0.20375796489E+00  0.12836806595E+01  0.13013684027E+01  0.51100000000E-03 0.  1.
    9000002    1    1    2    0    0  0.18303196681E+00  0.41767448356E+00  0.14416282736E+00  0.10528910655E+01  0.93800000000E+00 0. -1.
         22    1    1    2    0    0 -0.11817740133E+00 -0.21391651868E+00  0.25721564805E+01  0.25837405317E+01  0.00000000000E+00 0. -1.
</event>
<event>
 5    1  0.3269840E+002  0.1599667E+01  0.7818608E-02  0.3353725E+00
         11   -1    0    0    0    0  0.00000000000E+00  0.00000000000E+00  0.39999999674E+01  0.40000000000E+01  0.51100000000E-03 0. -1.
    9000002   -1    0    0    0    0 -0.00000000000E+00 -0.00000000000E+00  0.00000000000E+00  0.93800000000E+00  0.93800000000E+00 0. -1.
         11    1    1    2    0    0  0.50853420872E-01  0.23054838766E-01  0.73435106759E+00  0.73647087355E+00  0.51100000000E-03 0. -1.
    9000002    1    1    2    0    0 -0.26610922812E+00 -0.10943540032E+00  0.55176701546E-01  0.98268952194E+00  0.93800000000E+00 0. -1.
         22    1    1    2    0    0  0.21525580725E+00  0.86380561556E-01  0.32104721982E+01  0.32188396045E+01  0.00000000000E+00 0. -1.
</event>
<event>
 5    1  0.3269840E+002  0.1599676E+01  0.7818608E-02  0.3353715E+00
         11   -1    0    0    0    0  0.00000000000E+00  0.00000000000E+00  0.39999999674E+01  0.40000000000E+01  0.51100000000E-03 0.  1.
    9000002   -1    0    0    0    0 -0.00000000000E+00 -0.00000000000E+00  0.00000000000E+00  0.93800000000E+00  0.93800000000E+00 0.  1.
         11    1    1    2    0    0  0.70326165736E-01 -0.60020307463E-01  0.11559879875E+01  0.11596795658E+01  0.51100000000E-03 0.  1.
    9000002    1    1    2    0    0 -0.24252171226E+00  0.20492575591E+00  0.67366308032E-01  0.99256917432E+00  0.93800000000E+00 0.  1.
         22    1    1    2    0    0  0.17219554652E+00 -0.14490544844E+00  0.27766456718E+01  0.27857512599E+01  0.00000000000E+00 0.  1.
</event>
<event>
 5    1  0.3269840E+002  0.1587776E+01  0.7818608E-02  0.3366739E+00
         11   -1    0    0    0    0  0.00000000000E+00  0.00000000000E+00  0.39999999674E+01  0.40000000000E+01  0.51100000000E-03 0.  1.
    9000002   -1    0    0    0    0 -0.00000000000E+00 -0.00000000000E+00  0.00000000000E+00  0.93800000000E+00  0.93800000000E+00 0. -1.
         11    1    1    2    0    0 -0.14530137111E-01 -0.18197808684E-01  0.25506919350E+01  0.25507982856E+01  0.51100000000E-03 0.  1.
    9000002    1    1    2    0    0  0.10558817871E+00  0.20512645168E+00  0.44384019345E-01  0.96697449079E+00  0.93800000000E+00 0. -1.
         22    1    1    2    0    0 -0.91058041597E-01 -0.18692864299E+00  0.14049240130E+01  0.14202272236E+01  0.00000000000E+00 0. -1.
</event>
<event>
 5    1  0.3269840E+002  0.1597186E+01  0.7818608E-02  0.3356423E+00
         11   -1    0    0    0    0  0.00000000000E+00  0.00000000000E+00  0.39999999674E+01  0.40000000000E+01  0.51100000000E-03 0. -1.
    9000002   -1    0    0    0    0 -0.00000000000E+00 -0.00000000000E+00  0.00000000000E+00  0.93800000000E+00  0.93800000000E+00 0.  1.
         11    1    1    2    0    0  0.21594915640E+00  0.20886331361E+00  0.23365837205E+01  0.23558186827E+01  0.51100000000E-03 0. -1.
    9000002    1    1    2    0    0 -0.41266482709E+00 -0.40620160763E+00  0.23533757051E+00  0.11271733574E+01  0.93800000000E+00 0.  1.
         22    1    1    2    0    0  0.19671567070E+00  0.19733829401E+00  0.14280786764E+01  0.14550079599E+01  0.00000000000E+00 0. -1.
</event>
<event>
 5    1  0.3269840E+002  0.1599673E+01  0.7818608E-02  0.3353718E+00
         11   -1    0    0    0    0  0.00000000000E+00  0.00000000000E+00  0.39999999674E+01  0.40000000000E+01  0.51100000000E-03 0. -1.
    9000002   -1    0    0    0    0 -0.00000000000E+00 -0.00000000000E+00  0.00000000000E+00  0.93800000000E+00  0.93800000000E+00 0.  1.
         11    1    1    2    0    0  0.20687534757E-01 -0.58597880439E-01  0.58236770833E+00  0.58567405143E+00  0.51100000000E-03 0. -1.
    9000002    1    1    2    0    0 -0.12787353997E+00  0.38734464434E+00  0.11235014185E+00  0.10290063509E+01  0.93800000000E+00 0.  1.
         22    1    1    2    0    0  0.10718600521E+00 -0.32874676390E+00  0.33052821172E+01  0.33233195977E+01  0.00000000000E+00 0. -1.
</event>
<event>
 5    1  0.3269840E+002  0.1598864E+01  0.7818608E-02  0.3354598E+00
         11   -1    0    0    0    0  0.00000000000E+00  0.00000000000E+00  0.39999999674E+01  0.40000000000E+01  0.51100000000E-03 0. -1.
    9000002   -1    0    0    0    0 -0.00000000000E+00 -0.00000000000E+00  0.00000000000E+00  0.93800000000E+00  0.93800000000E+00 0.  1.
         11    1    1    2    0    0 -0.14375200337E-01  0.92431432609E-02  0.10095360096E+00  0.10239127282E+00  0.51100000000E-03 0. -1.
    9000002    1    1    2    0    0  0.41308760385E+00  0.41509270751E-01  0.11717921019E+00  0.10324433909E+01  0.93800000000E+00 0.  1.
         22    1    1    2    0    0 -0.39871240351E+00 -0.50752414012E-01  0.37818671562E+01  0.38031653363E+01  0.00000000000E+00 0. -1.
</event>
<event>
 5    1  0.3269840E+002  0.1599676E+01  0.7818608E-02  0.3353715E+00
         11   -1    0    0    0    0  0.00000000000E+00  0.00000000000E+00  0.39999999674E+01  0.40000000000E+01  0.51100000000E-03 0. -1.
    9000002   -1    0    0    0    0 -0.00000000000E+00 -0.00000000000E+00  0.00000000000E+00  0.93800000000E+00  0.93800000000E+00 0. -1.
         11    1    1    2    0    0  0.78694712508E-02  0.24809707841E-03  0.13048470767E+00  0.13072302853E+00  0.51100000000E-03 0.  1.
    9000002    1    1    2    0    0 -0.23826962146E+00 -0.52774025883E-02  0.37699947275E-01  0.96853784103E+00  0.93800000000E+00 0. -1.
         22    1    1    2    0    0  0.23040015021E+00  0.50293055099E-02  0.38318153124E+01  0.38387391304E+01  0.00000000000E+00 0. -1.
</event>
<event>
 5    1  0.3269840E+002  0.1599489E+01  0.7818608E-02  0.3353918E+00
         11   -1    0    0    0    0  0.00000000000E+00  0.00000000000E+00  0.39999999674E+01  0.40000000000E+01  0.51100000000E-03 0.  1.
    9000002   -1    0    0    0    0 -0.00000000000E+00 -0.00000000000E+00  0.00000000000E+00  0.93800000000E+00  0.93800000000E+00 0. -1.
         11    1    1    2    0    0 -0.18645258743E-01 -0.22988219612E-01  0.46260995514E+00  0.46355618390E+00  0.51100000000E-03 0.  1.
    9000002    1    1    2    0    0  0.78494790305E-01  0.23715127063E+00  0.41595994598E-01  0.97158447087E+00  0.93800000000E+00 0. -1.
         22    1    1    2    0    0 -0.59849531562E-01 -0.21416305102E+00  0.34957940176E+01  0.35028593452E+01  0.00000000000E+00 0.  1.
</event>
<event>
 5    1  0.3269840E+002  0.1599669E+01  0.7818608E-02  0.3353722E+00
         11   -1    0    0    0    0  0.00000000000E+00  0.00000000000E+00  0.39999999674E+01  0.40000000000E+01  0.51100000000E-03 0.  1.
    9000002   -1    0    0    0    0 -0.00000000000E+00 -0.00000000000E+00  0.00000000000E+00  0.93800000000E+00  0.93800000000E+00 0. -1.
         11    1    1    2    0    0 -0.93019101132E-01  0.98050588642E-02  0.11945733888E+01  0.11982297503E+01  0.51100000000E-03 0.  1.
    9000002    1    1    2    0    0  0.30205856466E+00 -0.41318151534E-01  0.62040172570E-01  0.98825075216E+00  0.93800000000E+00 0. -1.
         22    1    1    2    0    0 -0.20903946352E+00  0.31513092670E-01  0.27433864060E+01  0.27515194975E+01  0.00000000000E+00 0.  1.
</event>
<event>
 5    1  0.3269840E+002  0.1597766E+01  0.7818608E-02  0.3355792E+00
         11   -1    0    0    0    0  0.00000000000E+00  0.00000000000E+00  0.39999999674E+01  0.40000000000E+01  0.51100000000E-03 0.  1.
    9000002   -1    0    0    0    0 -0.00000000000E+00 -0.00000000000E+00  0.00000000000E+00  0.93800000000E+00  0.93800000000E+00 0. -1.
         11    1    1    2    0    0 -0.45773196580E-02 -0.94345450757E-02  0.70476696193E-01  0.71254391608E-01  0.51100000000E-03 0.  1.
    9000002    1    1    2    0    0 -0.17457842285E+00 -0.12125318330E+00  0.31373408542E-01  0.96229322504E+00  0.93800000000E+00 0. -1.
         22    1    1    2    0    0  0.17915574251E+00  0.13068772838E+00  0.38981498626E+01  0.39044523834E+01  0.00000000000E+00 0.  1.
</event>
<event>
 5    1  0.3269840E+002  0.1584632E+01  0.7818608E-02  0.3370214E+00
         11   -1    0    0    0    0  0.00000000000E+00  0.00000000000E+00  0.39999999674E+01  0.40000000000E+01  0.51100000000E-03 0. -1.
    9000002   -1    0    0    0    0 -0.00000000000E+00 -0.00000000000E+00  0.00000000000E+00  0.93800000000E+00  0.93800000000E+00 0.  1.
         11    1    1    2    0    0  0.10048500732E+00  0.19488764309E+00  0.13294084378E+01  0.13473698400E+01  0.51100000000E-03 0. -1.
    9000002    1    1    2    0    0  0.63375708350E-01 -0.72218298621E+00  0.39586705304E+00  0.12498477786E+01  0.93800000000E+00 0.  1.
         22    1    1    2    0    0 -0.16386071567E+00  0.52729534311E+00  0.22747244765E+01  0.23407823814E+01  0.00000000000E+00 0. -1.
</event>
<event>
 5    1  0.3269840E+002  0.1599584E+01  0.7818608E-02  0.3353815E+00
         11   -1    0    0    0    0  0.00000000000E+00  0.00000000000E+00  0.39999999674E+01  0.40000000000E+01  0.51100000000E-03 0. -1.
    9000002   -1    0    0    0    0 -0.00000000000E+00 -0.00000000000E+00  0.00000000000E+00  0.93800000000E+00  0.93800000000E+00 0. -1.
         11    1    1    2    0    0  0.75718928501E-01  0.69304646865E-02  0.10796811805E+01  0.10823553484E+01  0.51100000000E-03 0. -1.
    9000002    1    1    2    0    0 -0.30808982605E+00 -0.51611716083E-02  0.63461358429E-01  0.98935197105E+00  0.93800000000E+00 0. -1.
         22    1    1    2    0    0  0.23237089755E+00 -0.17692930782E-02  0.28568574284E+01  0.28662926805E+01  0.00000000000E+00 0. -1.
</event>
<event>
 5    1  0.3269840E+002  0.1597737E+01  0.7818608E-02  0.3355824E+00
         11   -1    0    0    0    0  0.00000000000E+00  0.00000000000E+00  0.39999999674E+01  0.40000000000E+01  0.51100000000E-03 0.  1.
    9000002   -1    0    0    0    0 -0.00000000000E+00 -0.00000000000E+00  0.00000000000E+00  0.93800000000E+00  0.93800000000E+00 0. -1.
         11    1    1    2    0    0  0.89413104024E-01  0.43954261639E-01  0.16771517749E+01  0.16801086327E+01  0.51100000000E-03 0.  1.
    9000002    1    1    2    0    0 -0.22908551323E+00 -0.22450522617E+00  0.70309551921E-01  0.99381597997E+00  0.93800000000E+00 0. -1.
         22    1    1    2    0    0  0.13967240920E+00  0.18055096454E+00  0.22525386405E+01  0.22640753874E+01  0.00000000000E+00 0.  1.
</event>
<event>
 5    1  0.3269840E+002  0.1599617E+01  0.7818608E-02  0.3353779E+00
         11   -1    0    0    0    0  0.00000000000E+00  0.00000000000E+00  0.39999999674E+01  0.40000000000E+01  0.51100000000E-03 0.  1.
    9000002   -1    0    0    0    0 -0.00000000000E+00 -0.00000000000E+00  0.00000000000E+00  0.93800000000E+00  0.93800000000E+00 0.  1.
         11    1    1    2    0    0  0.47444433321E-01 -0.11847365654E+00  0.10992090837E+01  0.11065929027E+01  0.51100000000E-03 0.  1.
    9000002    1    1    2    0    0 -0.17731061020E+00  0.44193722021E+00  0.15467342140E+00  0.10632569898E+01  0.93800000000E+00 0.  1.
         22    1    1    2    0    0  0.12986617688E+00 -0.32346356367E+00  0.27461174623E+01  0.27681501075E+01  0.00000000000E+00 0.  1.
</event>
<event>
 5    1  0.3269840E+002  0.1548829E+01  0.7818608E-02  0.3410846E+00
         11   -1    0    0    0    0  0.00000000000E+00  0.00000000000E+00  0.39999999674E+01  0.40000000000E+01  0.51100000000E-03 0.  1.
    9000002   -1    0    0    0    0 -0.00000000000E+00 -0.00000000000E+00  0.00000000000E+00  0.93800000000E+00  0.93800000000E+00 0.  1.
         11    1    1    2    0    0  0.16756964884E+00  0.87054038839E-01  0.21874394707E+01  0.21955750253E+01  0.51100000000E-03 0.  1.
    9000002    1    1    2    0    0  0.16132938127E+00 -0.75284938252E-02  0.55868760665E-01  0.95344069868E+00  0.93800000000E+00 0.  1.
         22    1    1    2    0    0 -0.32889903011E+00 -0.79525545014E-01  0.17566917360E+01  0.17889842760E+01  0.00000000000E+00 0.  1.
</event>
<event>
 5    1  0.3269840E+002  0.1599246E+01  0.7818608E-02  0.3354183E+00
         11   -1    0    0    0    0  0.00000000000E+00  0.00000000000E+00  0.39999999674E+01  0.40000000000E+01  0.51100000000E-03 0.  1.
    9000002   -1    0    0    0    0 -0.00000000000E+00 -0.00000000000E+00  0.00000000000E+00  0.93800000000E+00  0.93800000000E+00 0.  1.
         11    1    1    2    0    0 -0.37576043421E+00  0.11123877382E+00  0.88841306524E+00  0.97100360676E+00  0.51100000000E-03 0.  1.
    9000002    1    1    2    0    0  0.11030469891E+01 -0.33942023177E+00  0.12063957335E+01  0.19149813105E+01  0.93800000000E+00 0.  1.
         22    1    1    2    0    0 -0.72728655489E+00  0.22818145795E+00  0.19051911686E+01  0.20520150827E+01  0.00000000000E+00 0.  1.
</event>
<event>
 5    1  0.3269840E+002  0.1531291E+01  0.7818608E-02  0.3431489E+00
         11   -1    0    0    0    0  0.00000000000E+00  0.00000000000E+00  0.39999999674E+01  0.40000000000E+01  0.51100000000E-03 0. -1.
    9000002   -1    0    0    0    0 -0.00000000000E+00 -0.00000000000E+00  0.00000000000E+00  0.93800000000E+00  0.93800000000E+00 0.  1.
         11    1    1    2    0    0  0.67888562597E-01 -0.50900256997E-01  0.52664482163E-01  0.99867421597E-01  0.51100000000E-03 0. -1.
    9000002    1    1    2    0    0 -0.71490654395E-01 -0.25319278644E+00  0.10058187041E+00  0.97937644112E+00  0.93800000000E+00 0.  1.
         22    1    1    2    0    0  0.36020917983E-02  0.30409304343E+00  0.38467536148E+01  0.38587561373E+01  0.00000000000E+00 0. -1.
</event>
<event>
 5    1  0.3269840E+002  0.1599611E+01  0.7818608E-02  0.3353786E+00
         11   -1    0    0    0    0  0.00000000000E+00  0.00000000000E+00  0.39999999674E+01  0.40000000000E+01  0.51100000000E-03 0. -1.
    9000002   -1    0    0    0    0 -0.00000000000E+00 -0.00000000000E+00  0.00000000000E+00  0.93800000000E+00  0.93800000000E+00 0.  1.
         11    1    1    2    0    0  0.17304021869E-01  0.14162434896E-01  0.33246367286E+00  0.33321518367E+00  0.51100000000E-03 0. -1.
    9000002    1    1    2    0    0 -0.15420189116E+00 -0.20691467311E+00  0.44314804703E-01  0.97385815553E+00  0.93800000000E+00 0.  1.
         22    1    1    2    0    0  0.13689786929E+00  0.19275223822E+00  0.36232214898E+01  0.36309266608E+01  0.00000000000E+00 0. -1.
</event>
<event>
 5    1  0.3269840E+002  0.1595671E+01  0.7818608E-02  0.3358075E+00
         11   -1    0    0    0    0  0.00000000000E+00  0.00000000000E+00  0.39999999674E+01  0.40000000000E+01  0.51100000000E-03 0.  1.
    9000002   -1    0    0    0    0 -0.00000000000E+00 -0.00000000000E+00  0.00000000000E+00  0.93800000000E+00  0.93800000000E+00 0. -1.
         11    1    1    2    0    0 -0.32971106187E-01  0.44872996413E-01  0.10145047506E+01  0.10160319039E+01  0.51100000000E-03 0.  1.
    9000002    1    1    2    0    0  0.19721893198E+00  0.75241284803E-01  0.32537473525E-01  0.96200792370E+00  0.93800000000E+00 0. -1.
         22    1    1    2    0    0 -0.16424782579E+00 -0.12011428122E+00  0.29529577432E+01  0.29599601724E+01  0.00000000000E+00 0.  1.
</event>
<event>
 5    1  0.3269840E+002  0.1599330E+01  0.7818608E-02  0.3354091E+00
         11   -1    0    0    0    0  0.00000000000E+00  0.00000000000E+00  0.39999999674E+01  0.40000000000E+01  0.51100000000E-03 0. -1.
    9000002   -1    0    0    0    0 -0.00000000000E+00 -0.00000000000E+00  0.00000000000E+00  0.93800000000E+00  0.93800000000E+00 0. -1.
         11    1    1    2    0    0 -0.15066483230E+00  0.93864208043E-02  0.12283058245E+01  0.12375473552E+01  0.51100000000E-03 0. -1.
    9000002    1    1    2    0    0  0.45622412525E+00  0.33921253001E-01  0.14260742927E+00  0.10533147596E+01  0.93800000000E+00 0. -1.
         22    1    1    2    0    0 -0.30555929296E+00 -0.43307673805E-01  0.26290867136E+01  0.26471378853E+01  0.00000000000E+00 0. -1.
</event>
<event>
 5    1  0.3269840E+002  0.1599647E+01  0.7818608E-02  0.3353747E+00
         11   -1    0    0    0    0  0.00000000000E+00  0.00000000000E+00  0.39999999674E+01  0.40000000000E+01  0.51100000000E-03 0. -1.
    9000002   -1    0    0    0    0 -0.00000000000E+00 -0.00000000000E+00  0.00000000000E+00  0.93800000000E+00  0.93800000000E+00 0.  1.
         11    1    1    2    0    0  0.17785952967E+00  0.58970218048E-01  0.16944242614E+01  0.17047537469E+01  0.51100000000E-03 0. -1.
    9000002    1    1    2    0    0 -0.41232225356E+00 -0.14837683554E+00  0.13022322965E+00  0.10434689337E+01  0.93800000000E+00 0.  1.
         22    1    1    2    0    0  0.23446272389E+00  0.89406617495E-01  0.21753524763E+01  0.21897773194E+01  0.00000000000E+00 0. -1.
</event>
<event>
 5    1  0.3269840E+002  0.1598438E+01  0.7818608E-02  0.3355060E+00
         11   -1    0    0    0    0  0.00000000000E+00  0.00000000000E+00  0.39999999674E+01  0.40000000000E+01  0.51100000000E-03 0.  1.
    9000002   -1    0    0    0    0 -0.00000000000E+00 -0.00000000000E+00  0.00000000000E+00  0.93800000000E+00  0.93800000000E+00 0.  1.
         11    1    1    2    0    0  0.47068868623E-01 -0.12018619924E+00  0.54557617482E+00  0.56063698106E+00  0.51100000000E-03 0.  1.
    9000002    1    1    2    0    0 -0.11095670159E+00  0.75417707782E+00  0.42435775788E+00  0.12810222328E+01  0.93800000000E+00 0.  1.
         22    1    1    2    0    0  0.63887832967E-01 -0.63399087858E+00  0.30300660347E+01  0.30963407861E+01  0.00000000000E+00 0.  1.
</event>
<event>
 5    1  0.3269840E+002  0.1590546E+01  0.7818608E-02  0.3363688E+00
         11   -1    0    0    0    0  0.00000000000E+00  0.00000000000E+00  0.39999999674E+01  0.40000000000E+01  0.51100000000E-03 0.  1.
    9000002   -1    0    0    0    0 -0.00000000000E+00 -0.00000000000E+00  0.00000000000E+00  0.93800000000E+00  0.93800000000E+00 0. -1.
         11    1    1    2    0    0  0.72630584808E-01  0.74262061401E-01  0.15240588777E+01  0.15275947693E+01  0.51100000000E-03 0.  1.
    9000002    1    1    2    0    0  0.10179653057E+00 -0.20385867169E+00  0.41380759189E-01  0.96616626876E+00  0.93800000000E+00 0. -1.
         22    1    1    2    0    0 -0.17442711538E+00  0.12959661029E+00  0.24345603305E+01  0.24442389619E+01  0.00000000000E+00 0.  1.
</event>
<event>
 5    1  0.3269840E+002  0.1599665E+01  0.7818608E-02  0.3353727E+00
         11   -1    0    0    0    0  0.00000000000E+00  0.00000000000E+00  0.39999999674E+01  0.40000000000E+01  0.51100000000E-03 0. -1.
    9000002   -1    0    0    0    0 -0.00000000000E+00 -0.00000000000E+00  0.00000000000E+00  0.93800000000E+00  0.93800000000E+00 0.  1.
         11    1    1    2    0    0 -0.48621037497E-01 -0.51637723462E-01  0.74345276147E+00  0.74682844712E+00  0.51100000000E-03 0. -1.
    9000002    1    1    2    0    0  0.24152941583E+00  0.26316335594E+00  0.85629459764E-01  0.10073568459E+01  0.93800000000E+00 0.  1.
         22    1    1    2    0    0 -0.19290837833E+00 -0.21152563248E+00  0.31709177461E+01  0.31838147070E+01  0.00000000000E+00 0. -1.
</event>
<event>
 5    1  0.3269840E+002  0.1599636E+01  0.7818608E-02  0.3353758E+00
         11   -1    0    0    0    0  0.00000000000E+00  0.00000000000E+00  0.39999999674E+01  0.40000000000E+01  0.51100000000E-03 0. -1.
    9000002   -1    0    0    0    0 -0.00000000000E+00 -0.00000000000E+00  0.00000000000E+00  0.93800000000E+00  0.93800000000E+00 0.  1.
         11    1    1    2    0    0  0.79878716174E-01  0.13558757518E+00  0.11126538136E+01  0.11237274446E+01  0.51100000000E-03 0. -1.
    9000002    1    1    2    0    0 -0.29585671543E+00 -0.45785784226E+00  0.20510172954E+00  0.11041176202E+01  0.93800000000E+00 0.  1.
         22    1    1    2    0    0  0.21597799926E+00  0.32227026708E+00  0.26822444243E+01  0.27101549352E+01  0.00000000000E+00 0. -1.
</event>
<event>
 5    1  0.3269840E+002  0.1599676E+01  0.7818608E-02  0.3353716E+00
         11   -1    0    0    0    0  0.00000000000E+00  0.00000000000E+00  0.39999999674E+01  0.40000000000E+01  0.51100000000E-03 0. -1.
    9000002   -1    0    0    0    0 -0.00000000000E+00 -0.00000000000E+00  0.00000000000E+00  0.93800000000E+00  0.93800000000E+00 0.  1.
         11    1    1    2    0    0  0.21344762046E+00  0.29044900282E+00  0.20867903323E+01  0.21176908797E+01  0.51100000000E-03 0. -1.
    9000002    1    1    2    0    0 -0.37771892979E+00 -0.51520398955E+00  0.28722068728E+00  0.11706606955E+01  0.93800000000E+00 0.  1.
         22    1    1    2    0    0  0.16427130933E+00  0.22475498672E+00  0.16259889478E+01  0.16496484248E+01  0.00000000000E+00 0.  1.
</event>
<event>
 5    1  0.3269840E+002  0.1520147E+01  0.7818608E-02  0.3444871E+00
         11   -1    0    0    0    0  0.00000000000E+00  0.00000000000E+00  0.39999999674E+01  0.40000000000E+01  0.51100000000E-03 0.  1.
    9000002   -1    0    0    0    0 -0.00000000000E+00 -0.00000000000E+00  0.00000000000E+00  0.93800000000E+00  0.93800000000E+00 0. -1.
         11    1    1    2    0    0  0.29202687787E+00 -0.18776811376E-01  0.72349749953E+00  0.78043651823E+00  0.51100000000E-03 0.  1.
    9000002    1    1    2    0    0 -0.13689788275E+00  0.24749687782E+00  0.11777352825E+00  0.98676762148E+00  0.93800000000E+00 0. -1.
         22    1    1    2    0    0 -0.15512899511E+00 -0.22872006645E+00  0.31587289396E+01  0.31707958603E+01  0.00000000000E+00 0.  1.
</event>
<event>
 5    1  0.3269840E+002  0.1599543E+01  0.7818608E-02  0.3353860E+00
         11   -1    0    0    0    0  0.00000000000E+00  0.00000000000E+00  0.39999999674E+01  0.40000000000E+01  0.51100000000E-03 0.  1.
    9000002   -1    0    0    0    0 -0.00000000000E+00 -0.00000000000E+00  0.00000000000E+00  0.93800000000E+00  0.93800000000E+00 0. -1.
         11    1    1    2    0    0 -0.74650071137E-01  0.21961487510E+00  0.17372275129E+01  0.17526445787E+01  0.51100000000E-03 0.  1.
    9000002    1    1    2    0    0  0.15409355998E+00 -0.45666752285E+00  0.15866482540E+00  0.10664467068E+01  0.93800000000E+00 0. -1.
         22    1    1    2    0    0 -0.79443488844E-01  0.23705264776E+00  0.21041076291E+01  0.21189087145E+01  0.00000000000E+00 0.  1.
</event>
<event>
 5    1  0.3269840E+002  0.1599130E+01  0.7818608E-02  0.3354309E+00
         11   -1    0    0    0    0  0.00000000000E+00  0.00000000000E+00  0.39999999674E+01  0.40000000000E+01  0.51100000000E-03 0.  1.
    9000002   -1    0    0    0    0 -0.00000000000E+00 -0.00000000000E+00  0.00000000000E+00  0.93800000000E+00  0.93800000000E+00 0. -1.
         11    1    1    2    0    0  0.25500672065E-02  0.26528139784E-02  0.81393463642E-01  0.81478201437E-01  0.51100000000E-03 0.  1.
    9000002    1    1    2    0    0  0.10430081817E+00  0.18456666523E+00  0.30187763726E-01  0.96213243146E+00  0.93800000000E+00 0. -1.
         22    1    1    2    0    0 -0.10685088538E+00 -0.18721947921E+00  0.38884187400E+01  0.38943893671E+01  0.00000000000E+00 0.  1.
</event>
<event>
 5    1  0.3269840E+002  0.1598407E+01  0.7818608E-02  0.3355094E+00
         11   -1    0    0    0    0  0.00000000000E+00  0.00000000000E+00  0.39999999674E+01  0.40000000000E+01  0.51100000000E-03 0.  1.
    9000002   -1    0    0    0    0 -0.00000000000E+00 -0.00000000000E+00  0.00000000000E+00  0.93800000000E+00  0.93800000000E+00 0. -1.
         11    1    1    2    0    0 -0.32063643939E-01  0.69047583646E-01  0.56148841805E+00  0.56662611200E+00  0.51100000000E-03 0.  1.
    9000002    1    1    2    0    0  0.12175984155E-01 -0.47668554100E+00  0.15618763734E+00  0.10637743829E+01  0.93800000000E+00 0. -1.
         22    1    1    2    0    0  0.19887659783E-01  0.40763795735E+00  0.32823239120E+01  0.33075995051E+01  0.00000000000E+00 0.  1.
</event>
<event>
 5    1  0.3269840E+002  0.1599666E+01  0.7818608E-02  0.3353726E+00
         11   -1    0    0    0    0  0.00000000000E+00  0.00000000000E+00  0.39999999674E+01  0.40000000000E+01  0.51100000000E-03 0. -1.
    9000002   -1    0    0    0    0 -0.00000000000E+00 -0.00000000000E+00  0.00000000000E+00  0.93800000000E+00  0.93800000000E+00 0. -1.
         11    1    1    2    0    0 -0.19434970354E+00 -0.90484805825E-01  0.20005764860E+01  0.20120302793E+01  0.51100000000E-03 0. -1.
    9000002    1    1    2    0    0  0.38118981010E+00  0.16883384318E+00  0.11750918967E+00  0.10331809849E+01  0.93800000000E+00 0. -1.
         22    1    1    2    0    0 -0.18684010656E+00 -0.78349037358E-01  0.18819142917E+01  0.18927887358E+01  0.00000000000E+00 0. -1.
</event>
<event>
 5    1  0.3269840E+002  0.1458165E+01  0.7818608E-02  0.3523327E+00
         11   -1    0    0    0    0  0.00000000000E+00  0.00000000000E+00  0.39999999674E+01  0.40000000000E+01  0.51100000000E-03 0.  1.
    9000002   -1    0    0    0    0 -0.00000000000E+00 -0.00000000000E+00  0.00000000000E+00  0.93800000000E+00  0.93800000000E+00 0.  1.
         11    1    1    2    0    0 -0.11497732402E-01  0.20837501014E+00  0.18692895018E+00  0.28016965617E+00  0.51100000000E-03 0.  1.
    9000002    1    1    2    0    0  0.83137008899E-01  0.93046929754E-01  0.12236342687E+00  0.95414165700E+00  0.93800000000E+00 0.  1.
         22    1    1    2    0    0 -0.71639276497E-01 -0.30142193990E+00  0.36907075903E+01  0.37036886868E+01  0.00000000000E+00 0.  1.
</event>
<event>
 5    1  0.3269840E+002  0.1599650E+01  0.7818608E-02  0.3353743E+00
         11   -1    0    0    0    0  0.00000000000E+00  0.00000000000E+00  0.39999999674E+01  0.40000000000E+01  0.51100000000E-03 0. -1.
    9000002   -1    0    0    0    0 -0.00000000000E+00 -0.00000000000E+00  0.00000000000E+00  0.93800000000E+00  0.93800000000E+00 0.  1.
         11    1    1    2    0    0 -0.22618941830E-01  0.10078824395E-01  0.23873095474E+00  0.24001235198E+00  0.51100000000E-03 0. -1.
    9000002    1    1    2    0    0  0.41403582764E+00 -0.17038359204E+00  0.13612446503E+00  0.10482509742E+01  0.93800000000E+00 0.  1.
         22    1    1    2    0    0 -0.39141688581E+00  0.16030476765E+00  0.36251445476E+01  0.36497366738E+01  0.00000000000E+00 0. -1.
</event>
<event>
 5    1  0.3269840E+002  0.1599676E+01  0.7818608E-02  0.3353715E+00
         11   -1    0    0    0    0  0.00000000000E+00  0.00000000000E+00  0.39999999674E+01  0.40000000000E+01  0.51100000000E-03 0. -1.
    9000002   -1    0    0    0    0 -0.00000000000E+00 -0.00000000000E+00  0.00000000000E+00  0.93800000000E+00  0.93800000000E+00 0. -1.
         11    1    1    2    0    0  0.22552930498E-01  0.47886616324E-01  0.78009028296E+00  0.78188418157E+00  0.51100000000E-03 0. -1.
    9000002    1    1    2    0    0 -0.11361699894E+00 -0.24709987450E+00  0.49223041827E-01  0.97787221981E+00  0.93800000000E+00 0. -1.
         22    1    1    2    0    0  0.91064068442E-01  0.19921325818E+00  0.31706866426E+01  0.31782435986E+01  0.00000000000E+00 0. -1.
</event>
<event>
 5    1  0.3269840E+002  0.1595661E+01  0.7818608E-02  0.3358086E+00
         11   -1    0    0    0    0  0.00000000000E+00  0.00000000000E+00  0.39999999674E+01  0.40000000000E+01  0.51100000000E-03 0. -1.
    9000002   -1    0    0    0    0 -0.00000000000E+00 -0.00000000000E+00  0.00000000000E+00  0.93800000000E+00  0.93800000000E+00 0.  1.
         11    1    1    2    0    0  0.12626677423E+00 -0.83515999332E-01  0.17918560113E+01  0.17982398190E+01  0.51100000000E-03 0. -1.
    9000002    1    1    2    0    0 -0.36746282347E+00  0.31128196024E+00  0.16185536384E+00  0.10667551473E+01  0.93800000000E+00 0.  1.
         22    1    1    2    0    0  0.24119604924E+00 -0.22776596091E+00  0.20462885922E+01  0.20730050337E+01  0.00000000000E+00 0. -1.
</event>
<event>
 5    1  0.3269840E+002  0.1599472E+01  0.7818608E-02  0.3353937E+00
         11   -1    0    0    0    0  0.00000000000E+00  0.00000000000E+00  0.39999999674E+01  0.40000000000E+01  0.51100000000E-03 0.  1.
    9000002   -1    0    0    0    0 -0.00000000000E+00 -0.00000000000E+00  0.00000000000E+00  0.93800000000E+00  0.93800000000E+00 0. -1.
         11    1    1    2    0    0 -0.11759182801E+00 -0.43145737464E-01  0.77347037324E+00  0.78354710903E+00  0.51100000000E-03 0.  1.
    9000002    1    1    2    0    0  0.60812667364E+00  0.25492548904E+00  0.30773789151E+00  0.11871611795E+01  0.93800000000E+00 0. -1.
         22    1    1    2    0    0 -0.49053484563E+00 -0.21177975157E+00  0.29187917026E+01  0.29672917115E+01  0.00000000000E+00 0.  1.
</event>
<event>
 5    1  0.3269840E+002  0.1574208E+01  0.7818608E-02  0.3381842E+00
         11   -1    0    0    0    0  0.00000000000E+00  0.00000000000E+00  0.39999999674E+01  0.40000000000E+01  0.51100000000E-03 0.  1.
    9000002   -1    0    0    0    0 -0.00000000000E+00 -0.00000000000E+00  0.00000000000E+00  0.93800000000E+00  0.93800000000E+00 0. -1.
         11    1    1    2    0    0  0.55830246452E-01 -0.11948274701E-01  0.19305230682E+00  0.20131873231E+00  0.51100000000E-03 0.  1.
    9000002    1    1    2    0    0  0.25401788783E+00 -0.74454941998E+00  0.48694380423E+00  0.13175117436E+01  0.93800000000E+00 0. -1.
         22    1    1    2    0    0 -0.30984813428E+00  0.75649769468E+00  0.33200038563E+01  0.34191695241E+01  0.00000000000E+00 0.  1.
</event>
<event>
 5    1  0.3269840E+002  0.1593914E+01  0.7818608E-02  0.3359995E+00
         11   -1    0    0    0    0  0.00000000000E+00  0.00000000000E+00  0.39999999674E+01  0.40000000000E+01  0.51100000000E-03 0. -1.
    9000002   -1    0    0    0    0 -0.00000000000E+00 -0.00000000000E+00  0.00000000000E+00  0.93800000000E+00  0.93800000000E+00 0.  1.
         11    1    1    2    0    0  0.26931338304E-01 -0.41118046707E-01  0.11552666482E+01  0.11563119304E+01  0.51100000000E-03 0. -1.
    9000002    1    1    2    0    0  0.17527358018E+00  0.43106864381E-01  0.25846947350E-01  0.95555800156E+00  0.93800000000E+00 0.  1.
         22    1    1    2    0    0 -0.20220491849E+00 -0.19888176744E-02  0.28188863718E+01  0.28261300681E+01  0.00000000000E+00 0. -1.
</event>
<event>
 5    1  0.3269840E+002  0.1599549E+01  0.7818608E-02  0.3353853E+00
         11   -1    0    0    0    0  0.00000000000E+00  0.00000000000E+00  0.39999999674E+01  0.40000000000E+01  0.51100000000E-03 0.  1.
    9000002   -1    0    0    0    0 -0.00000000000E+00 -0.00000000000E+00  0.00000000000E+00  0.93800000000E+00  0.93800000000E+00 0.  1.
         11    1    1    2    0    0  0.39406445447E-01  0.37134087377E-01  0.83200759682E+00  0.83376777982E+00  0.51100000000E-03 0.  1.
    9000002    1    1    2    0    0 -0.23894883094E+00 -0.18176267975E+00  0.60231021325E-01  0.98671474677E+00  0.93800000000E+00 0.  1.
         22    1    1    2    0    0  0.19954238549E+00  0.14462859237E+00  0.31077613492E+01  0.31175174734E+01  0.00000000000E+00 0.  1.
</event>
<event>
 5    1  0.3269840E+002  0.1599665E+01  0.7818608E-02  0.3353727E+00
         11   -1    0    0    0    0  0.00000000000E+00  0.00000000000E+00  0.39999999674E+01  0.40000000000E+01  0.51100000000E-03 0. -1.
    9000002   -1    0    0    0    0 -0.00000000000E+00 -0.00000000000E+00  0.00000000000E+00  0.93800000000E+00  0.93800000000E+00 0. -1.
         11    1    1    2    0    0 -0.13726604577E-01  0.14096872812E-01  0.36606987072E+00  0.36659862638E+00  0.51100000000E-03 0. -1.
    9000002    1    1    2    0    0  0.16113864910E+00 -0.17504309349E+00  0.37577853855E-01  0.96843267392E+00  0.93800000000E+00 0. -1.
         22    1    1    2    0    0 -0.14741204453E+00  0.16094622068E+00  0.35963522428E+01  0.36029686997E+01  0.00000000000E+00 0. -1.
</event>
<event>
 5    1  0.3269840E+002  0.1580091E+01  0.7818608E-02  0.3375259E+00
         11   -1    0    0    0    0  0.00000000000E+00  0.00000000000E+00  0.39999999674E+01  0.40000000000E+01  0.51100000000E-03 0. -1.
    9000002   -1    0    0    0    0 -0.00000000000E+00 -0.00000000000E+00  0.00000000000E+00  0.93800000000E+00  0.93800000000E+00 0. -1.
         11    1    1    2    0    0 -0.12185544250E+00  0.18282912689E+00  0.23477145918E+01  0.23579735589E+01  0.51100000000E-03 0. -1.
    9000002    1    1    2    0    0 -0.47551620434E-01 -0.41146474289E+00  0.13258955122E+00  0.10339189428E+01  0.93800000000E+00 0. -1.
         22    1    1    2    0    0  0.16940706294E+00  0.22863561600E+00  0.15196958243E+01  0.15461074983E+01  0.00000000000E+00 0.  1.
</event>
<event>
 5    1  0.3269840E+002  0.1599654E+01  0.7818608E-02  0.3353739E+00
         11   -1    0    0    0    0  0.00000000000E+00  0.00000000000E+00  0.39999999674E+01  0.40000000000E+01  0.51100000000E-03 0.  1.
    9000002   -1    0    0    0    0 -0.00000000000E+00 -0.00000000000E+00  0.00000000000E+00  0.93800000000E+00  0.93800000000E+00 0. -1.
         11    1    1    2    0    0  0.11637354807E+00  0.10943588059E+00  0.13740741468E+01  0.13833289691E+01  0.51100000000E-03 0.  1.
    9000002    1    1    2    0    0 -0.31218266477E+00 -0.30773470897E+00  0.13031029093E+00  0.10435436930E+01  0.93800000000E+00 0. -1.
         22    1    1    2    0    0  0.19580911670E+00  0.19829882838E+00  0.24956155296E+01  0.25111273379E+01  0.00000000000E+00 0.  1.
</event>
<event>
 5    1  0.3269840E+002  0.1598567E+01  0.7818608E-02  0.3354921E+00
         11   -1    0    0    0    0  0.00000000000E+00  0.00000000000E+00  0.39999999674E+01  0.40000000000E+01  0.51100000000E-03 0. -1.
    9000002   -1    0    0    0    0 -0.00000000000E+00 -0.00000000000E+00  0.00000000000E+00  0.93800000000E+00  0.93800000000E+00 0. -1.
         11    1    1    2    0    0 -0.67912096771E-01 -0.16898951249E+00  0.22363283184E+01  0.22437321847E+01  0.51100000000E-03 0. -1.
    9000002    1    1    2    0    0  0.15084409597E+00  0.35602880991E+00  0.10159458152E+00  0.10196449940E+01  0.93800000000E+00 0. -1.
         22    1    1    2    0    0 -0.82931999200E-01 -0.18703929743E+00  0.16620770675E+01  0.16746228213E+01  0.00000000000E+00 0.  1.
</event>
<event>
 5    1  0.3269840E+002  0.1599337E+01  0.7818608E-02  0.3354084E+00
         11   -1    0    0    0    0  0.00000000000E+00  0.00000000000E+00  0.39999999674E+01  0.40000000000E+01  0.51100000000E-03 0.  1.
    9000002   -1    0    0    0    0 -0.00000000000E+00 -0.00000000000E+00  0.00000000000E+00  0.93800000000E+00  0.93800000000E+00 0. -1.
         11    1    1    2    0    0  0.29913806476E-01  0.16892486840E-01  0.38868036634E+00  0.39019595107E+00  0.51100000000E-03 0.  1.
    9000002    1    1    2    0    0 -0.30583820400E+00 -0.37019596739E-01  0.63629732759E-01  0.98934331779E+00  0.93800000000E+00 0. -1.
         22    1    1    2    0    0  0.27592439753E+00  0.20127109899E-01  0.35476898683E+01  0.35584607311E+01  0.00000000000E+00 0.  1.
</event>
<event>
 5    1  0.3269840E+002  0.1599673E+01  0.7818608E-02  0.3353718E+00
         11   -1    0    0    0    0  0.00000000000E+00  0.00000000000E+00  0.39999999674E+01  0.40000000000E+01  0.51100000000E-03 0. -1.
    9000002   -1    0    0    0    0 -0.00000000000E+00 -0.00000000000E+00  0.00000000000E+00  0.93800000000E+00  0.93800000000E+00 0.  1.
         11    1    1    2    0    0 -0.46664132099E-02  0.10950757692E-02  0.93910281627E-01  0.94033912603E-01  0.51100000000E-03 0. -1.
    9000002    1    1    2    0    0  0.21979024145E+00 -0.42651653821E-01  0.33238967067E-01  0.96492266153E+00  0.93800000000E+00 0.  1.
         22    1    1    2    0    0 -0.21512382824E+00  0.41556578052E-01  0.38728507187E+01  0.38790434259E+01  0.00000000000E+00 0. -1.
</event>
<event>
 5    1  0.3269840E+002  0.1599612E+01  0.7818608E-02  0.3353785E+00
         11   -1    0    0    0    0  0.00000000000E+00  0.00000000000E+00  0.39999999674E+01  0.40000000000E+01  0.51100000000E-03 0.  1.
    9000002   -1    0    0    0    0 -0.00000000000E+00 -0.00000000000E+00  0.00000000000E+00  0.93800000000E+00  0.93800000000E+00 0. -1.
         11    1    1    2    0    0  0.37443609671E+00 -0.13686503635E+00  0.17212910830E+01  0.17668553088E+01  0.51100000000E-03 0.  1.
    9000002    1    1    2    0    0 -0.74799321062E+00  0.27767181917E+00  0.46867619581E+00  0.13176102834E+01  0.93800000000E+00 0. -1.
         22    1    1    2    0    0  0.37355711392E+00 -0.14080678281E+00  0.18100326885E+01  0.18535344078E+01  0.00000000000E+00 0. -1.
</event>
<event>
 5    1  0.3269840E+002  0.1599675E+01  0.7818608E-02  0.3353716E+00
         11   -1    0    0    0    0  0.00000000000E+00  0.00000000000E+00  0.39999999674E+01  0.40000000000E+01  0.51100000000E-03 0.  1.
    9000002   -1    0    0    0    0 -0.00000000000E+00 -0.00000000000E+00  0.00000000000E+00  0.93800000000E+00  0.93800000000E+00 0. -1.
         11    1    1    2    0    0  0.29761381895E-01 -0.55374098926E-01  0.46794512404E+00  0.47214926763E+00  0.51100000000E-03 0.  1.
    9000002    1    1    2    0    0 -0.23773538326E+00  0.45784694854E+00  0.18268718203E+00  0.10859836772E+01  0.93800000000E+00 0. -1.
         22    1    1    2    0    0  0.20797400136E+00 -0.40247284962E+00  0.33493676613E+01  0.33798670551E+01  0.00000000000E+00 0.  1.
</event>
<event>
 5    1  0.3269840E+002  0.1560340E+01  0.7818608E-02  0.3397567E+00
         11   -1    0    0    0    0  0.00000000000E+00  0.00000000000E+00  0.39999999674E+01  0.40000000000E+01  0.51100000000E-03 0. -1.
    9000002   -1    0    0    0    0 -0.00000000000E+00 -0.00000000000E+00  0.00000000000E+00  0.93800000000E+00  0.93800000000E+00 0. -1.
         11    1    1    2    0    0 -0.50350505018E-02  0.91668794570E-01  0.31686870350E+01  0.31700167675E+01  0.51100000000E-03 0. -1.
    9000002    1    1    2    0    0  0.21556457547E+00 -0.21656807936E+00  0.93868531372E-01  0.99097180604E+00  0.93800000000E+00 0. -1.
         22    1    1    2    0    0 -0.21052952496E+00  0.12489928479E+00  0.73744440100E+00  0.77701142642E+00  0.00000000000E+00 0.  1.
</event>
<event>
 5    1  0.3269840E+002  0.1599676E+01  0.7818608E-02  0.3353715E+00
         11   -1    0    0    0    0  0.00000000000E+00  0.00000000000E+00  0.39999999674E+01  0.40000000000E+01  0.51100000000E-03 0. -1.
    9000002   -1    0    0    0    0 -0.00000000000E+00 -0.00000000000E+00  0.00000000000E+00  0.93800000000E+00  0.93800000000E+00 0. -1.
         11    1    1    2    0    0  0.78790712359E-01  0.13558252881E+00  0.14744941913E+01  0.14828094887E+01  0.51100000000E-03 0. -1.
    9000002    1    1    2    0    0 -0.20809274103E+00 -0.35959594146E+00  0.11666728746E+00  0.10325052474E+01  0.93800000000E+00 0. -1.
         22    1    1    2    0    0  0.12930202867E+00  0.22401341265E+00  0.24088384886E+01  0.24226852639E+01  0.00000000000E+00 0. -1.
</event>
<event>
 5    1  0.3269840E+002  0.1599663E+01  0.7818608E-02  0.3353729E+00
         11   -1    0    0    0    0  0.00000000000E+00  0.00000000000E+00  0.39999999674E+01  0.40000000000E+01  0.51100000000E-03 0.  1.
    9000002   -1    0    0    0    0 -0.00000000000E+00 -0.00000000000E+00  0.00000000000E+00  0.93800000000E+00  0.93800000000E+00 0.  1.
         11    1    1    2    0    0 -0.60929489965E-01 -0.21784629789E-01  0.44415168010E+00  0.44884067206E+00  0.51100000000E-03 0.  1.
    9000002    1    1    2    0    0  0.53943571411E+00  0.17343083482E+00  0.22249135378E+00  0.11182198114E+01  0.93800000000E+00 0.  1.
         22    1    1    2    0    0 -0.47850622415E+00 -0.15164620503E+00  0.33333569335E+01  0.33709395165E+01  0.00000000000E+00 0.  1.
</event>
<event>
 5    1  0.3269840E+002  0.1588198E+01  0.7818608E-02  0.3366274E+00
         11   -1    0    0    0    0  0.00000000000E+00  0.00000000000E+00  0.39999999674E+01  0.40000000000E+01  0.51100000000E-03 0. -1.
    9000002   -1    0    0    0    0 -0.00000000000E+00 -0.00000000000E+00  0.00000000000E+00  0.93800000000E+00  0.93800000000E+00 0.  1.
         11    1    1    2    0    0 -0.63656260564E-01 -0.45940852606E-01  0.46915138681E+00  0.47567422288E+00  0.51100000000E-03 0. -1.
    9000002    1    1    2    0    0 -0.13001903571E+00  0.16244170458E+00  0.37351830702E-01  0.96152556715E+00  0.93800000000E+00 0.  1.
         22    1    1    2    0    0  0.19367529627E+00 -0.11650085197E+00  0.34934967498E+01  0.35008002100E+01  0.00000000000E+00 0. -1.
</event>
<event>
 5    1  0.3269840E+002  0.1599282E+01  0.7818608E-02  0.3354143E+00
         11   -1    0    0    0    0  0.00000000000E+00  0.00000000000E+00  0.39999999674E+01  0.40000000000E+01  0.51100000000E-03 0.  1.
    9000002   -1    0    0    0    0 -0.00000000000E+00 -0.00000000000E+00  0.00000000000E+00  0.93800000000E+00  0.93800000000E+00 0. -1.
         11    1    1    2    0    0  0.30545421412E-01 -0.11491426788E+00  0.10567517796E+01  0.10634203762E+01  0.51100000000E-03 0.  1.
    9000002    1    1    2    0    0 -0.11053718401E+00  0.34633535928E+00  0.89075566666E-01  0.10099233172E+01  0.93800000000E+00 0. -1.
         22    1    1    2    0    0  0.79991762595E-01 -0.23142109140E+00  0.28541726211E+01  0.28646563065E+01  0.00000000000E+00 0. -1.
</event>
<event>
 5    1  0.3269840E+002  0.1599676E+01  0.7818608E-02  0.3353715E+00
         11   -1    0    0    0    0  0.00000000000E+00  0.00000000000E+00  0.39999999674E+01  0.40000000000E+01  0.51100000000E-03 0.  1.
    9000002   -1    0    0    0    0 -0.00000000000E+00 -0.00000000000E+00  0.00000000000E+00  0.93800000000E+00  0.93800000000E+00 0. -1.
         11    1    1    2    0    0  0.89513656066E-02  0.10909171625E+00  0.13181741587E+01  0.13227110430E+01  0.51100000000E-03 0.  1.
    9000002    1    1    2    0    0 -0.27435518142E-01 -0.32277750826E+00  0.70168883764E-01  0.99483953467E+00  0.93800000000E+00 0. -1.
         22    1    1    2    0    0  0.18484152535E-01  0.21368579202E+00  0.26116569249E+01  0.26204494223E+01  0.00000000000E+00 0. -1.
</event>
<event>
 5    1  0.3269840E+002  0.1599146E+01  0.7818608E-02  0.3354290E+00
         11   -1    0    0    0    0  0.00000000000E+00  0.00000000000E+00  0.39999999674E+01  0.40000000000E+01  0.51100000000E-03 0.  1.
    9000002   -1    0    0    0    0 -0.00000000000E+00 -0.00000000000E+00  0.00000000000E+00  0.93800000000E+00  0.93800000000E+00 0. -1.
         11    1    1    2    0    0 -0.50655707693E-01 -0.12632218651E+00  0.12990458984E+01  0.13061561174E+01  0.51100000000E-03 0.  1.
    9000002    1    1    2    0    0  0.92558785521E-01  0.33028288108E+00  0.79253572863E-01  0.10018877378E+01  0.93800000000E+00 0. -1.
         22    1    1    2    0    0 -0.41903077828E-01 -0.20396069457E+00  0.26217004960E+01  0.26299561449E+01  0.00000000000E+00 0.  1.
</event>
<event>
 5    1  0.3269840E+002  0.1507638E+01  0.7818608E-02  0.3460144E+00
         11   -1    0    0    0    0  0.00000000000E+00  0.00000000000E+00  0.39999999674E+01  0.40000000000E+01  0.51100000000E-03 0.  1.
    9000002   -1    0    0    0    0 -0.00000000000E+00 -0.00000000000E+00  0.00000000000E+00  0.93800000000E+00  0.93800000000E+00 0.  1.
         11    1    1    2    0    0 -0.21868170223E+00 -0.24168378552E+00  0.11943622957E+01  0.12380364670E+01  0.51100000000E-03 0.  1.
    9000002    1    1    2    0    0 -0.13936596150E+00  0.94344303109E-01  0.90396016337E-01  0.95725605693E+00  0.93800000000E+00 0.  1.
         22    1    1    2    0    0  0.35804766373E+00  0.14733948241E+00  0.27152416553E+01  0.27427074761E+01  0.00000000000E+00 0.  1.
</event>
<event>
 5    1  0.3269840E+002  0.1599288E+01  0.7818608E-02  0.3354136E+00
         11   -1    0    0    0    0  0.00000000000E+00  0.00000000000E+00  0.39999999674E+01  0.40000000000E+01  0.51100000000E-03 0.  1.
    9000002   -1    0    0    0    0 -0.00000000000E+00 -0.00000000000E+00  0.00000000000E+00  0.93800000000E+00  0.93800000000E+00 0. -1.
         11    1    1    2    0    0 -0.58286996014E-01  0.22870878894E-01  0.99973028513E+00  0.10016892508E+01  0.51100000000E-03 0.  1.
    9000002    1    1    2    0    0  0.29164223935E+00 -0.37138340358E-01  0.57932846316E-01  0.98470029287E+00  0.93800000000E+00 0. -1.
         22    1    1    2    0    0 -0.23335524333E+00  0.14267461465E-01  0.29423368359E+01  0.29516104564E+01  0.00000000000E+00 0.  1.
</event>
<event>
 5    1  0.3269840E+002  0.1574616E+01  0.7818608E-02  0.3381384E+00
         11   -1    0    0    0    0  0.00000000000E+00  0.00000000000E+00  0.39999999674E+01  0.40000000000E+01  0.51100000000E-03 0. -1.
    9000002   -1    0    0    0    0 -0.00000000000E+00 -0.00000000000E+00  0.00000000000E+00  0.93800000000E+00  0.93800000000E+00 0.  1.
         11    1    1    2    0    0  0.78478091880E-01  0.56855787164E-01  0.41405234991E+00  0.42524228509E+00  0.51100000000E-03 0. -1.
    9000002    1    1    2    0    0  0.21291811077E+00  0.24577925760E-01  0.49560668763E-01  0.96345132530E+00  0.93800000000E+00 0.  1.
         22    1    1    2    0    0 -0.29139620265E+00 -0.81433712924E-01  0.35363869487E+01  0.35493063896E+01  0.00000000000E+00 0. -1.
</event>
<event>
 5    1  0.3269840E+002  0.1569749E+01  0.7818608E-02  0.3386866E+00
         11   -1    0    0    0    0  0.00000000000E+00  0.00000000000E+00  0.39999999674E+01  0.40000000000E+01  0.51100000000E-03 0. -1.
    9000002   -1    0    0    0    0 -0.00000000000E+00 -0.00000000000E+00  0.00000000000E+00  0.93800000000E+00  0.93800000000E+00 0.  1.
         11    1    1    2    0    0  0.17719553778E+00  0.19277846493E+00  0.23660685181E+01  0.23805130305E+01  0.51100000000E-03 0. -1.
    9000002    1    1    2    0    0 -0.58691630969E+00 -0.30853733411E+00  0.34399174543E+00  0.11990998132E+01  0.93800000000E+00 0.  1.
         22    1    1    2    0    0  0.40972077190E+00  0.11575886918E+00  0.12899397039E+01  0.13583871563E+01  0.00000000000E+00 0. -1.
</event>
<event>
 5    1  0.3269840E+002  0.1599676E+01  0.7818608E-02  0.3353715E+00
         11   -1    0    0    0    0  0.00000000000E+00  0.00000000000E+00  0.39999999674E+01  0.40000000000E+01  0.51100000000E-03 0. -1.
    9000002   -1    0    0    0    0 -0.00000000000E+00 -0.00000000000E+00  0.00000000000E+00  0.93800000000E+00  0.93800000000E+00 0. -1.
         11    1    1    2    0    0  0.14808664320E+00 -0.89089314072E-01  0.77129234397E+00  0.79041678927E+00  0.51100000000E-03 0. -1.
    9000002    1    1    2    0    0 -0.67530853976E+00  0.41082473501E+00  0.45878589184E+00  0.13096362401E+01  0.93800000000E+00 0. -1.
         22    1    1    2    0    0  0.52722189656E+00 -0.32173542094E+00  0.27699217316E+01  0.28379469707E+01  0.00000000000E+00 0. -1.
</event>
<event>
 5    1  0.3269840E+002  0.1598250E+01  0.7818608E-02  0.3355265E+00
         11   -1    0    0    0    0  0.00000000000E+00  0.00000000000E+00  0.39999999674E+01  0.40000000000E+01  0.51100000000E-03 0. -1.
    9000002   -1    0    0    0    0 -0.00000000000E+00 -0.00000000000E+00  0.00000000000E+00  0.93800000000E+00  0.93800000000E+00 0.  1.
         11    1    1    2    0    0  0.31152219730E-01 -0.23556577811E+00  0.16841071236E+01  0.17007876885E+01  0.51100000000E-03 0. -1.
    9000002    1    1    2    0    0  0.19270872285E-01  0.48709411294E+00  0.16360802675E+00  0.10696932400E+01  0.93800000000E+00 0.  1.
         22    1    1    2    0    0 -0.50423092015E-01 -0.25152833483E+00  0.21522848170E+01  0.21675190714E+01  0.00000000000E+00 0.  1.
</event>
<event>
 5    1  0.3269840E+002  0.1441976E+01  0.7818608E-02  0.3545025E+00
         11   -1    0    0    0    0  0.00000000000E+00  0.00000000000E+00  0.39999999674E+01  0.40000000000E+01  0.51100000000E-03 0.  1.
    9000002   -1    0    0    0    0 -0.00000000000E+00 -0.00000000000E+00  0.00000000000E+00  0.93800000000E+00  0.93800000000E+00 0.  1.
         11    1    1    2    0    0 -0.40352096663E+00  0.40312970414E+00  0.21911856269E+01  0.22642079060E+01  0.51100000000E-03 0.  1.
    9000002    1    1    2    0    0  0.76766028899E-01 -0.16821940986E+00  0.15108683531E+00  0.96791633153E+00  0.93800000000E+00 0.  1.
         22    1    1    2    0    0  0.32675493773E+00 -0.23491029428E+00  0.16577275051E+01  0.17058757624E+01  0.00000000000E+00 0.  1.
</event>
<event>
 5    1  0.3269840E+002  0.1599654E+01  0.7818608E-02  0.3353739E+00
         11   -1    0    0    0    0  0.00000000000E+00  0.00000000000E+00  0.39999999674E+01  0.40000000000E+01  0.51100000000E-03 0. -1.
    9000002   -1    0    0    0    0 -0.00000000000E+00 -0.00000000000E+00  0.00000000000E+00  0.93800000000E+00  0.93800000000E+00 0. -1.
         11    1    1    2    0    0  0.15302706089E-01  0.36889509900E-02  0.30222922039E+00  0.30263929677E+00  0.51100000000E-03 0. -1.
    9000002    1    1    2    0    0 -0.20507830325E+00 -0.88347756193E-01  0.33076963262E-01  0.96478003814E+00  0.93800000000E+00 0. -1.
         22    1    1    2    0    0  0.18977559716E+00  0.84658805203E-01  0.36646937837E+01  0.36705806651E+01  0.00000000000E+00 0. -1.
</event>
<event>
 5    1  0.3269840E+002  0.1599676E+01  0.7818608E-02  0.3353715E+00
         11   -1    0    0    0    0  0.00000000000E+00  0.00000000000E+00  0.39999999674E+01  0.40000000000E+01  0.51100000000E-03 0.  1.
    9000002   -1    0    0    0    0 -0.00000000000E+00 -0.00000000000E+00  0.00000000000E+00  0.93800000000E+00  0.93800000000E+00 0. -1.
         11    1    1    2    0    0 -0.42425361304E-01 -0.90826289926E-01  0.10858978915E+01  0.10905153911E+01  0.51100000000E-03 0.  1.
    9000002    1    1    2    0    0  0.15074060739E+00  0.32946535782E+00  0.88140505343E-01  0.10093972961E+01  0.93800000000E+00 0. -1.
         22    1    1    2    0    0 -0.10831524609E+00 -0.23863906790E+00  0.28259615705E+01  0.28380873128E+01  0.00000000000E+00 0.  1.
</event>
<event>
 5    1  0.3269840E+002  0.1595726E+01  0.7818608E-02  0.3358015E+00
         11   -1    0    0    0    0  0.00000000000E+00  0.00000000000E+00  0.39999999674E+01  0.40000000000E+01  0.51100000000E-03 0.  1.
    9000002   -1    0    0    0    0 -0.00000000000E+00 -0.00000000000E+00  0.00000000000E+00  0.93800000000E+00  0.93800000000E+00 0. -1.
         11    1    1    2    0    0 -0.18615271840E-01  0.97348005140E-01  0.11071156080E+01  0.11115432484E+01  0.51100000000E-03 0.  1.
    9000002    1    1    2    0    0 -0.16494226488E+00 -0.27508590460E+00  0.71902820038E-01  0.99392767402E+00  0.93800000000E+00 0. -1.
         22    1    1    2    0    0  0.18355753672E+00  0.17773789946E+00  0.28209815394E+01  0.28325290776E+01  0.00000000000E+00 0.  1.
</event>
<event>
 5    1  0.3269840E+002  0.1599657E+01  0.7818608E-02  0.3353736E+00
         11   -1    0    0    0    0  0.00000000000E+00  0.00000000000E+00  0.39999999674E+01  0.40000000000E+01  0.51100000000E-03 0. -1.
    9000002   -1    0    0    0    0 -0.00000000000E+00 -0.00000000000E+00  0.00000000000E+00  0.93800000000E+00  0.93800000000E+00 0.  1.
         11    1    1    2    0    0  0.15664480809E+00  0.32089315775E+00  0.18378226948E+01  0.18721919060E+01  0.51100000000E-03 0. -1.
    9000002    1    1    2    0    0 -0.29997401486E+00 -0.63715254649E+00  0.35487004223E+00  0.12254487031E+01  0.93800000000E+00 0.  1.
         22    1    1    2    0    0  0.14332920677E+00  0.31625938874E+00  0.18073072304E+01  0.18403593908E+01  0.00000000000E+00 0.  1.
</event>
<event>
 5    1  0.3269840E+002  0.1599676E+01  0.7818608E-02  0.3353715E+00
         11   -1    0    0    0    0  0.00000000000E+00  0.00000000000E+00  0.39999999674E+01  0.40000000000E+01  0.51100000000E-03 0.  1.
    9000002   -1    0    0    0    0 -0.00000000000E+00 -0.00000000000E+00  0.00000000000E+00  0.93800000000E+00  0.93800000000E+00 0.  1.
         11    1    1    2    0    0  0.18948679611E+00 -0.16002473264E+00  0.16306428544E+01  0.16493967202E+01  0.51100000000E-03 0.  1.
    9000002    1    1    2    0    0 -0.44023162910E+00  0.36993990067E+00  0.22950847483E+00  0.11239117213E+01  0.93800000000E+00 0.  1.
         22    1    1    2    0    0  0.25074483298E+00 -0.20991516803E+00  0.21398486381E+01  0.21646915584E+01  0.00000000000E+00 0.  1.
</event>
<event>
 5    1  0.3269840E+002  0.1599668E+01  0.7818608E-02  0.3353724E+00
         11   -1    0    0    0    0  0.00000000000E+00  0.00000000000E+00  0.39999999674E+01  0.40000000000E+01  0.51100000000E-03 0.  1.
    9000002   -1    0    0    0    0 -0.00000000000E+00 -0.00000000000E+00  0.00000000000E+00  0.93800000000E+00  0.93800000000E+00 0.  1.
         11    1    1    2    0    0  0.20489528526E-01  0.77031142472E-01  0.51813074948E+00  0.52422643234E+00  0.51100000000E-03 0.  1.
    9000002    1    1    2    0    0 -0.16528286424E+00 -0.55281943295E+00  0.23118304548E+00  0.11252632364E+01  0.93800000000E+00 0.  1.
         22    1    1    2    0    0  0.14479333571E+00  0.47578829047E+00  0.32506861724E+01  0.32885103313E+01  0.00000000000E+00 0.  1.
</event>
<event>
 5    1  0.3269840E+002  0.1585768E+01  0.7818608E-02  0.3368957E+00
         11   -1    0    0    0    0  0.00000000000E+00  0.00000000000E+00  0.39999999674E+01  0.40000000000E+01  0.51100000000E-03 0. -1.
    9000002   -1    0    0    0    0 -0.00000000000E+00 -0.00000000000E+00  0.00000000000E+00  0.93800000000E+00  0.93800000000E+00 0.  1.
         11    1    1    2    0    0  0.12543360001E+00 -0.46483603502E-01  0.17837471882E+01  0.17887561616E+01  0.51100000000E-03 0. -1.
    9000002    1    1    2    0    0 -0.18715777395E+00 -0.19625956030E+00  0.59748744603E-01  0.97824320076E+00  0.93800000000E+00 0.  1.
         22    1    1    2    0    0  0.61724173940E-01  0.24274316380E+00  0.21565040346E+01  0.21710006376E+01  0.00000000000E+00 0. -1.
</event>
<event>
 5    1  0.3269840E+002  0.1598879E+01  0.7818608E-02  0.3354581E+00
         11   -1    0    0    0    0  0.00000000000E+00  0.00000000000E+00  0.39999999674E+01  0.40000000000E+01  0.51100000000E-03 0.  1.
    9000002   -1    0    0    0    0 -0.00000000000E+00 -0.00000000000E+00  0.00000000000E+00  0.93800000000E+00  0.93800000000E+00 0. -1.
         11    1    1    2    0    0  0.18351391566E+00  0.25581993064E-01  0.20887288151E+01  0.20969311195E+01  0.51100000000E-03 0.  1.
    9000002    1    1    2    0    0 -0.37722826739E+00 -0.10072226297E+00  0.10336377295E+00  0.10212610878E+01  0.93800000000E+00 0. -1.
         22    1    1    2    0    0  0.19371435173E+00  0.75140269902E-01  0.18079073793E+01  0.18198077927E+01  0.00000000000E+00 0.  1.
</event>
<event>
 5    1  0.3269840E+002  0.1583144E+01  0.7818608E-02  0.3371864E+00
         11   -1    0    0    0    0  0.00000000000E+00  0.00000000000E+00  0.39999999674E+01  0.40000000000E+01  0.51100000000E-03 0. -1.
    9000002   -1    0    0    0    0 -0.00000000000E+00 -0.00000000000E+00  0.00000000000E+00  0.93800000000E+00  0.93800000000E+00 0. -1.
         11    1    1    2    0    0 -0.59846459714E-01 -0.60957861163E-01  0.28119283533E+00  0.29388285309E+00  0.51100000000E-03 0. -1.
    9000002    1    1    2    0    0  0.21551570253E+00 -0.83434130495E-01  0.48070670164E-01  0.96724508864E+00  0.93800000000E+00 0. -1.
         22    1    1    2    0    0 -0.15566924282E+00  0.14439199166E+00  0.36707364619E+01  0.36768720583E+01  0.00000000000E+00 0. -1.
</event>
<event>
 5    1  0.3269840E+002  0.1599677E+01  0.7818608E-02  0.3353714E+00
         11   -1    0    0    0    0  0.00000000000E+00  0.00000000000E+00  0.39999999674E+01  0.40000000000E+01  0.51100000000E-03 0. -1.
    9000002   -1    0    0    0    0 -0.00000000000E+00 -0.00000000000E+00  0.00000000000E+00  0.93800000000E+00  0.93800000000E+00 0. -1.
         11    1    1    2    0    0 -0.18841018754E+00  0.14295286812E-01  0.18185607387E+01  0.18283506708E+01  0.51100000000E-03 0. -1.
    9000002    1    1    2    0    0  0.40218402125E+00 -0.29958776601E-01  0.10975715112E+00  0.10269080521E+01  0.93800000000E+00 0. -1.
         22    1    1    2    0    0 -0.21377383371E+00  0.15663489789E-01  0.20716820776E+01  0.20827412771E+01  0.00000000000E+00 0. -1.
</event>
<event>
 5    1  0.3269840E+002  0.1582075E+01  0.7818608E-02  0.3373051E+00
         11   -1    0    0    0    0  0.00000000000E+00  0.00000000000E+00  0.39999999674E+01  0.40000000000E+01  0.51100000000E-03 0. -1.
    9000002   -1    0    0    0    0 -0.00000000000E+00 -0.00000000000E+00  0.00000000000E+00  0.93800000000E+00  0.93800000000E+00 0. -1.
         11    1    1    2    0    0  0.35739691959E-01 -0.84595786355E-01  0.12473508139E+01  0.12507270232E+01  0.51100000000E-03 0. -1.
    9000002    1    1    2    0    0  0.94684477230E-01 -0.15386169156E+00  0.34806075431E-01  0.95587343997E+00  0.93800000000E+00 0. -1.
         22    1    1    2    0    0 -0.13042416919E+00  0.23845747791E+00  0.27178430781E+01  0.27313995368E+01  0.00000000000E+00 0. -1.
</event>
<event>
 5    1  0.3269840E+002  0.1599670E+01  0.7818608E-02  0.3353722E+00
         11   -1    0    0    0    0  0.00000000000E+00  0.00000000000E+00  0.39999999674E+01  0.40000000000E+01  0.51100000000E-03 0.  1.
    9000002   -1    0    0    0    0 -0.00000000000E+00 -0.00000000000E+00  0.00000000000E+00  0.93800000000E+00  0.93800000000E+00 0. -1.
         11    1    1    2    0    0 -0.77955754930E-01  0.77569402871E-01  0.80266257167E+00  0.81016145123E+00  0.51100000000E-03 0.  1.
    9000002    1    1    2    0    0  0.35844658670E+00 -0.37200074384E+00  0.18321361727E+00  0.10864068016E+01  0.93800000000E+00 0. -1.
         22    1    1    2    0    0 -0.28049083177E+00  0.29443134097E+00  0.30141237784E+01  0.30414317472E+01  0.00000000000E+00 0.  1.
</event>
<event>
 5    1  0.3269840E+002  0.1594405E+01  0.7818608E-02  0.3359458E+00
         11   -1    0    0    0    0  0.00000000000E+00  0.00000000000E+00  0.39999999674E+01  0.40000000000E+01  0.51100000000E-03 0. -1.
    9000002   -1    0    0    0    0 -0.00000000000E+00 -0.00000000000E+00  0.00000000000E+00  0.93800000000E+00  0.93800000000E+00 0. -1.
         11    1    1    2    0    0  0.47069450511E-01 -0.65381363038E-01  0.82013619985E+00  0.82408367490E+00  0.51100000000E-03 0. -1.
    9000002    1    1    2    0    0 -0.26673074057E+00 -0.24167382790E-01  0.51788898114E-01  0.97685999013E+00  0.93800000000E+00 0. -1.
         22    1    1    2    0    0  0.21966129006E+00  0.89548745828E-01  0.31280748694E+01  0.31370563350E+01  0.00000000000E+00 0. -1.
</event>
<event>
 5    1  0.3269840E+002  0.1594043E+01  0.7818608E-02  0.3359854E+00
         11   -1    0    0    0    0  0.00000000000E+00  0.00000000000E+00  0.39999999674E+01  0.40000000000E+01  0.51100000000E-03 0. -1.
    9000002   -1    0    0    0    0 -0.00000000000E+00 -0.00000000000E+00  0.00000000000E+00  0.93800000000E+00  0.93800000000E+00 0. -1.
         11    1    1    2    0    0  0.14394479686E+00 -0.21212673985E+00  0.89137154052E+00  0.92750274537E+00  0.51100000000E-03 0. -1.
    9000002    1    1    2    0    0 -0.26305998443E+00  0.90892333237E+00  0.70971291977E+00  0.15095955114E+01  0.93800000000E+00 0. -1.
         22    1    1    2    0    0  0.11911518757E+00 -0.69679659252E+00  0.23989155071E+01  0.25009017432E+01  0.00000000000E+00 0. -1.
</event>
<event>
 5    1  0.3269840E+002  0.1560436E+01  0.7818608E-02  0.3397457E+00
         11   -1    0    0    0    0  0.00000000000E+00  0.00000000000E+00  0.39999999674E+01  0.40000000000E+01  0.51100000000E-03 0. -1.
    9000002   -1    0    0    0    0 -0.00000000000E+00 -0.00000000000E+00  0.00000000000E+00  0.93800000000E+00  0.93800000000E+00 0.  1.
         11    1    1    2    0    0 -0.12038295347E+00 -0.20035079780E+00  0.17371329169E+01  0.17527873601E+01  0.51100000000E-03 0. -1.
    9000002    1    1    2    0    0 -0.10324945532E+00  0.71793829901E-01  0.39798788575E-01  0.94722898372E+00  0.93800000000E+00 0.  1.
         22    1    1    2    0    0  0.22363240879E+00  0.12855696790E+00  0.22230682619E+01  0.22379836562E+01  0.00000000000E+00 0. -1.
</event>
<event>
 5    1  0.3269840E+002  0.1599212E+01  0.7818608E-02  0.3354220E+00
         11   -1    0    0    0    0  0.00000000000E+00  0.00000000000E+00  0.39999999674E+01  0.40000000000E+01  0.51100000000E-03 0. -1.
    9000002   -1    0    0    0    0 -0.00000000000E+00 -0.00000000000E+00  0.00000000000E+00  0.93800000000E+00  0.93800000000E+00 0. -1.
         11    1    1    2    0    0 -0.12553604780E+00  0.33122746295E-01  0.81444003113E+00  0.82472373620E+00  0.51100000000E-03 0. -1.
    9000002    1    1    2    0    0  0.49135361655E+00 -0.13119351842E+00  0.17773373447E+00  0.10816993095E+01  0.93800000000E+00 0. -1.
         22    1    1    2    0    0 -0.36581756875E+00  0.98070772130E-01  0.30078262018E+01  0.30315769543E+01  0.00000000000E+00 0. -1.
</event>
<event>
 5    1  0.3269840E+002  0.1599649E+01  0.7818608E-02  0.3353745E+00
         11   -1    0    0    0    0  0.00000000000E+00  0.00000000000E+00  0.39999999674E+01  0.40000000000E+01  0.51100000000E-03 0. -1.
    9000002   -1    0    0    0    0 -0.00000000000E+00 -0.00000000000E+00  0.00000000000E+00  0.93800000000E+00  0.93800000000E+00 0. -1.
         11    1    1    2    0    0 -0.10805572235E-01  0.12388493509E-01  0.24295599548E+00  0.24351203671E+00  0.51100000000E-03 0. -1.
    9000002    1    1    2    0    0  0.14483289660E+00 -0.16432029367E+00  0.31821747685E-01  0.96376052548E+00  0.93800000000E+00 0. -1.
         22    1    1    2    0    0 -0.13402732436E+00  0.15193180016E+00  0.37252222242E+01  0.37307274378E+01  0.00000000000E+00 0. -1.
</event>
<event>
 5    1  0.3269840E+002  0.1599673E+01  0.7818608E-02  0.3353718E+00
         11   -1    0    0    0    0  0.00000000000E+00  0.00000000000E+00  0.39999999674E+01  0.40000000000E+01  0.51100000000E-03 0. -1.
    9000002   -1    0    0    0    0 -0.00000000000E+00 -0.00000000000E+00  0.00000000000E+00  0.93800000000E+00  0.93800000000E+00 0.  1.
         11    1    1    2    0    0 -0.37823893667E+00  0.48428410107E+00  0.23044953451E+01  0.23850146415E+01  0.51100000000E-03 0. -1.
    9000002    1    1    2    0    0  0.55692641495E+00 -0.70786211224E+00  0.62112609883E+00  0.14411375480E+01  0.93800000000E+00 0.  1.
         22    1    1    2    0    0 -0.17868747828E+00  0.22357801116E+00  0.10743785235E+01  0.11118478105E+01  0.00000000000E+00 0. -1.
</event>
<event>
 5    1  0.3269840E+002  0.1599642E+01  0.7818608E-02  0.3353752E+00
         11   -1    0    0    0    0  0.00000000000E+00  0.00000000000E+00  0.39999999674E+01  0.40000000000E+01  0.51100000000E-03 0. -1.
    9000002   -1    0    0    0    0 -0.00000000000E+00 -0.00000000000E+00  0.00000000000E+00  0.93800000000E+00  0.93800000000E+00 0.  1.
         11    1    1    2    0    0 -0.14137434144E-01  0.13594577939E-01  0.18815205248E+00  0.18917223783E+00  0.51100000000E-03 0. -1.
    9000002    1    1    2    0    0  0.23171670011E+00 -0.27729190166E+00  0.87697472144E-01  0.10090184708E+01  0.93800000000E+00 0.  1.
         22    1    1    2    0    0 -0.21757926597E+00  0.26369732372E+00  0.37241504427E+01  0.37398092913E+01  0.00000000000E+00 0. -1.
</event>
<event>
 5    1  0.3269840E+002  0.1531963E+01  0.7818608E-02  0.3430689E+00
         11   -1    0    0    0    0  0.00000000000E+00  0.00000000000E+00  0.39999999674E+01  0.40000000000E+01  0.51100000000E-03 0. -1.
    9000002   -1    0    0    0    0 -0.00000000000E+00 -0.00000000000E+00  0.00000000000E+00  0.93800000000E+00  0.93800000000E+00 0.  1.
         11    1    1    2    0    0 -0.48627405338E-02  0.17264350176E+00  0.28962735514E+00  0.33721460661E+00  0.51100000000E-03 0. -1.
    9000002    1    1    2    0    0  0.17782406078E+00 -0.46551157346E-01  0.74632872907E-01  0.95875047461E+00  0.93800000000E+00 0.  1.
         22    1    1    2    0    0 -0.17296132024E+00 -0.12609234441E+00  0.36357397393E+01  0.36420349188E+01  0.00000000000E+00 0. -1.
</event>
<event>
 5    1  0.3269840E+002  0.1599672E+01  0.7818608E-02  0.3353720E+00
         11   -1    0    0    0    0  0.00000000000E+00  0.00000000000E+00  0.39999999674E+01  0.40000000000E+01  0.51100000000E-03 0.  1.
    9000002   -1    0    0    0    0 -0.00000000000E+00 -0.00000000000E+00  0.00000000000E+00  0.93800000000E+00  0.93800000000E+00 0.  1.
         11    1    1    2    0    0  0.30963244645E+00  0.41340615399E+00  0.25205333274E+01  0.25729099121E+01  0.51100000000E-03 0.  1.
    9000002    1    1    2    0    0 -0.43964273894E+00 -0.59105029830E+00  0.39181417922E+00  0.12553838234E+01  0.93800000000E+00 0.  1.
         22    1    1    2    0    0  0.13001029249E+00  0.17764414430E+00  0.10876524607E+01  0.11097062645E+01  0.00000000000E+00 0.  1.
</event>
<event>
 5    1  0.3269840E+002  0.1599674E+01  0.7818608E-02  0.3353718E+00
         11   -1    0    0    0    0  0.00000000000E+00  0.00000000000E+00  0.39999999674E+01  0.40000000000E+01  0.51100000000E-03 0.  1.
    9000002   -1    0    0    0    0 -0.00000000000E+00 -0.00000000000E+00  0.00000000000E+00  0.93800000000E+00  0.93800000000E+00 0. -1.
         11    1    1    2    0    0  0.56131774547E-01  0.45772591687E-01  0.67130236570E+00  0.67519851420E+00  0.51100000000E-03 0.  1.
    9000002    1    1    2    0    0 -0.31691311713E+00 -0.25971293851E+00  0.11338813947E+00  0.10298473695E+01  0.93800000000E+00 0. -1.
         22    1    1    2    0    0  0.26078134259E+00  0.21394034682E+00  0.32153094622E+01  0.32329541163E+01  0.00000000000E+00 0.  1.
</event>
<event>
 5    1  0.3269840E+002  0.1599522E+01  0.7818608E-02  0.3353882E+00
         11   -1    0    0    0    0  0.00000000000E+00  0.00000000000E+00  0.39999999674E+01  0.40000000000E+01  0.51100000000E-03 0.  1.
    9000002   -1    0    0    0    0 -0.00000000000E+00 -0.00000000000E+00  0.00000000000E+00  0.93800000000E+00  0.93800000000E+00 0.  1.
         11    1    1    2    0    0  0.49747166657E-01  0.22578384319E-01  0.69528685803E+00  0.69743002524E+00  0.51100000000E-03 0.  1.
    9000002    1    1    2    0    0 -0.21974396487E+00 -0.14345069138E+00  0.45910530713E-01  0.97509860413E+00  0.93800000000E+00 0.  1.
         22    1    1    2    0    0  0.16999679821E+00  0.12087230706E+00  0.32588025786E+01  0.32654713706E+01  0.00000000000E+00 0.  1.
</event>
<event>
 5    1  0.3269840E+002  0.1598631E+01  0.7818608E-02  0.3354850E+00
         11   -1    0    0    0    0  0.00000000000E+00  0.00000000000E+00  0.39999999674E+01  0.40000000000E+01  0.51100000000E-03 0. -1.
    9000002   -1    0    0    0    0 -0.00000000000E+00 -0.00000000000E+00  0.00000000000E+00  0.93800000000E+00  0.93800000000E+00 0. -1.
         11    1    1    2    0    0  0.48901515680E-01  0.10627445279E+00  0.14905258671E+01  0.14951097750E+01  0.51100000000E-03 0. -1.
    9000002    1    1    2    0    0 -0.22030682288E+00 -0.24075309406E+00  0.72058928481E-01  0.99575782080E+00  0.93800000000E+00 0. -1.
         22    1    1    2    0    0  0.17140530720E+00  0.13447864127E+00  0.24374151718E+01  0.24471324043E+01  0.00000000000E+00 0.  1.
</event>
<event>
 5    1  0.3269840E+002  0.1599612E+01  0.7818608E-02  0.3353785E+00
         11   -1    0    0    0    0  0.00000000000E+00  0.00000000000E+00  0.39999999674E+01  0.40000000000E+01  0.51100000000E-03 0. -1.
    9000002   -1    0    0    0    0 -0.00000000000E+00 -0.00000000000E+00  0.00000000000E+00  0.93800000000E+00  0.93800000000E+00 0.  1.
         11    1    1    2    0    0  0.46228690675E-01  0.13062020667E+00  0.12883295789E+01  0.12957592736E+01  0.51100000000E-03 0. -1.
    9000002    1    1    2    0    0 -0.11200841319E+00 -0.39176006275E+00  0.11214792952E+00  0.10288065851E+01  0.93800000000E+00 0.  1.
         22    1    1    2    0    0  0.65779722511E-01  0.26113985609E+00  0.25995224590E+01  0.26134341413E+01  0.00000000000E+00 0. -1.
</event>
<event>
 5    1  0.3269840E+002  0.1581689E+01  0.7818608E-02  0.3373481E+00
         11   -1    0    0    0    0  0.00000000000E+00  0.00000000000E+00  0.39999999674E+01  0.40000000000E+01  0.51100000000E-03 0.  1.
    9000002   -1    0    0    0    0 -0.00000000000E+00 -0.00000000000E+00  0.00000000000E+00  0.93800000000E+00  0.93800000000E+00 0. -1.
         11    1    1    2    0    0  0.11808404681E-02  0.87481559318E-01  0.45884569469E+00  0.46711245998E+00  0.51100000000E-03 0.  1.
    9000002    1    1    2    0    0 -0.13612142581E+00  0.12904756174E+00  0.36820544506E-01  0.95727846954E+00  0.93800000000E+00 0. -1.
         22    1    1    2    0    0  0.13494058534E+00 -0.21652912106E+00  0.35043337282E+01  0.35136090705E+01  0.00000000000E+00 0.  1.
</event>
<event>
 5    1  0.3269840E+002  0.1597110E+01  0.7818608E-02  0.3356506E+00
         11   -1    0    0    0    0  0.00000000000E+00  0.00000000000E+00  0.39999999674E+01  0.40000000000E+01  0.51100000000E-03 0.  1.
    9000002   -1    0    0    0    0 -0.00000000000E+00 -0.00000000000E+00  0.00000000000E+00  0.93800000000E+00  0.93800000000E+00 0. -1.
         11    1    1    2    0    0 -0.17241476406E-01 -0.17573726460E-01  0.19001769867E+00  0.19160660557E+00  0.51100000000E-03 0.  1.
    9000002    1    1    2    0    0 -0.13715951345E+00  0.14622230741E+00  0.28536011034E-01  0.95961033719E+00  0.93800000000E+00 0. -1.
         22    1    1    2    0    0  0.15440098986E+00 -0.12864858095E+00  0.37814462577E+01  0.37867830572E+01  0.00000000000E+00 0.  1.
</event>
<event>
 5    1  0.3269840E+002  0.1599677E+01  0.7818608E-02  0.3353714E+00
         11   -1    0    0    0    0  0.00000000000E+00  0.00000000000E+00  0.39999999674E+01  0.40000000000E+01  0.51100000000E-03 0. -1.
    9000002   -1    0    0    0    0 -0.00000000000E+00 -0.00000000000E+00  0.00000000000E+00  0.93800000000E+00  0.93800000000E+00 0. -1.
         11    1    1    2    0    0  0.42601898846E+00 -0.49012458578E+00  0.24567208585E+01  0.25411005344E+01  0.51100000000E-03 0. -1.
    9000002    1    1    2    0    0 -0.58776791568E+00  0.67595458561E+00  0.61304031352E+00  0.14345898893E+01  0.93800000000E+00 0. -1.
         22    1    1    2    0    0  0.16174892723E+00 -0.18582999984E+00  0.93023879535E+00  0.96230957631E+00  0.00000000000E+00 0. -1.
</event>
<event>
 5    1  0.3269840E+002  0.1559783E+01  0.7818608E-02  0.3398204E+00
         11   -1    0    0    0    0  0.00000000000E+00  0.00000000000E+00  0.39999999674E+01  0.40000000000E+01  0.51100000000E-03 0.  1.
    9000002   -1    0    0    0    0 -0.00000000000E+00 -0.00000000000E+00  0.00000000000E+00  0.93800000000E+00  0.93800000000E+00 0. -1.
         11    1    1    2    0    0  0.18465594651E-01 -0.84152289857E-01  0.10951024879E+00  0.13933894569E+00  0.51100000000E-03 0.  1.
    9000002    1    1    2    0    0  0.19066321470E+00  0.12315935709E+00  0.64997921642E-01  0.96725871332E+00  0.93800000000E+00 0. -1.
         22    1    1    2    0    0 -0.20912880935E+00 -0.39007067235E-01  0.38254917969E+01  0.38314023410E+01  0.00000000000E+00 0.  1.
</event>
<event>
 5    1  0.3269840E+002  0.1599676E+01  0.7818608E-02  0.3353715E+00
         11   -1    0    0    0    0  0.00000000000E+00  0.00000000000E+00  0.39999999674E+01  0.40000000000E+01  0.51100000000E-03 0. -1.
    9000002   -1    0    0    0    0 -0.00000000000E+00 -0.00000000000E+00  0.00000000000E+00  0.93800000000E+00  0.93800000000E+00 0. -1.
         11    1    1    2    0    0  0.26245733530E-01 -0.31584989107E-01  0.65168006562E+00  0.65297290841E+00  0.51100000000E-03 0. -1.
    9000002    1    1    2    0    0 -0.16378873118E+00  0.18903070430E+00  0.41558758659E-01  0.97166377212E+00  0.93800000000E+00 0. -1.
         22    1    1    2    0    0  0.13754299765E+00 -0.15744571519E+00  0.33067611431E+01  0.33133633195E+01  0.00000000000E+00 0. -1.
</event>
<event>
 5    1  0.3269840E+002  0.1599676E+01  0.7818608E-02  0.3353715E+00
         11   -1    0    0    0    0  0.00000000000E+00  0.00000000000E+00  0.39999999674E+01  0.40000000000E+01  0.51100000000E-03 0.  1.
    9000002   -1    0    0    0    0 -0.00000000000E+00 -0.00000000000E+00  0.00000000000E+00  0.93800000000E+00  0.93800000000E+00 0.  1.
         11    1    1    2    0    0  0.19042702776E+00 -0.20134493132E-01  0.15476574026E+01  0.15594587355E+01  0.51100000000E-03 0.  1.
    9000002    1    1    2    0    0 -0.47328457986E+00  0.46645910866E-01  0.15421574541E+00  0.10629208017E+01  0.93800000000E+00 0.  1.
         22    1    1    2    0    0  0.28285755210E+00 -0.26511417734E-01  0.22981268193E+01  0.23156204628E+01  0.00000000000E+00 0.  1.
</event>
<event>
 5    1  0.3269840E+002  0.1595299E+01  0.7818608E-02  0.3358482E+00
         11   -1    0    0    0    0  0.00000000000E+00  0.00000000000E+00  0.39999999674E+01  0.40000000000E+01  0.51100000000E-03 0.  1.
    9000002   -1    0    0    0    0 -0.00000000000E+00 -0.00000000000E+00  0.00000000000E+00  0.93800000000E+00  0.93800000000E+00 0. -1.
         11    1    1    2    0    0  0.15815688126E-01 -0.47672272096E-01  0.17064345173E+00  0.17788263057E+00  0.51100000000E-03 0.  1.
    9000002    1    1    2    0    0 -0.38623457237E+00  0.32142702222E+00  0.17688044694E+00  0.10787136636E+01  0.93800000000E+00 0. -1.
         22    1    1    2    0    0  0.37041888425E+00 -0.27375475013E+00  0.36524760687E+01  0.36814037058E+01  0.00000000000E+00 0.  1.
</event>
<event>
 5    1  0.3269840E+002  0.1599433E+01  0.7818608E-02  0.3353980E+00
         11   -1    0    0    0    0  0.00000000000E+00  0.00000000000E+00  0.39999999674E+01  0.40000000000E+01  0.51100000000E-03 0.  1.
    9000002   -1    0    0    0    0 -0.00000000000E+00 -0.00000000000E+00  0.00000000000E+00  0.93800000000E+00  0.93800000000E+00 0.  1.
         11    1    1    2    0    0  0.12912357954E-01 -0.36195613694E-01  0.40112095347E+00  0.40295797780E+00  0.51100000000E-03 0.  1.
    9000002    1    1    2    0    0 -0.35630368150E-01  0.29094744374E+00  0.57472693703E-01  0.98441203196E+00  0.93800000000E+00 0.  1.
         22    1    1    2    0    0  0.22718010197E-01 -0.25475183005E+00  0.35414063202E+01  0.35506299902E+01  0.00000000000E+00 0.  1.
</event>
<event>
 5    1  0.3269840E+002  0.1599654E+01  0.7818608E-02  0.3353739E+00
         11   -1    0    0    0    0  0.00000000000E+00  0.00000000000E+00  0.39999999674E+01  0.40000000000E+01  0.51100000000E-03 0.  1.
    9000002   -1    0    0    0    0 -0.00000000000E+00 -0.00000000000E+00  0.00000000000E+00  0.93800000000E+00  0.93800000000E+00 0. -1.
         11    1    1    2    0    0  0.35849242736E+00  0.83115171835E-01  0.23651648176E+01  0.23936227414E+01  0.51100000000E-03 0.  1.
    9000002    1    1    2    0    0 -0.56233441837E+00 -0.13467017568E+00  0.23224693558E+00  0.11261166429E+01  0.93800000000E+00 0. -1.
         22    1    1    2    0    0  0.20384199102E+00  0.51555003847E-01  0.14025882141E+01  0.14182606157E+01  0.00000000000E+00 0.  1.
</event>
<event>
 5    1  0.3269840E+002  0.1599677E+01  0.7818608E-02  0.3353714E+00
         11   -1    0    0    0    0  0.00000000000E+00  0.00000000000E+00  0.39999999674E+01  0.40000000000E+01  0.51100000000E-03 0. -1.
    9000002   -1    0    0    0    0 -0.00000000000E+00 -0.00000000000E+00  0.00000000000E+00  0.93800000000E+00  0.93800000000E+00 0.  1.
         11    1    1    2    0    0 -0.54946352777E-01 -0.40385444997E-01  0.81226476779E+00  0.81512232209E+00  0.51100000000E-03 0. -1.
    9000002    1    1    2    0    0  0.26420106223E+00  0.19500901762E+00  0.72135440557E-01  0.99643275740E+00  0.93800000000E+00 0.  1.
         22    1    1    2    0    0 -0.20925470946E+00 -0.15462357262E+00  0.31155997590E+01  0.31264449205E+01  0.00000000000E+00 0. -1.
</event>
<event>
 5    1  0.3269840E+002  0.1561680E+01  0.7818608E-02  0.3396035E+00
         11   -1    0    0    0    0  0.00000000000E+00  0.00000000000E+00  0.39999999674E+01  0.40000000000E+01  0.51100000000E-03 0.  1.
    9000002   -1    0    0    0    0 -0.00000000000E+00 -0.00000000000E+00  0.00000000000E+00  0.93800000000E+00  0.93800000000E+00 0. -1.
         11    1    1    2    0    0 -0.31429920732E+00 -0.13785107332E+00  0.92668094180E+00  0.98819266297E+00  0.51100000000E-03 0.  1.
    9000002    1    1    2    0    0  0.43478554050E+00  0.43161570084E+00  0.30196843620E+00  0.11603273314E+01  0.93800000000E+00 0. -1.
         22    1    1    2    0    0 -0.12048633318E+00 -0.29376462752E+00  0.27713505894E+01  0.27894800057E+01  0.00000000000E+00 0.  1.
</event>
<event>
 5    1  0.3269840E+002  0.1597968E+01  0.7818608E-02  0.3355571E+00
         11   -1    0    0    0    0  0.00000000000E+00  0.00000000000E+00  0.39999999674E+01  0.40000000000E+01  0.51100000000E-03 0. -1.
    9000002   -1    0    0    0    0 -0.00000000000E+00 -0.00000000000E+00  0.00000000000E+00  0.93800000000E+00  0.93800000000E+00 0. -1.
         11    1    1    2    0    0 -0.36960716985E+00  0.89680564607E-01  0.23806739495E+01  0.24108630775E+01  0.51100000000E-03 0. -1.
    9000002    1    1    2    0    0  0.56015307723E+00 -0.21338081199E+00  0.25235314093E+00  0.11414153269E+01  0.93800000000E+00 0. -1.
         22    1    1    2    0    0 -0.19054590738E+00  0.12370024738E+00  0.13669728769E+01  0.13857215955E+01  0.00000000000E+00 0. -1.
</event>
<event>
 5    1  0.3269840E+002  0.1599571E+01  0.7818608E-02  0.3353829E+00
         11   -1    0    0    0    0  0.00000000000E+00  0.00000000000E+00  0.39999999674E+01  0.40000000000E+01  0.51100000000E-03 0. -1.
    9000002   -1    0    0    0    0 -0.00000000000E+00 -0.00000000000E+00  0.00000000000E+00  0.93800000000E+00  0.93800000000E+00 0. -1.
         11    1    1    2    0    0  0.91096941294E-01  0.12912408607E+00  0.15263043724E+01  0.15344630920E+01  0.51100000000E-03 0. -1.
    9000002    1    1    2    0    0 -0.24497516579E+00 -0.35539647184E+00  0.12630185986E+00  0.10402478762E+01  0.93800000000E+00 0. -1.
         22    1    1    2    0    0  0.15387822449E+00  0.22627238577E+00  0.23473937351E+01  0.23632890319E+01  0.00000000000E+00 0.  1.
</event>
<event>
 5    1  0.3269840E+002  0.1599653E+01  0.7818608E-02  0.3353740E+00
         11   -1    0    0    0    0  0.00000000000E+00  0.00000000000E+00  0.39999999674E+01  0.40000000000E+01  0.51100000000E-03 0.  1.
    9000002   -1    0    0    0    0 -0.00000000000E+00 -0.00000000000E+00  0.00000000000E+00  0.93800000000E+00  0.93800000000E+00 0.  1.
         11    1    1    2    0    0 -0.37093773774E-01  0.63120381853E-01  0.10103850182E+01  0.10130341933E+01  0.51100000000E-03 0.  1.
    9000002    1    1    2    0    0  0.12516137239E+00 -0.24995453868E+00  0.52052888873E-01  0.98015108212E+00  0.93800000000E+00 0.  1.
         22    1    1    2    0    0 -0.88067598619E-01  0.18683415683E+00  0.29375620602E+01  0.29448147245E+01  0.00000000000E+00 0.  1.
</event>
<event>
 5    1  0.3269840E+002  0.1589844E+01  0.7818608E-02  0.3364461E+00
         11   -1    0    0    0    0  0.00000000000E+00  0.00000000000E+00  0.39999999674E+01  0.40000000000E+01  0.51100000000E-03 0. -1.
    9000002   -1    0    0    0    0 -0.00000000000E+00 -0.00000000000E+00  0.00000000000E+00  0.93800000000E+00  0.93800000000E+00 0.  1.
         11    1    1    2    0    0 -0.72678308511E-01 -0.17224581707E+00  0.96510513125E+00  0.98304574335E+00  0.51100000000E-03 0. -1.
    9000002    1    1    2    0    0  0.46859243137E-02  0.39147466640E+00  0.11145408639E+00  0.10225166921E+01  0.93800000000E+00 0.  1.
         22    1    1    2    0    0  0.67992384197E-01 -0.21922884933E+00  0.29234407497E+01  0.29324375645E+01  0.00000000000E+00 0. -1.
</event>
<event>
 5    1  0.3269840E+002  0.1599661E+01  0.7818608E-02  0.3353732E+00
         11   -1    0    0    0    0  0.00000000000E+00  0.00000000000E+00  0.39999999674E+01  0.40000000000E+01  0.51100000000E-03 0. -1.
    9000002   -1    0    0    0    0 -0.00000000000E+00 -0.00000000000E+00  0.00000000000E+00  0.93800000000E+00  0.93800000000E+00 0.  1.
         11    1    1    2    0    0  0.32944164334E+00  0.38190656085E-01  0.16714249351E+01  0.17040105333E+01  0.51100000000E-03 0. -1.
    9000002    1    1    2    0    0 -0.71182857864E+00 -0.92878458925E-01  0.37012032082E+00  0.12378042597E+01  0.93800000000E+00 0.  1.
         22    1    1    2    0    0  0.38238693530E+00  0.54687802840E-01  0.19584547114E+01  0.19961852070E+01  0.00000000000E+00 0. -1.
</event>
<event>
 5    1  0.3269840E+002  0.1599677E+01  0.7818608E-02  0.3353714E+00
         11   -1    0    0    0    0  0.00000000000E+00  0.00000000000E+00  0.39999999674E+01  0.40000000000E+01  0.51100000000E-03 0.  1.
    9000002   -1    0    0    0    0 -0.00000000000E+00 -0.00000000000E+00  0.00000000000E+00  0.93800000000E+00  0.93800000000E+00 0. -1.
         11    1    1    2    0    0  0.38746917505E+00 -0.18321827426E+00  0.24113049986E+01  0.24491005196E+01  0.51100000000E-03 0.  1.
    9000002    1    1    2    0    0 -0.59346168853E+00  0.28144321289E+00  0.30492414497E+00  0.11850020219E+01  0.93800000000E+00 0. -1.
         22    1    1    2    0    0  0.20599251348E+00 -0.98224938631E-01  0.12837708238E+01  0.13038974584E+01  0.00000000000E+00 0.  1.
</event>
<event>
 5    1  0.3269840E+002  0.1597694E+01  0.7818608E-02  0.3355870E+00
         11   -1    0    0    0    0  0.00000000000E+00  0.00000000000E+00  0.39999999674E+01  0.40000000000E+01  0.51100000000E-03 0. -1.
    9000002   -1    0    0    0    0 -0.00000000000E+00 -0.00000000000E+00  0.00000000000E+00  0.93800000000E+00  0.93800000000E+00 0.  1.
         11    1    1    2    0    0 -0.19729607846E+00  0.10134707241E+00  0.18707045788E+01  0.18838080725E+01  0.51100000000E-03 0. -1.
    9000002    1    1    2    0    0  0.42052432189E+00 -0.99592015106E-01  0.12820917348E+00  0.10406924939E+01  0.93800000000E+00 0.  1.
         22    1    1    2    0    0 -0.22322824343E+00 -0.17550573062E-02  0.20010862151E+01  0.20134994336E+01  0.00000000000E+00 0. -1.
</event>
<event>
 5    1  0.3269840E+002  0.1599675E+01  0.7818608E-02  0.3353716E+00
         11   -1    0    0    0    0  0.00000000000E+00  0.00000000000E+00  0.39999999674E+01  0.40000000000E+01  0.51100000000E-03 0. -1.
    9000002   -1    0    0    0    0 -0.00000000000E+00 -0.00000000000E+00  0.00000000000E+00  0.93800000000E+00  0.93800000000E+00 0.  1.
         11    1    1    2    0    0 -0.23096485481E-01 -0.28585080883E-01  0.44760122610E+00  0.44910764101E+00  0.51100000000E-03 0. -1.
    9000002    1    1    2    0    0  0.19587678681E+00  0.25644443484E+00  0.69621910512E-01  0.99439563263E+00  0.93800000000E+00 0.  1.
         22    1    1    2    0    0 -0.17278030133E+00 -0.22785935395E+00  0.34827768308E+01  0.34944967264E+01  0.00000000000E+00 0. -1.
</event>
<event>
 5    1  0.3269840E+002  0.1599474E+01  0.7818608E-02  0.3353934E+00
         11   -1    0    0    0    0  0.00000000000E+00  0.00000000000E+00  0.39999999674E+01  0.40000000000E+01  0.51100000000E-03 0. -1.
    9000002   -1    0    0    0    0 -0.00000000000E+00 -0.00000000000E+00  0.00000000000E+00  0.93800000000E+00  0.93800000000E+00 0. -1.
         11    1    1    2    0    0  0.21875595956E-01 -0.93457279386E-02  0.36516785011E+00  0.36594221430E+00  0.51100000000E-03 0. -1.
    9000002    1    1    2    0    0 -0.26148054603E+00  0.20428554107E+00  0.73844244899E-01  0.99769816615E+00  0.93800000000E+00 0. -1.
         22    1    1    2    0    0  0.23960495007E+00 -0.19493981313E+00  0.35609878724E+01  0.35743596196E+01  0.00000000000E+00 0. -1.
</event>
<event>
 5    1  0.3269840E+002  0.1599653E+01  0.7818608E-02  0.3353740E+00
         11   -1    0    0    0    0  0.00000000000E+00  0.00000000000E+00  0.39999999674E+01  0.40000000000E+01  0.51100000000E-03 0.  1.
    9000002   -1    0    0    0    0 -0.00000000000E+00 -0.00000000000E+00  0.00000000000E+00  0.93800000000E+00  0.93800000000E+00 0.  1.
         11    1    1    2    0    0  0.12938611612E+00  0.10379974209E+00  0.15094432020E+01  0.15185302746E+01  0.51100000000E-03 0.  1.
    9000002    1    1    2    0    0 -0.31817860937E+00 -0.26753959604E+00  0.11682769632E+00  0.10326217960E+01  0.93800000000E+00 0.  1.
         22    1    1    2    0    0  0.18879249324E+00  0.16373985395E+00  0.23737290690E+01  0.23868479294E+01  0.00000000000E+00 0.  1.
</event>
<event>
 5    1  0.3269840E+002  0.1599635E+01  0.7818608E-02  0.3353759E+00
         11   -1    0    0    0    0  0.00000000000E+00  0.00000000000E+00  0.39999999674E+01  0.40000000000E+01  0.51100000000E-03 0.  1.
    9000002   -1    0    0    0    0 -0.00000000000E+00 -0.00000000000E+00  0.00000000000E+00  0.93800000000E+00  0.93800000000E+00 0. -1.
         11    1    1    2    0    0  0.31634102470E-01  0.30182754681E-01  0.29455767416E+00  0.29778549267E+00  0.51100000000E-03 0.  1.
    9000002    1    1    2    0    0 -0.39349946543E+00 -0.33960560862E+00  0.18561800763E+00  0.10883344355E+01  0.93800000000E+00 0. -1.
         22    1    1    2    0    0  0.36186536296E+00  0.30942285394E+00  0.35198242856E+01  0.35518800718E+01  0.00000000000E+00 0.  1.
</event>
<event>
 5    1  0.3269840E+002  0.1594748E+01  0.7818608E-02  0.3359084E+00
         11   -1    0    0    0    0  0.00000000000E+00  0.00000000000E+00  0.39999999674E+01  0.40000000000E+01  0.51100000000E-03 0.  1.
    9000002   -1    0    0    0    0 -0.00000000000E+00 -0.00000000000E+00  0.00000000000E+00  0.93800000000E+00  0.93800000000E+00 0. -1.
         11    1    1    2    0    0  0.58321224269E-01 -0.22641087955E+00  0.13588408510E+01  0.13788081705E+01  0.51100000000E-03 0.  1.
    9000002    1    1    2    0    0 -0.12254786816E+00  0.41717626198E+00  0.13233998653E+00  0.10423108392E+01  0.93800000000E+00 0. -1.
         22    1    1    2    0    0  0.64226643894E-01 -0.19076538243E+00  0.25088191298E+01  0.25168809903E+01  0.00000000000E+00 0.  1.
</event>
<event>
 5    1  0.3269840E+002  0.1599674E+01  0.7818608E-02  0.3353718E+00
         11   -1    0    0    0    0  0.00000000000E+00  0.00000000000E+00  0.39999999674E+01  0.40000000000E+01  0.51100000000E-03 0. -1.
    9000002   -1    0    0    0    0 -0.00000000000E+00 -0.00000000000E+00  0.00000000000E+00  0.93800000000E+00  0.93800000000E+00 0. -1.
         11    1    1    2    0    0 -0.38155819599E-02  0.11217741513E-01  0.15940350377E+00  0.15984409443E+00  0.51100000000E-03 0. -1.
    9000002    1    1    2    0    0  0.10702238845E+00 -0.28972456178E+00  0.63694542208E-01  0.98959340541E+00  0.93800000000E+00 0. -1.
         22    1    1    2    0    0 -0.10320680649E+00  0.27850682026E+00  0.37769019214E+01  0.37885625002E+01  0.00000000000E+00 0. -1.
</event>
<event>
 5    1  0.3269840E+002  0.1599360E+01  0.7818608E-02  0.3354058E+00
         11   -1    0    0    0    0  0.00000000000E+00  0.00000000000E+00  0.39999999674E+01  0.40000000000E+01  0.51100000000E-03 0. -1.
    9000002   -1    0    0    0    0 -0.00000000000E+00 -0.00000000000E+00  0.00000000000E+00  0.93800000000E+00  0.93800000000E+00 0.  1.
         11    1    1    2    0    0 -0.40517357978E-02 -0.46879299882E-02  0.18432842193E+00  0.18443324402E+00  0.51100000000E-03 0. -1.
    9000002    1    1    2    0    0  0.26763558067E+00  0.31497496760E-01  0.48560607946E-01  0.97715046384E+00  0.93800000000E+00 0.  1.
         22    1    1    2    0    0 -0.26358384487E+00 -0.26809566772E-01  0.37671109375E+01  0.37764162921E+01  0.00000000000E+00 0. -1.
</event>
<event>
 5    1  0.3269840E+002  0.1595302E+01  0.7818608E-02  0.3358479E+00
         11   -1    0    0    0    0  0.00000000000E+00  0.00000000000E+00  0.39999999674E+01  0.40000000000E+01  0.51100000000E-03 0. -1.
    9000002   -1    0    0    0    0 -0.00000000000E+00 -0.00000000000E+00  0.00000000000E+00  0.93800000000E+00  0.93800000000E+00 0.  1.
         11    1    1    2    0    0 -0.18224229241E-01 -0.23229141602E+00  0.21065629238E+01  0.21194100683E+01  0.51100000000E-03 0. -1.
    9000002    1    1    2    0    0 -0.11205675943E+00  0.42615896418E+00  0.13545705544E+00  0.10451606546E+01  0.93800000000E+00 0.  1.
         22    1    1    2    0    0  0.13028098867E+00 -0.19386754816E+00  0.17579799882E+01  0.17734292771E+01  0.00000000000E+00 0.  1.
</event>
<event>
 5    1  0.3269840E+002  0.1599554E+01  0.7818608E-02  0.3353848E+00
         11   -1    0    0    0    0  0.00000000000E+00  0.00000000000E+00  0.39999999674E+01  0.40000000000E+01  0.51100000000E-03 0. -1.
    9000002   -1    0    0    0    0 -0.00000000000E+00 -0.00000000000E+00  0.00000000000E+00  0.93800000000E+00  0.93800000000E+00 0.  1.
         11    1    1    2    0    0 -0.34799081701E+00 -0.56410347703E-01  0.22930302740E+01  0.23199715159E+01  0.51100000000E-03 0. -1.
    9000002    1    1    2    0    0  0.55353810388E+00  0.10086050624E+00  0.21931194174E+00  0.11155801190E+01  0.93800000000E+00 0.  1.
         22    1    1    2    0    0 -0.20554728687E+00 -0.44450158536E-01  0.14876577516E+01  0.15024483651E+01  0.00000000000E+00 0. -1.
</event>
<event>
 5    1  0.3269840E+002  0.1599676E+01  0.7818608E-02  0.3353715E+00
         11   -1    0    0    0    0  0.00000000000E+00  0.00000000000E+00  0.39999999674E+01  0.40000000000E+01  0.51100000000E-03 0. -1.
    9000002   -1    0    0    0    0 -0.00000000000E+00 -0.00000000000E+00  0.00000000000E+00  0.93800000000E+00  0.93800000000E+00 0. -1.
         11    1    1    2    0    0  0.79680394492E-01 -0.24213274492E-01  0.96085922401E+00  0.96446148571E+00  0.51100000000E-03 0. -1.
    9000002    1    1    2    0    0 -0.32790278207E+00  0.97786094717E-01  0.78438458615E-01  0.10015382901E+01  0.93800000000E+00 0. -1.
         22    1    1    2    0    0  0.24822238758E+00 -0.73572820226E-01  0.29607022847E+01  0.29720002242E+01  0.00000000000E+00 0. -1.
</event>
<event>
 5    1  0.3269840E+002  0.1599674E+01  0.7818608E-02  0.3353718E+00
         11   -1    0    0    0    0  0.00000000000E+00  0.00000000000E+00  0.39999999674E+01  0.40000000000E+01  0.51100000000E-03 0.  1.
    9000002   -1    0    0    0    0 -0.00000000000E+00 -0.00000000000E+00  0.00000000000E+00  0.93800000000E+00  0.93800000000E+00 0.  1.
         11    1    1    2    0    0  0.60482848709E-01  0.31699317006E-01  0.88003050263E+00  0.88267602685E+00  0.51100000000E-03 0.  1.
    9000002    1    1    2    0    0 -0.26278820434E+00 -0.14128405087E+00  0.59379068621E-01  0.98609771177E+00  0.93800000000E+00 0.  1.
         22    1    1    2    0    0  0.20230535563E+00  0.10958473386E+00  0.30605903961E+01  0.30692262614E+01  0.00000000000E+00 0.  1.
</event>
<event>
 5    1  0.3269840E+002  0.1596048E+01  0.7818608E-02  0.3357664E+00
         11   -1    0    0    0    0  0.00000000000E+00  0.00000000000E+00  0.39999999674E+01  0.40000000000E+01  0.51100000000E-03 0.  1.
    9000002   -1    0    0    0    0 -0.00000000000E+00 -0.00000000000E+00  0.00000000000E+00  0.93800000000E+00  0.93800000000E+00 0.  1.
         11    1    1    2    0    0  0.21674577139E+00 -0.29303435605E+00  0.25116012318E+01  0.25379103357E+01  0.51100000000E-03 0.  1.
    9000002    1    1    2    0    0 -0.36140028989E+00  0.52588639890E+00  0.29028327509E+00  0.11710145404E+01  0.93800000000E+00 0.  1.
         22    1    1    2    0    0  0.14465451850E+00 -0.23285204285E+00  0.11981154605E+01  0.12290751239E+01  0.00000000000E+00 0.  1.
</event>
<event>
 5    1  0.3269840E+002  0.1599677E+01  0.7818608E-02  0.3353714E+00
         11   -1    0    0    0    0  0.00000000000E+00  0.00000000000E+00  0.39999999674E+01  0.40000000000E+01  0.51100000000E-03 0.  1.
    9000002   -1    0    0    0    0 -0.00000000000E+00 -0.00000000000E+00  0.00000000000E+00  0.93800000000E+00  0.93800000000E+00 0. -1.
         11    1    1    2    0    0 -0.77257969238E-02 -0.73588438969E-01  0.91002129426E+00  0.91302462367E+00  0.51100000000E-03 0.  1.
    9000002    1    1    2    0    0  0.32053945722E-01  0.31651486472E+00  0.67635863748E-01  0.99278785503E+00  0.93800000000E+00 0. -1.
         22    1    1    2    0    0 -0.24328148799E-01 -0.24292642575E+00  0.30223428093E+01  0.30321875213E+01  0.00000000000E+00 0.  1.
</event>
<event>
 5    1  0.3269840E+002  0.1593364E+01  0.7818608E-02  0.3360598E+00
         11   -1    0    0    0    0  0.00000000000E+00  0.00000000000E+00  0.39999999674E+01  0.40000000000E+01  0.51100000000E-03 0.  1.
    9000002   -1    0    0    0    0 -0.00000000000E+00 -0.00000000000E+00  0.00000000000E+00  0.93800000000E+00  0.93800000000E+00 0. -1.
         11    1    1    2    0    0  0.15888689452E+00 -0.15444722534E-01  0.10693362630E+01  0.10811863341E+01  0.51100000000E-03 0.  1.
    9000002    1    1    2    0    0 -0.30584947819E+00  0.20531672261E+00  0.96337516790E-01  0.10123358025E+01  0.93800000000E+00 0. -1.
         22    1    1    2    0    0  0.14696258367E+00 -0.18987200008E+00  0.28343261876E+01  0.28444778634E+01  0.00000000000E+00 0.  1.
</event>
<event>
 5    1  0.3269840E+002  0.1599677E+01  0.7818608E-02  0.3353714E+00
         11   -1    0    0    0    0  0.00000000000E+00  0.00000000000E+00  0.39999999674E+01  0.40000000000E+01  0.51100000000E-03 0.  1.
    9000002   -1    0    0    0    0 -0.00000000000E+00 -0.00000000000E+00  0.00000000000E+00  0.93800000000E+00  0.93800000000E+00 0. -1.
         11    1    1    2    0    0 -0.18833624295E-01  0.55163108436E+00  0.26328544191E+01  0.26900881420E+01  0.51100000000E-03 0.  1.
    9000002    1    1    2    0    0  0.26455684651E-01 -0.75158183301E+00  0.41025807485E+00  0.12703270614E+01  0.93800000000E+00 0. -1.
         22    1    1    2    0    0 -0.76220603563E-02  0.19995074865E+00  0.95688747341E+00  0.97758479656E+00  0.00000000000E+00 0.  1.
</event>
<event>
 5    1  0.3678060E+002  0.1599099E+01  0.7818608E-02  0.3354342E+00
         11   -1    0    0    0    0  0.00000000000E+00  0.00000000000E+00  0.39999999674E+01  0.40000000000E+01  0.51100000000E-03 0.  1.
    9000002   -1    0    0    0    0 -0.00000000000E+00 -0.00000000000E+00  0.00000000000E+00  0.93800000000E+00  0.93800000000E+00 0. -1.
         11    1    1    2    0    0 -0.24877068003E-02  0.24549540334E-02  0.26445596776E+00  0.26447955590E+00  0.51100000000E-03 0.  1.
    9000002    1    1    2    0    0  0.11476397927E+00  0.16549100616E+00  0.27286118913E-01  0.95976381279E+00  0.93800000000E+00 0. -1.
         22    1    1    2    0    0 -0.11227627247E+00 -0.16794596020E+00  0.37082578807E+01  0.37137566313E+01  0.00000000000E+00 0.  1.
</event>
<event>
 5    1  0.3269840E+002  0.1599658E+01  0.7818608E-02  0.3353735E+00
         11   -1    0    0    0    0  0.00000000000E+00  0.00000000000E+00  0.39999999674E+01  0.40000000000E+01  0.51100000000E-03 0.  1.
    9000002   -1    0    0    0    0 -0.00000000000E+00 -0.00000000000E+00  0.00000000000E+00  0.93800000000E+00  0.93800000000E+00 0. -1.
         11    1    1    2    0    0  0.20527317574E-01  0.59238065106E-03  0.14460604437E+00  0.14605783400E+00  0.51100000000E-03 0.  1.
    9000002    1    1    2    0    0 -0.49170004101E+00 -0.15160793244E-01  0.16545724155E+00  0.10720162680E+01  0.93800000000E+00 0. -1.
         22    1    1    2    0    0  0.47117272343E+00  0.14568412593E-01  0.36899366814E+01  0.37199258980E+01  0.00000000000E+00 0.  1.
</event>
<event>
 5    1  0.3269840E+002  0.1595798E+01  0.7818608E-02  0.3357936E+00
         11   -1    0    0    0    0  0.00000000000E+00  0.00000000000E+00  0.39999999674E+01  0.40000000000E+01  0.51100000000E-03 0.  1.
    9000002   -1    0    0    0    0 -0.00000000000E+00 -0.00000000000E+00  0.00000000000E+00  0.93800000000E+00  0.93800000000E+00 0. -1.
         11    1    1    2    0    0 -0.59357120494E-01 -0.19129463855E-01  0.37355392771E+00  0.37872417690E+00  0.51100000000E-03 0.  1.
    9000002    1    1    2    0    0  0.25407242158E+00 -0.75726792085E-01  0.49737083484E-01  0.97601491788E+00  0.93800000000E+00 0. -1.
         22    1    1    2    0    0 -0.19471530109E+00  0.94856255941E-01  0.35767089562E+01  0.35832609052E+01  0.00000000000E+00 0.  1.
</event>
<event>
 5    1  0.3269840E+002  0.1599570E+01  0.7818608E-02  0.3353830E+00
         11   -1    0    0    0    0  0.00000000000E+00  0.00000000000E+00  0.39999999674E+01  0.40000000000E+01  0.51100000000E-03 0.  1.
    9000002   -1    0    0    0    0 -0.00000000000E+00 -0.00000000000E+00  0.00000000000E+00  0.93800000000E+00  0.93800000000E+00 0.  1.
         11    1    1    2    0    0 -0.17872232652E-01 -0.26818237743E+00  0.17930975310E+01  0.18131299515E+01  0.51100000000E-03 0.  1.
    9000002    1    1    2    0    0  0.29795925160E-01  0.54244201066E+00  0.20368928154E+00  0.11029344747E+01  0.93800000000E+00 0.  1.
         22    1    1    2    0    0 -0.11923692508E-01 -0.27425963323E+00  0.20032131548E+01  0.20219355738E+01  0.00000000000E+00 0.  1.
</event>
<event>
 5    1  0.3269840E+002  0.1599516E+01  0.7818608E-02  0.3353889E+00
         11   -1    0    0    0    0  0.00000000000E+00  0.00000000000E+00  0.39999999674E+01  0.40000000000E+01  0.51100000000E-03 0.  1.
    9000002   -1    0    0    0    0 -0.00000000000E+00 -0.00000000000E+00  0.00000000000E+00  0.93800000000E+00  0.93800000000E+00 0. -1.
         11    1    1    2    0    0 -0.45997487402E-01 -0.74822766350E-01  0.10101773643E+01  0.10139885521E+01  0.51100000000E-03 0.  1.
    9000002    1    1    2    0    0  0.15110566567E+00  0.24837177693E+00  0.56462797732E-01  0.98364297858E+00  0.93800000000E+00 0. -1.
         22    1    1    2    0    0 -0.10510817827E+00 -0.17354901058E+00  0.29333598053E+01  0.29403684694E+01  0.00000000000E+00 0.  1.
</event>
<event>
 5    1  0.3269840E+002  0.1597894E+01  0.7818608E-02  0.3355652E+00
         11   -1    0    0    0    0  0.00000000000E+00  0.00000000000E+00  0.39999999674E+01  0.40000000000E+01  0.51100000000E-03 0. -1.
    9000002   -1    0    0    0    0 -0.00000000000E+00 -0.00000000000E+00  0.00000000000E+00  0.93800000000E+00  0.93800000000E+00 0.  1.
         11    1    1    2    0    0 -0.20916714493E+00  0.30116760638E-01  0.14783194681E+01  0.14933474562E+01  0.51100000000E-03 0. -1.
    9000002    1    1    2    0    0  0.43179129901E+00 -0.20183850459E-01  0.12810270894E+00  0.10407235069E+01  0.93800000000E+00 0.  1.
         22    1    1    2    0    0 -0.22262415408E+00 -0.99329101793E-02  0.23935777903E+01  0.24039290370E+01  0.00000000000E+00 0. -1.
</event>
<event>
 5    1  0.3269840E+002  0.1590972E+01  0.7818608E-02  0.3363220E+00
         11   -1    0    0    0    0  0.00000000000E+00  0.00000000000E+00  0.39999999674E+01  0.40000000000E+01  0.51100000000E-03 0.  1.
    9000002   -1    0    0    0    0 -0.00000000000E+00 -0.00000000000E+00  0.00000000000E+00  0.93800000000E+00  0.93800000000E+00 0. -1.
         11    1    1    2    0    0 -0.34743178518E-01 -0.31155724545E-01  0.15851726605E+01  0.15858595122E+01  0.51100000000E-03 0.  1.
    9000002    1    1    2    0    0 -0.10433687179E+00  0.27399409006E+00  0.64128598654E-01  0.98484284095E+00  0.93800000000E+00 0. -1.
         22    1    1    2    0    0  0.13908005031E+00 -0.24283836552E+00  0.23506987082E+01  0.23672976468E+01  0.00000000000E+00 0.  1.
</event>
<event>
 5    1  0.3269840E+002  0.1599646E+01  0.7818608E-02  0.3353748E+00
         11   -1    0    0    0    0  0.00000000000E+00  0.00000000000E+00  0.39999999674E+01  0.40000000000E+01  0.51100000000E-03 0.  1.
    9000002   -1    0    0    0    0 -0.00000000000E+00 -0.00000000000E+00  0.00000000000E+00  0.93800000000E+00  0.93800000000E+00 0. -1.
         11    1    1    2    0    0 -0.33536823376E-01  0.19330025972E-01  0.46185739748E+00  0.46347695212E+00  0.51100000000E-03 0.  1.
    9000002    1    1    2    0    0  0.24953986266E+00 -0.16748271888E+00  0.60281149310E-01  0.98681225222E+00  0.93800000000E+00 0. -1.
         22    1    1    2    0    0 -0.21600303928E+00  0.14815269290E+00  0.34778614206E+01  0.34877107957E+01  0.00000000000E+00 0.  1.
</event>
<event>
 5    1  0.3269840E+002  0.1599591E+01  0.7818608E-02  0.3353808E+00
         11   -1    0    0    0    0  0.00000000000E+00  0.00000000000E+00  0.39999999674E+01  0.40000000000E+01  0.51100000000E-03 0. -1.
    9000002   -1    0    0    0    0 -0.00000000000E+00 -0.00000000000E+00  0.00000000000E+00  0.93800000000E+00  0.93800000000E+00 0.  1.
         11    1    1    2    0    0 -0.63807624383E-02  0.10514825793E-01  0.18360434353E+00  0.18401655299E+00  0.51100000000E-03 0. -1.
    9000002    1    1    2    0    0  0.17518985677E+00 -0.13335678631E+00  0.32198078473E-01  0.96403124152E+00  0.93800000000E+00 0.  1.
         22    1    1    2    0    0 -0.16880909433E+00  0.12284196052E+00  0.37841975454E+01  0.37899522055E+01  0.00000000000E+00 0. -1.
</event>
<event>
 5    1  0.3269840E+002  0.1589484E+01  0.7818608E-02  0.3364857E+00
         11   -1    0    0    0    0  0.00000000000E+00  0.00000000000E+00  0.39999999674E+01  0.40000000000E+01  0.51100000000E-03 0.  1.
    9000002   -1    0    0    0    0 -0.00000000000E+00 -0.00000000000E+00  0.00000000000E+00  0.93800000000E+00  0.93800000000E+00 0.  1.
         11    1    1    2    0    0  0.51390552834E-01 -0.10991665479E+00  0.63061010931E+00  0.64217756969E+00  0.51100000000E-03 0.  1.
    9000002    1    1    2    0    0 -0.37670824133E+00  0.12680980570E+00  0.11504764208E+00  0.10252169457E+01  0.93800000000E+00 0.  1.
         22    1    1    2    0    0  0.32531768850E+00 -0.16893150903E-01  0.32543422160E+01  0.32706054846E+01  0.00000000000E+00 0.  1.
</event>
<event>
 5    1  0.3269840E+002  0.1586063E+01  0.7818608E-02  0.3368630E+00
         11   -1    0    0    0    0  0.00000000000E+00  0.00000000000E+00  0.39999999674E+01  0.40000000000E+01  0.51100000000E-03 0. -1.
    9000002   -1    0    0    0    0 -0.00000000000E+00 -0.00000000000E+00  0.00000000000E+00  0.93800000000E+00  0.93800000000E+00 0.  1.
         11    1    1    2    0    0 -0.82537918369E-01  0.96611507520E-02  0.17439619600E+00  0.19318421287E+00  0.51100000000E-03 0. -1.
    9000002    1    1    2    0    0  0.51874815928E+00  0.16889324456E+00  0.21830484459E+00  0.11068539136E+01  0.93800000000E+00 0.  1.
         22    1    1    2    0    0 -0.43621024091E+00 -0.17855439531E+00  0.36072989268E+01  0.36379618736E+01  0.00000000000E+00 0. -1.
</event>
<event>
 5    1  0.3269840E+002  0.1514579E+01  0.7818608E-02  0.3451636E+00
         11   -1    0    0    0    0  0.00000000000E+00  0.00000000000E+00  0.39999999674E+01  0.40000000000E+01  0.51100000000E-03 0. -1.
    9000002   -1    0    0    0    0 -0.00000000000E+00 -0.00000000000E+00  0.00000000000E+00  0.93800000000E+00  0.93800000000E+00 0.  1.
         11    1    1    2    0    0  0.18537594292E+00 -0.19844524958E+00  0.20445094282E+01  0.20624654713E+01  0.51100000000E-03 0. -1.
    9000002    1    1    2    0    0  0.30511879584E+00  0.30808202327E+00  0.20394265340E+00  0.10533036687E+01  0.93800000000E+00 0.  1.
         22    1    1    2    0    0 -0.49049473876E+00 -0.10963677369E+00  0.17515478858E+01  0.18222308600E+01  0.00000000000E+00 0. -1.
</event>
<event>
 5    1  0.3269840E+002  0.1599062E+01  0.7818608E-02  0.3354382E+00
         11   -1    0    0    0    0  0.00000000000E+00  0.00000000000E+00  0.39999999674E+01  0.40000000000E+01  0.51100000000E-03 0. -1.
    9000002   -1    0    0    0    0 -0.00000000000E+00 -0.00000000000E+00  0.00000000000E+00  0.93800000000E+00  0.93800000000E+00 0. -1.
         11    1    1    2    0    0 -0.43750762127E-01 -0.85110419147E-01  0.10702901289E+01  0.10745599722E+01  0.51100000000E-03 0. -1.
    9000002    1    1    2    0    0  0.63810728961E-01  0.32497019019E+00  0.73882008406E-01  0.99748683440E+00  0.93800000000E+00 0. -1.
         22    1    1    2    0    0 -0.20059966834E-01 -0.23985977104E+00  0.28558278301E+01  0.28659531934E+01  0.00000000000E+00 0. -1.
</event>
<event>
 5    1  0.3269840E+002  0.1598303E+01  0.7818608E-02  0.3355208E+00
         11   -1    0    0    0    0  0.00000000000E+00  0.00000000000E+00  0.39999999674E+01  0.40000000000E+01  0.51100000000E-03 0.  1.
    9000002   -1    0    0    0    0 -0.00000000000E+00 -0.00000000000E+00  0.00000000000E+00  0.93800000000E+00  0.93800000000E+00 0.  1.
         11    1    1    2    0    0  0.30876348324E+00  0.73030266191E-01  0.11901610662E+01  0.12317272153E+01  0.51100000000E-03 0.  1.
    9000002    1    1    2    0    0 -0.78712190034E+00 -0.18612085428E+00  0.48516539515E+00  0.13301997290E+01  0.93800000000E+00 0.  1.
         22    1    1    2    0    0  0.47835841709E+00  0.11309058809E+00  0.23246735060E+01  0.23760730557E+01  0.00000000000E+00 0.  1.
</event>
<event>
 5    1  0.3269840E+002  0.1594553E+01  0.7818608E-02  0.3359297E+00
         11   -1    0    0    0    0  0.00000000000E+00  0.00000000000E+00  0.39999999674E+01  0.40000000000E+01  0.51100000000E-03 0. -1.
    9000002   -1    0    0    0    0 -0.00000000000E+00 -0.00000000000E+00  0.00000000000E+00  0.93800000000E+00  0.93800000000E+00 0.  1.
         11    1    1    2    0    0  0.60460819693E-01 -0.52424311334E-01  0.16178160763E+01  0.16197941033E+01  0.51100000000E-03 0. -1.
    9000002    1    1    2    0    0 -0.24992865578E+00 -0.51997313683E-01  0.47243259189E-01  0.97326459873E+00  0.93800000000E+00 0.  1.
         22    1    1    2    0    0  0.18946783609E+00  0.10442162502E+00  0.23349406319E+01  0.23449412980E+01  0.00000000000E+00 0. -1.
</event>
<event>
 5    1  0.3269840E+002  0.1599673E+01  0.7818608E-02  0.3353718E+00
         11   -1    0    0    0    0  0.00000000000E+00  0.00000000000E+00  0.39999999674E+01  0.40000000000E+01  0.51100000000E-03 0. -1.
    9000002   -1    0    0    0    0 -0.00000000000E+00 -0.00000000000E+00  0.00000000000E+00  0.93800000000E+00  0.93800000000E+00 0.  1.
         11    1    1    2    0    0 -0.91163680699E-03 -0.34595922820E-02  0.59484775670E-01  0.59594458786E-01  0.51100000000E-03 0.  1.
    9000002    1    1    2    0    0  0.39385291181E-01  0.23059303642E+00  0.36312755685E-01  0.96741251069E+00  0.93800000000E+00 0.  1.
         22    1    1    2    0    0 -0.38473654374E-01 -0.22713344414E+00  0.39042024360E+01  0.39109930305E+01  0.00000000000E+00 0. -1.
</event>
<event>
 5    1  0.3269840E+002  0.1599663E+01  0.7818608E-02  0.3353729E+00
         11   -1    0    0    0    0  0.00000000000E+00  0.00000000000E+00  0.39999999674E+01  0.40000000000E+01  0.51100000000E-03 0. -1.
    9000002   -1    0    0    0    0 -0.00000000000E+00 -0.00000000000E+00  0.00000000000E+00  0.93800000000E+00  0.93800000000E+00 0.  1.
         11    1    1    2    0    0  0.75723051537E-01  0.80451333622E-01  0.13300805577E+01  0.13346613611E+01  0.51100000000E-03 0. -1.
    9000002    1    1    2    0    0 -0.22930834773E+00 -0.24852929512E+00  0.76585406103E-01  0.10000292262E+01  0.93800000000E+00 0.  1.
         22    1    1    2    0    0  0.15358529619E+00  0.16807796150E+00  0.25933340036E+01  0.26033094127E+01  0.00000000000E+00 0. -1.
</event>
<event>
 5    1  0.3269840E+002  0.1599648E+01  0.7818608E-02  0.3353745E+00
         11   -1    0    0    0    0  0.00000000000E+00  0.00000000000E+00  0.39999999674E+01  0.40000000000E+01  0.51100000000E-03 0. -1.
    9000002   -1    0    0    0    0 -0.00000000000E+00 -0.00000000000E+00  0.00000000000E+00  0.93800000000E+00  0.93800000000E+00 0. -1.
         11    1    1    2    0    0 -0.16313402057E+00 -0.10273162455E+00  0.16851676776E+01  0.16961594436E+01  0.51100000000E-03 0. -1.
    9000002    1    1    2    0    0  0.36812106763E+00  0.24895674919E+00  0.13404848043E+00  0.10465684777E+01  0.93800000000E+00 0. -1.
         22    1    1    2    0    0 -0.20498704706E+00 -0.14622512465E+00  0.21807838093E+01  0.21952720787E+01  0.00000000000E+00 0. -1.
</event>
<event>
 5    1  0.3269840E+002  0.1595670E+01  0.7818608E-02  0.3358076E+00
         11   -1    0    0    0    0  0.00000000000E+00  0.00000000000E+00  0.39999999674E+01  0.40000000000E+01  0.51100000000E-03 0.  1.
    9000002   -1    0    0    0    0 -0.00000000000E+00 -0.00000000000E+00  0.00000000000E+00  0.93800000000E+00  0.93800000000E+00 0. -1.
         11    1    1    2    0    0  0.77583469743E-02 -0.14150105203E+00  0.17608375023E+01  0.17665309820E+01  0.51100000000E-03 0.  1.
    9000002    1    1    2    0    0 -0.17485055901E+00  0.25427914643E+00  0.66738062938E-01  0.98971135759E+00  0.93800000000E+00 0. -1.
         22    1    1    2    0    0  0.16709221204E+00 -0.11277809440E+00  0.21724244021E+01  0.21817576604E+01  0.00000000000E+00 0.  1.
</event>
<event>
 5    1  0.3269840E+002  0.1599638E+01  0.7818608E-02  0.3353756E+00
         11   -1    0    0    0    0  0.00000000000E+00  0.00000000000E+00  0.39999999674E+01  0.40000000000E+01  0.51100000000E-03 0.  1.
    9000002   -1    0    0    0    0 -0.00000000000E+00 -0.00000000000E+00  0.00000000000E+00  0.93800000000E+00  0.93800000000E+00 0.  1.
         11    1    1    2    0    0  0.26857402565E-01 -0.27260754295E-01  0.48281077818E+00  0.48432528062E+00  0.51100000000E-03 0.  1.
    9000002    1    1    2    0    0 -0.18352045593E+00  0.20537938137E+00  0.50527046061E-01  0.97890624190E+00  0.93800000000E+00 0.  1.
         22    1    1    2    0    0  0.15666305337E+00 -0.17811862707E+00  0.34666621431E+01  0.34747684775E+01  0.00000000000E+00 0.  1.
</event>
<event>
 5    1  0.3269840E+002  0.1506954E+01  0.7818608E-02  0.3460987E+00
         11   -1    0    0    0    0  0.00000000000E+00  0.00000000000E+00  0.39999999674E+01  0.40000000000E+01  0.51100000000E-03 0.  1.
    9000002   -1    0    0    0    0 -0.00000000000E+00 -0.00000000000E+00  0.00000000000E+00  0.93800000000E+00  0.93800000000E+00 0. -1.
         11    1    1    2    0    0 -0.22891285054E+00 -0.67234977216E-03  0.44274651083E+00  0.49842379475E+00  0.51100000000E-03 0.  1.
    9000002    1    1    2    0    0 -0.52258655837E-01 -0.35521515405E+00  0.16583738832E+00  0.10179660172E+01  0.93800000000E+00 0. -1.
         22    1    1    2    0    0  0.28117150637E+00  0.35588750382E+00  0.33914160682E+01  0.34216101881E+01  0.00000000000E+00 0.  1.
</event>
<event>
 5    1  0.3269840E+002  0.1599209E+01  0.7818608E-02  0.3354222E+00
         11   -1    0    0    0    0  0.00000000000E+00  0.00000000000E+00  0.39999999674E+01  0.40000000000E+01  0.51100000000E-03 0.  1.
    9000002   -1    0    0    0    0 -0.00000000000E+00 -0.00000000000E+00  0.00000000000E+00  0.93800000000E+00  0.93800000000E+00 0. -1.
         11    1    1    2    0    0  0.27715939848E-01 -0.11727726728E-01  0.44332415161E+00  0.44434477314E+00  0.51100000000E-03 0.  1.
    9000002    1    1    2    0    0 -0.14483865178E+00  0.20923105293E+00  0.43389629381E-01  0.97287333631E+00  0.93800000000E+00 0. -1.
         22    1    1    2    0    0  0.11712271193E+00 -0.19750332620E+00  0.35132861864E+01  0.35207818906E+01  0.00000000000E+00 0.  1.
</event>
<event>
 5    1  0.3269840E+002  0.1599600E+01  0.7818608E-02  0.3353798E+00
         11   -1    0    0    0    0  0.00000000000E+00  0.00000000000E+00  0.39999999674E+01  0.40000000000E+01  0.51100000000E-03 0. -1.
    9000002   -1    0    0    0    0 -0.00000000000E+00 -0.00000000000E+00  0.00000000000E+00  0.93800000000E+00  0.93800000000E+00 0. -1.
         11    1    1    2    0    0 -0.73008519149E-01 -0.32233148155E-01  0.64040209837E+00  0.64535597032E+00  0.51100000000E-03 0. -1.
    9000002    1    1    2    0    0  0.43923611175E+00  0.14662161550E+00  0.14598805669E+00  0.10562115189E+01  0.93800000000E+00 0. -1.
         22    1    1    2    0    0 -0.36622759260E+00 -0.11438846734E+00  0.32136098123E+01  0.32364325108E+01  0.00000000000E+00 0. -1.
</event>
<event>
 5    1  0.3269840E+002  0.1588781E+01  0.7818608E-02  0.3365631E+00
         11   -1    0    0    0    0  0.00000000000E+00  0.00000000000E+00  0.39999999674E+01  0.40000000000E+01  0.51100000000E-03 0. -1.
    9000002   -1    0    0    0    0 -0.00000000000E+00 -0.00000000000E+00  0.00000000000E+00  0.93800000000E+00  0.93800000000E+00 0. -1.
         11    1    1    2    0    0 -0.31964865836E-01 -0.24247833863E-01  0.18023528487E+00  0.18464758089E+00  0.51100000000E-03 0. -1.
    9000002    1    1    2    0    0 -0.14055325928E+00 -0.25647187031E+00  0.65564988260E-01  0.98472118218E+00  0.93800000000E+00 0. -1.
         22    1    1    2    0    0  0.17251812511E+00  0.28071970417E+00  0.37541996942E+01  0.37686312369E+01  0.00000000000E+00 0. -1.
</event>
<event>
 5    1  0.3269840E+002  0.1599638E+01  0.7818608E-02  0.3353757E+00
         11   -1    0    0    0    0  0.00000000000E+00  0.00000000000E+00  0.39999999674E+01  0.40000000000E+01  0.51100000000E-03 0.  1.
    9000002   -1    0    0    0    0 -0.00000000000E+00 -0.00000000000E+00  0.00000000000E+00  0.93800000000E+00  0.93800000000E+00 0.  1.
         11    1    1    2    0    0  0.44218266846E-01  0.12519500306E+00  0.13342842326E+01  0.13408742366E+01  0.51100000000E-03 0.  1.
    9000002    1    1    2    0    0 -0.11723427208E+00 -0.38255478654E+00  0.10801972009E+00  0.10254775957E+01  0.93800000000E+00 0.  1.
         22    1    1    2    0    0  0.73016005234E-01  0.25735978348E+00  0.25576960147E+01  0.25716481677E+01  0.00000000000E+00 0.  1.
</event>
<event>
 5    1  0.3269840E+002  0.1570859E+01  0.7818608E-02  0.3385612E+00
         11   -1    0    0    0    0  0.00000000000E+00  0.00000000000E+00  0.39999999674E+01  0.40000000000E+01  0.51100000000E-03 0.  1.
    9000002   -1    0    0    0    0 -0.00000000000E+00 -0.00000000000E+00  0.00000000000E+00  0.93800000000E+00  0.93800000000E+00 0.  1.
         11    1    1    2    0    0 -0.13653990557E+00  0.43578156520E-02  0.50402017823E+00  0.52220564680E+00  0.51100000000E-03 0.  1.
    9000002    1    1    2    0    0  0.48605906198E-02 -0.16821586057E+00  0.40406108853E-01  0.95383271842E+00  0.93800000000E+00 0.  1.
         22    1    1    2    0    0  0.13167931495E+00  0.16385804492E+00  0.34555736803E+01  0.34619616348E+01  0.00000000000E+00 0.  1.
</event>
<event>
 5    1  0.3269840E+002  0.1599676E+01  0.7818608E-02  0.3353715E+00
         11   -1    0    0    0    0  0.00000000000E+00  0.00000000000E+00  0.39999999674E+01  0.40000000000E+01  0.51100000000E-03 0.  1.
    9000002   -1    0    0    0    0 -0.00000000000E+00 -0.00000000000E+00  0.00000000000E+00  0.93800000000E+00  0.93800000000E+00 0.  1.
         11    1    1    2    0    0  0.75779562202E-01  0.28056990806E-01  0.88170094213E+00  0.88539626680E+00  0.51100000000E-03 0.  1.
    9000002    1    1    2    0    0 -0.33297122183E+00 -0.12157466795E+00  0.84292586150E-01  0.10062800180E+01  0.93800000000E+00 0.  1.
         22    1    1    2    0    0  0.25719165963E+00  0.93517677141E-01  0.30340064391E+01  0.30463237152E+01  0.00000000000E+00 0.  1.
</event>
<event>
 5    1  0.3269840E+002  0.1599673E+01  0.7818608E-02  0.3353718E+00
         11   -1    0    0    0    0  0.00000000000E+00  0.00000000000E+00  0.39999999674E+01  0.40000000000E+01  0.51100000000E-03 0.  1.
    9000002   -1    0    0    0    0 -0.00000000000E+00 -0.00000000000E+00  0.00000000000E+00  0.93800000000E+00  0.93800000000E+00 0.  1.
         11    1    1    2    0    0  0.73046996828E-01 -0.68089833489E-01  0.11692537676E+01  0.11735104274E+01  0.51100000000E-03 0.  1.
    9000002    1    1    2    0    0 -0.24978813539E+00  0.23387983105E+00  0.78449043167E-01  0.10015448768E+01  0.93800000000E+00 0.  1.
         22    1    1    2    0    0  0.17674113856E+00 -0.16578999756E+00  0.27522971566E+01  0.27629446957E+01  0.00000000000E+00 0.  1.
</event>
<event>
 5    1  0.3269840E+002  0.1596428E+01  0.7818608E-02  0.3357250E+00
         11   -1    0    0    0    0  0.00000000000E+00  0.00000000000E+00  0.39999999674E+01  0.40000000000E+01  0.51100000000E-03 0. -1.
    9000002   -1    0    0    0    0 -0.00000000000E+00 -0.00000000000E+00  0.00000000000E+00  0.93800000000E+00  0.93800000000E+00 0.  1.
         11    1    1    2    0    0  0.66867343074E-03  0.50494463589E-03  0.12474575279E+01  0.12474579140E+01  0.51100000000E-03 0. -1.
    9000002    1    1    2    0    0 -0.60665328937E-01  0.19256721078E+00  0.29429085096E-01  0.95993358304E+00  0.93800000000E+00 0.  1.
         22    1    1    2    0    0  0.59996655506E-01 -0.19307215542E+00  0.27231133543E+01  0.27306085030E+01  0.00000000000E+00 0.  1.
</event>
<event>
 5    1  0.3269840E+002  0.1578789E+01  0.7818608E-02  0.3376712E+00
         11   -1    0    0    0    0  0.00000000000E+00  0.00000000000E+00  0.39999999674E+01  0.40000000000E+01  0.51100000000E-03 0. -1.
    9000002   -1    0    0    0    0 -0.00000000000E+00 -0.00000000000E+00  0.00000000000E+00  0.93800000000E+00  0.93800000000E+00 0.  1.
         11    1    1    2    0    0  0.15205132049E+00 -0.37353098008E-01  0.94536885282E+00  0.95824703860E+00  0.51100000000E-03 0. -1.
    9000002    1    1    2    0    0 -0.15885314727E-01  0.19138235985E+00  0.40180148878E-01  0.95829953316E+00  0.93800000000E+00 0.  1.
         22    1    1    2    0    0 -0.13616600576E+00 -0.15402926184E+00  0.30144509657E+01  0.30214534282E+01  0.00000000000E+00 0. -1.
</event>
<event>
 5    1  0.3269840E+002  0.1599672E+01  0.7818608E-02  0.3353719E+00
         11   -1    0    0    0    0  0.00000000000E+00  0.00000000000E+00  0.39999999674E+01  0.40000000000E+01  0.51100000000E-03 0.  1.
    9000002   -1    0    0    0    0 -0.00000000000E+00 -0.00000000000E+00  0.00000000000E+00  0.93800000000E+00  0.93800000000E+00 0. -1.
         11    1    1    2    0    0  0.14464732351E+00  0.26934452508E-03  0.15420135165E+01  0.15487830277E+01  0.51100000000E-03 0.  1.
    9000002    1    1    2    0    0 -0.37126035906E+00  0.39784526628E-02  0.92658579562E-01  0.10130546356E+01  0.93800000000E+00 0. -1.
         22    1    1    2    0    0  0.22661303555E+00 -0.42477971879E-02  0.23653278713E+01  0.23761623367E+01  0.00000000000E+00 0.  1.
</event>
<event>
 5    1  0.3269840E+002  0.1599675E+01  0.7818608E-02  0.3353716E+00
         11   -1    0    0    0    0  0.00000000000E+00  0.00000000000E+00  0.39999999674E+01  0.40000000000E+01  0.51100000000E-03 0. -1.
    9000002   -1    0    0    0    0 -0.00000000000E+00 -0.00000000000E+00  0.00000000000E+00  0.93800000000E+00  0.93800000000E+00 0.  1.
         11    1    1    2    0    0  0.90382548571E-01  0.34895926882E+00  0.21521011981E+01  0.21820818968E+01  0.51100000000E-03 0. -1.
    9000002    1    1    2    0    0 -0.15784097839E+00 -0.60626377208E+00  0.27542988592E+00  0.11611094513E+01  0.93800000000E+00 0.  1.
         22    1    1    2    0    0  0.67458429815E-01  0.25730450326E+00  0.15724688834E+01  0.15948086520E+01  0.00000000000E+00 0. -1.
</event>
<event>
 5    1  0.3269840E+002  0.1599675E+01  0.7818608E-02  0.3353716E+00
         11   -1    0    0    0    0  0.00000000000E+00  0.00000000000E+00  0.39999999674E+01  0.40000000000E+01  0.51100000000E-03 0. -1.
    9000002   -1    0    0    0    0 -0.00000000000E+00 -0.00000000000E+00  0.00000000000E+00  0.93800000000E+00  0.93800000000E+00 0.  1.
         11    1    1    2    0    0  0.69555422630E-02 -0.14995341733E-02  0.10231062359E+00  0.10255902199E+00  0.51100000000E-03 0.  1.
    9000002    1    1    2    0    0 -0.25749804056E+00  0.55197820242E-01  0.46120045479E-01  0.97535793371E+00  0.93800000000E+00 0.  1.
         22    1    1    2    0    0  0.25054249830E+00 -0.53698286069E-01  0.38515692983E+01  0.38600830443E+01  0.00000000000E+00 0. -1.
</event>
<event>
 5    1  0.3269840E+002  0.1596695E+01  0.7818608E-02  0.3356958E+00
         11   -1    0    0    0    0  0.00000000000E+00  0.00000000000E+00  0.39999999674E+01  0.40000000000E+01  0.51100000000E-03 0. -1.
    9000002   -1    0    0    0    0 -0.00000000000E+00 -0.00000000000E+00  0.00000000000E+00  0.93800000000E+00  0.93800000000E+00 0.  1.
         11    1    1    2    0    0  0.71754823931E-01 -0.90936610433E-01  0.98717345351E+00  0.99394663353E+00  0.51100000000E-03 0. -1.
    9000002    1    1    2    0    0 -0.31434957632E+00  0.13626390202E+00  0.81037622540E-01  0.10018955052E+01  0.93800000000E+00 0.  1.
         22    1    1    2    0    0  0.24259475239E+00 -0.45327291591E-01  0.29317888913E+01  0.29421578612E+01  0.00000000000E+00 0. -1.
</event>
<event>
 5    1  0.3269840E+002  0.1593447E+01  0.7818608E-02  0.3360507E+00
         11   -1    0    0    0    0  0.00000000000E+00  0.00000000000E+00  0.39999999674E+01  0.40000000000E+01  0.51100000000E-03 0. -1.
    9000002   -1    0    0    0    0 -0.00000000000E+00 -0.00000000000E+00  0.00000000000E+00  0.93800000000E+00  0.93800000000E+00 0.  1.
         11    1    1    2    0    0 -0.17479358378E+00 -0.19063286134E+00  0.24727818900E+01  0.24862711480E+01  0.51100000000E-03 0. -1.
    9000002    1    1    2    0    0  0.21091538197E+00  0.42443360041E+00  0.15862949753E+00  0.10628435901E+01  0.93800000000E+00 0.  1.
         22    1    1    2    0    0 -0.36121798195E-01 -0.23380073907E+00  0.13685885799E+01  0.13888852620E+01  0.00000000000E+00 0. -1.
</event>
<event>
 5    1  0.3269840E+002  0.1598990E+01  0.7818608E-02  0.3354461E+00
         11   -1    0    0    0    0  0.00000000000E+00  0.00000000000E+00  0.39999999674E+01  0.40000000000E+01  0.51100000000E-03 0.  1.
    9000002   -1    0    0    0    0 -0.00000000000E+00 -0.00000000000E+00  0.00000000000E+00  0.93800000000E+00  0.93800000000E+00 0.  1.
         11    1    1    2    0    0 -0.28402459748E-01 -0.22702359626E-01  0.10091857073E+01  0.10098406557E+01  0.51100000000E-03 0.  1.
    9000002    1    1    2    0    0  0.20705223947E+00  0.13915557523E+00  0.41865565338E-01  0.97150997398E+00  0.93800000000E+00 0.  1.
         22    1    1    2    0    0 -0.17864977972E+00 -0.11645321560E+00  0.29489486947E+01  0.29566493703E+01  0.00000000000E+00 0. -1.
</event>
<event>
 5    1  0.3269840E+002  0.1599585E+01  0.7818608E-02  0.3353814E+00
         11   -1    0    0    0    0  0.00000000000E+00  0.00000000000E+00  0.39999999674E+01  0.40000000000E+01  0.51100000000E-03 0. -1.
    9000002   -1    0    0    0    0 -0.00000000000E+00 -0.00000000000E+00  0.00000000000E+00  0.93800000000E+00  0.93800000000E+00 0.  1.
         11    1    1    2    0    0  0.20121528935E-01 -0.24921127901E-01  0.44335390961E+00  0.44450971736E+00  0.51100000000E-03 0. -1.
    9000002    1    1    2    0    0 -0.24265884995E+00  0.22514402334E+00  0.73393910587E-01  0.99739852357E+00  0.93800000000E+00 0.  1.
         22    1    1    2    0    0  0.22253732102E+00 -0.20022289544E+00  0.34832521472E+01  0.34960917591E+01  0.00000000000E+00 0. -1.
</event>
<event>
 5    1  0.3269840E+002  0.1592720E+01  0.7818608E-02  0.3361303E+00
         11   -1    0    0    0    0  0.00000000000E+00  0.00000000000E+00  0.39999999674E+01  0.40000000000E+01  0.51100000000E-03 0. -1.
    9000002   -1    0    0    0    0 -0.00000000000E+00 -0.00000000000E+00  0.00000000000E+00  0.93800000000E+00  0.93800000000E+00 0.  1.
         11    1    1    2    0    0  0.17251022622E-02 -0.20088182910E-01  0.47304540938E-01  0.51424622359E-01  0.51100000000E-03 0. -1.
    9000002    1    1    2    0    0  0.94339788866E-01 -0.15621366868E+00  0.27226093155E-01  0.95597487739E+00  0.93800000000E+00 0.  1.
         22    1    1    2    0    0 -0.96064891128E-01  0.17630185159E+00  0.39254693333E+01  0.39306005003E+01  0.00000000000E+00 0. -1.
</event>
<event>
 5    1  0.3269840E+002  0.1599675E+01  0.7818608E-02  0.3353716E+00
         11   -1    0    0    0    0  0.00000000000E+00  0.00000000000E+00  0.39999999674E+01  0.40000000000E+01  0.51100000000E-03 0. -1.
    9000002   -1    0    0    0    0 -0.00000000000E+00 -0.00000000000E+00  0.00000000000E+00  0.93800000000E+00  0.93800000000E+00 0. -1.
         11    1    1    2    0    0  0.66487578028E-01 -0.13366285076E+00  0.91023193834E+00  0.92239297395E+00  0.51100000000E-03 0. -1.
    9000002    1    1    2    0    0 -0.26750477219E+00  0.54883053387E+00  0.26068009406E+00  0.11491613766E+01  0.93800000000E+00 0. -1.
         22    1    1    2    0    0  0.20101719416E+00 -0.41516768311E+00  0.28290879350E+01  0.28664456494E+01  0.00000000000E+00 0. -1.
</event>
<event>
 5    1  0.3269840E+002  0.1599676E+01  0.7818608E-02  0.3353715E+00
         11   -1    0    0    0    0  0.00000000000E+00  0.00000000000E+00  0.39999999674E+01  0.40000000000E+01  0.51100000000E-03 0.  1.
    9000002   -1    0    0    0    0 -0.00000000000E+00 -0.00000000000E+00  0.00000000000E+00  0.93800000000E+00  0.93800000000E+00 0. -1.
         11    1    1    2    0    0 -0.24417850933E-01  0.60866691106E-01  0.82964035574E+00  0.83222855425E+00  0.51100000000E-03 0.  1.
    9000002    1    1    2    0    0  0.11100776983E+00 -0.28775340810E+00  0.63510361338E-01  0.98944545824E+00  0.93800000000E+00 0. -1.
         22    1    1    2    0    0 -0.86589918897E-01  0.22688671699E+00  0.31068492503E+01  0.31163259875E+01  0.00000000000E+00 0.  1.
</event>
<event>
 5    1  0.3269840E+002  0.1597679E+01  0.7818608E-02  0.3355886E+00
         11   -1    0    0    0    0  0.00000000000E+00  0.00000000000E+00  0.39999999674E+01  0.40000000000E+01  0.51100000000E-03 0. -1.
    9000002   -1    0    0    0    0 -0.00000000000E+00 -0.00000000000E+00  0.00000000000E+00  0.93800000000E+00  0.93800000000E+00 0.  1.
         11    1    1    2    0    0  0.41482904972E-01  0.16125872255E-01  0.18986691513E+00  0.19501431163E+00  0.51100000000E-03 0. -1.
    9000002    1    1    2    0    0 -0.49573477398E+00  0.69075941315E-02  0.16994079458E+00  0.10744880430E+01  0.93800000000E+00 0.  1.
         22    1    1    2    0    0  0.45425186900E+00 -0.23033466387E-01  0.36401922576E+01  0.36684976453E+01  0.00000000000E+00 0. -1.
</event>
<event>
 5    1  0.3269840E+002  0.1586044E+01  0.7818608E-02  0.3368651E+00
         11   -1    0    0    0    0  0.00000000000E+00  0.00000000000E+00  0.39999999674E+01  0.40000000000E+01  0.51100000000E-03 0. -1.
    9000002   -1    0    0    0    0 -0.00000000000E+00 -0.00000000000E+00  0.00000000000E+00  0.93800000000E+00  0.93800000000E+00 0. -1.
         11    1    1    2    0    0  0.19903969432E-01 -0.49436645350E-01  0.19392498964E+01  0.19399821060E+01  0.51100000000E-03 0. -1.
    9000002    1    1    2    0    0  0.16909210494E+00 -0.95453794000E-01  0.35217825523E-01  0.95853422577E+00  0.93800000000E+00 0. -1.
         22    1    1    2    0    0 -0.18899607438E+00  0.14489043935E+00  0.20255322454E+01  0.20394836682E+01  0.00000000000E+00 0. -1.
</event>
<event>
 5    1  0.3269840E+002  0.1596647E+01  0.7818608E-02  0.3357011E+00
         11   -1    0    0    0    0  0.00000000000E+00  0.00000000000E+00  0.39999999674E+01  0.40000000000E+01  0.51100000000E-03 0.  1.
    9000002   -1    0    0    0    0 -0.00000000000E+00 -0.00000000000E+00  0.00000000000E+00  0.93800000000E+00  0.93800000000E+00 0.  1.
         11    1    1    2    0    0 -0.34660107827E-02  0.20047891112E+00  0.20384403501E+01  0.20482780888E+01  0.51100000000E-03 0.  1.
    9000002    1    1    2    0    0 -0.11039440274E+00 -0.42629742559E+00  0.13412214888E+00  0.10448680156E+01  0.93800000000E+00 0.  1.
         22    1    1    2    0    0  0.11386041353E+00  0.22581851447E+00  0.18274374684E+01  0.18448538956E+01  0.00000000000E+00 0.  1.
</event>
<event>
 5    1  0.3269840E+002  0.1580031E+01  0.7818608E-02  0.3375326E+00
         11   -1    0    0    0    0  0.00000000000E+00  0.00000000000E+00  0.39999999674E+01  0.40000000000E+01  0.51100000000E-03 0.  1.
    9000002   -1    0    0    0    0 -0.00000000000E+00 -0.00000000000E+00  0.00000000000E+00  0.93800000000E+00  0.93800000000E+00 0. -1.
         11    1    1    2    0    0  0.26667137171E-01  0.24330098604E-02  0.21159002797E-01  0.34132393152E-01  0.51100000000E-03 0.  1.
    9000002    1    1    2    0    0  0.17287823398E+00  0.10802173855E+00  0.42407046684E-01  0.96083189861E+00  0.93800000000E+00 0. -1.
         22    1    1    2    0    0 -0.19954537115E+00 -0.11045474841E+00  0.39364339179E+01  0.39430357082E+01  0.00000000000E+00 0.  1.
</event>
<event>
 5    1  0.3269840E+002  0.1580158E+01  0.7818608E-02  0.3375185E+00
         11   -1    0    0    0    0  0.00000000000E+00  0.00000000000E+00  0.39999999674E+01  0.40000000000E+01  0.51100000000E-03 0.  1.
    9000002   -1    0    0    0    0 -0.00000000000E+00 -0.00000000000E+00  0.00000000000E+00  0.93800000000E+00  0.93800000000E+00 0.  1.
         11    1    1    2    0    0 -0.87275045023E-01 -0.26224850548E-01  0.53668953360E+00  0.54437174143E+00  0.51100000000E-03 0.  1.
    9000002    1    1    2    0    0 -0.19632858796E+00  0.65032240882E-01  0.43138077236E-01  0.96149831020E+00  0.93800000000E+00 0.  1.
         22    1    1    2    0    0  0.28360363298E+00 -0.38807390334E-01  0.34201723565E+01  0.34321299484E+01  0.00000000000E+00 0.  1.
</event>
<event>
 5    1  0.3269840E+002  0.1598054E+01  0.7818608E-02  0.3355478E+00
         11   -1    0    0    0    0  0.00000000000E+00  0.00000000000E+00  0.39999999674E+01  0.40000000000E+01  0.51100000000E-03 0.  1.
    9000002   -1    0    0    0    0 -0.00000000000E+00 -0.00000000000E+00  0.00000000000E+00  0.93800000000E+00  0.93800000000E+00 0.  1.
         11    1    1    2    0    0  0.21963929962E-02  0.43744264478E-02  0.51847508260E+00  0.51849843987E+00  0.51100000000E-03 0.  1.
    9000002    1    1    2    0    0  0.15553406607E+00  0.14777297279E+00  0.31722288810E-01  0.96274503416E+00  0.93800000000E+00 0.  1.
         22    1    1    2    0    0 -0.15773045906E+00 -0.15214739924E+00  0.34498025959E+01  0.34567565260E+01  0.00000000000E+00 0.  1.
</event>
<event>
 5    1  0.3269840E+002  0.1599470E+01  0.7818608E-02  0.3353939E+00
         11   -1    0    0    0    0  0.00000000000E+00  0.00000000000E+00  0.39999999674E+01  0.40000000000E+01  0.51100000000E-03 0.  1.
    9000002   -1    0    0    0    0 -0.00000000000E+00 -0.00000000000E+00  0.00000000000E+00  0.93800000000E+00  0.93800000000E+00 0.  1.
         11    1    1    2    0    0 -0.13617770519E+00 -0.16280726095E+00  0.10498563434E+01  0.10710971825E+01  0.51100000000E-03 0.  1.
    9000002    1    1    2    0    0  0.41825555606E+00  0.56391454717E+00  0.35272150321E+00  0.12235987028E+01  0.93800000000E+00 0.  1.
         22    1    1    2    0    0 -0.28207785088E+00 -0.40110728622E+00  0.25974221208E+01  0.26433041147E+01  0.00000000000E+00 0. -1.
</event>
<event>
 5    1  0.3269840E+002  0.1589650E+01  0.7818608E-02  0.3364674E+00
         11   -1    0    0    0    0  0.00000000000E+00  0.00000000000E+00  0.39999999674E+01  0.40000000000E+01  0.51100000000E-03 0. -1.
    9000002   -1    0    0    0    0 -0.00000000000E+00 -0.00000000000E+00  0.00000000000E+00  0.93800000000E+00  0.93800000000E+00 0.  1.
         11    1    1    2    0    0 -0.22387927374E-01 -0.37535106147E+00  0.27516752108E+01  0.27772479842E+01  0.51100000000E-03 0. -1.
    9000002    1    1    2    0    0 -0.96883749452E-01  0.58284733995E+00  0.25303062676E+00  0.11370866197E+01  0.93800000000E+00 0.  1.
         22    1    1    2    0    0  0.11927167683E+00 -0.20749627848E+00  0.99529412979E+00  0.10236653961E+01  0.00000000000E+00 0. -1.
</event>
<event>
 5    1  0.3269840E+002  0.1598849E+01  0.7818608E-02  0.3354614E+00
         11   -1    0    0    0    0  0.00000000000E+00  0.00000000000E+00  0.39999999674E+01  0.40000000000E+01  0.51100000000E-03 0.  1.
    9000002   -1    0    0    0    0 -0.00000000000E+00 -0.00000000000E+00  0.00000000000E+00  0.93800000000E+00  0.93800000000E+00 0. -1.
         11    1    1    2    0    0  0.27428559257E-01  0.10507378013E-01  0.45478252425E+00  0.45573033292E+00  0.51100000000E-03 0.  1.
    9000002    1    1    2    0    0 -0.27344945276E+00  0.97370923117E-01  0.56803359138E-01  0.98352748894E+00  0.93800000000E+00 0. -1.
         22    1    1    2    0    0  0.24602089350E+00 -0.10787830113E+00  0.34884140840E+01  0.34987421781E+01  0.00000000000E+00 0.  1.
</event>
<event>
 5    1  0.3269840E+002  0.1599674E+01  0.7818608E-02  0.3353717E+00
         11   -1    0    0    0    0  0.00000000000E+00  0.00000000000E+00  0.39999999674E+01  0.40000000000E+01  0.51100000000E-03 0. -1.
    9000002   -1    0    0    0    0 -0.00000000000E+00 -0.00000000000E+00  0.00000000000E+00  0.93800000000E+00  0.93800000000E+00 0.  1.
         11    1    1    2    0    0 -0.84953251793E-01  0.82421039860E-01  0.10708488228E+01  0.10773707557E+01  0.51100000000E-03 0. -1.
    9000002    1    1    2    0    0  0.31315595795E+00 -0.30138026498E+00  0.12801363016E+00  0.10416948726E+01  0.93800000000E+00 0.  1.
         22    1    1    2    0    0 -0.22820270615E+00  0.21895922512E+00  0.28011375144E+01  0.28189343717E+01  0.00000000000E+00 0. -1.
</event>
<event>
 5    1  0.3269840E+002  0.1599677E+01  0.7818608E-02  0.3353715E+00
         11   -1    0    0    0    0  0.00000000000E+00  0.00000000000E+00  0.39999999674E+01  0.40000000000E+01  0.51100000000E-03 0. -1.
    9000002   -1    0    0    0    0 -0.00000000000E+00 -0.00000000000E+00  0.00000000000E+00  0.93800000000E+00  0.93800000000E+00 0.  1.
         11    1    1    2    0    0  0.65131177982E+00 -0.20172781415E+00  0.25782745243E+01  0.26669084966E+01  0.51100000000E-03 0. -1.
    9000002    1    1    2    0    0 -0.85621476522E+00  0.26538518864E+00  0.61408609235E+00  0.14354367807E+01  0.93800000000E+00 0.  1.
         22    1    1    2    0    0  0.20490298540E+00 -0.63657374490E-01  0.80763935075E+00  0.83565472274E+00  0.00000000000E+00 0.  1.
</event>
<event>
 5    1  0.3269840E+002  0.1599671E+01  0.7818608E-02  0.3353721E+00
         11   -1    0    0    0    0  0.00000000000E+00  0.00000000000E+00  0.39999999674E+01  0.40000000000E+01  0.51100000000E-03 0. -1.
    9000002   -1    0    0    0    0 -0.00000000000E+00 -0.00000000000E+00  0.00000000000E+00  0.93800000000E+00  0.93800000000E+00 0.  1.
         11    1    1    2    0    0 -0.13430175086E+00  0.30055224101E-01  0.11675663615E+01  0.11756494999E+01  0.51100000000E-03 0. -1.
    9000002    1    1    2    0    0  0.43545829987E+00 -0.99996072693E-01  0.13552229918E+00  0.10477754717E+01  0.93800000000E+00 0.  1.
         22    1    1    2    0    0 -0.30115654901E+00  0.69940848593E-01  0.26969113066E+01  0.27145750285E+01  0.00000000000E+00 0. -1.
</event>
<event>
 5    1  0.3269840E+002  0.1599667E+01  0.7818608E-02  0.3353724E+00
         11   -1    0    0    0    0  0.00000000000E+00  0.00000000000E+00  0.39999999674E+01  0.40000000000E+01  0.51100000000E-03 0. -1.
    9000002   -1    0    0    0    0 -0.00000000000E+00 -0.00000000000E+00  0.00000000000E+00  0.93800000000E+00  0.93800000000E+00 0.  1.
         11    1    1    2    0    0  0.47722613355E-01 -0.92403851087E-01  0.13244302338E+01  0.13285072920E+01  0.51100000000E-03 0. -1.
    9000002    1    1    2    0    0 -0.15017271394E+00  0.28051806092E+00  0.67665710471E-01  0.99280656469E+00  0.93800000000E+00 0.  1.
         22    1    1    2    0    0  0.10245010059E+00 -0.18811420984E+00  0.26079040231E+01  0.26166861433E+01  0.00000000000E+00 0. -1.
</event>
<event>
 5    1  0.3861878E+002  0.1561852E+01  0.7818608E-02  0.3395838E+00
         11   -1    0    0    0    0  0.00000000000E+00  0.00000000000E+00  0.39999999674E+01  0.40000000000E+01  0.51100000000E-03 0. -1.
    9000002   -1    0    0    0    0 -0.00000000000E+00 -0.00000000000E+00  0.00000000000E+00  0.93800000000E+00  0.93800000000E+00 0. -1.
         11    1    1    2    0    0  0.75740911786E-01  0.19702313905E+00  0.11715085295E+01  0.11903727563E+01  0.51100000000E-03 0. -1.
    9000002    1    1    2    0    0  0.10415339864E+00 -0.39411387522E-01  0.36376715099E-01  0.94528749770E+00  0.93800000000E+00 0. -1.
         22    1    1    2    0    0 -0.17989431043E+00 -0.15761175153E+00  0.27921147227E+01  0.28023397460E+01  0.00000000000E+00 0. -1.
</event>
<event>
 5    1  0.3269840E+002  0.1599677E+01  0.7818608E-02  0.3353714E+00
         11   -1    0    0    0    0  0.00000000000E+00  0.00000000000E+00  0.39999999674E+01  0.40000000000E+01  0.51100000000E-03 0.  1.
    9000002   -1    0    0    0    0 -0.00000000000E+00 -0.00000000000E+00  0.00000000000E+00  0.93800000000E+00  0.93800000000E+00 0. -1.
         11    1    1    2    0    0  0.67307322440E-01  0.82211572340E-01  0.82620037303E+00  0.83300440323E+00  0.51100000000E-03 0. -1.
    9000002    1    1    2    0    0 -0.31441311106E+00 -0.38142883469E+00  0.16710861793E+00  0.10733651990E+01  0.93800000000E+00 0. -1.
         22    1    1    2    0    0  0.24710578862E+00  0.29921726235E+00  0.30066909764E+01  0.30316303977E+01  0.00000000000E+00 0.  1.
</event>
<event>
 5    1  0.3269840E+002  0.1599589E+01  0.7818608E-02  0.3353810E+00
         11   -1    0    0    0    0  0.00000000000E+00  0.00000000000E+00  0.39999999674E+01  0.40000000000E+01  0.51100000000E-03 0.  1.
    9000002   -1    0    0    0    0 -0.00000000000E+00 -0.00000000000E+00  0.00000000000E+00  0.93800000000E+00  0.93800000000E+00 0. -1.
         11    1    1    2    0    0 -0.11113844486E+00  0.59785578459E-01  0.84237013790E+00  0.85177096667E+00  0.51100000000E-03 0.  1.
    9000002    1    1    2    0    0  0.53157349214E+00 -0.28602142360E+00  0.25451334883E+00  0.11441152377E+01  0.93800000000E+00 0. -1.
         22    1    1    2    0    0 -0.42043504728E+00  0.22623584514E+00  0.29031164806E+01  0.29421137957E+01  0.00000000000E+00 0.  1.
</event>
<event>
 5    1  0.3269840E+002  0.1599362E+01  0.7818608E-02  0.3354057E+00
         11   -1    0    0    0    0  0.00000000000E+00  0.00000000000E+00  0.39999999674E+01  0.40000000000E+01  0.51100000000E-03 0.  1.
    9000002   -1    0    0    0    0 -0.00000000000E+00 -0.00000000000E+00  0.00000000000E+00  0.93800000000E+00  0.93800000000E+00 0.  1.
         11    1    1    2    0    0  0.17464320154E+00 -0.88175504391E-01  0.20685340896E+01  0.20777653160E+01  0.51100000000E-03 0.  1.
    9000002    1    1    2    0    0 -0.36778049423E+00  0.15663324635E+00  0.10804484208E+00  0.10253361174E+01  0.93800000000E+00 0.  1.
         22    1    1    2    0    0  0.19313729269E+00 -0.68457741957E-01  0.18234210357E+01  0.18348985666E+01  0.00000000000E+00 0.  1.
</event>
<event>
 5    1  0.3269840E+002  0.1599676E+01  0.7818608E-02  0.3353715E+00
         11   -1    0    0    0    0  0.00000000000E+00  0.00000000000E+00  0.39999999674E+01  0.40000000000E+01  0.51100000000E-03 0. -1.
    9000002   -1    0    0    0    0 -0.00000000000E+00 -0.00000000000E+00  0.00000000000E+00  0.93800000000E+00  0.93800000000E+00 0.  1.
         11    1    1    2    0    0 -0.16929781339E-01  0.28798044650E-01  0.31780456108E+00  0.31955585589E+00  0.51100000000E-03 0.  1.
    9000002    1    1    2    0    0  0.21080425895E+00 -0.35116913386E+00  0.11329802516E+00  0.10297760138E+01  0.93800000000E+00 0.  1.
         22    1    1    2    0    0 -0.19387447761E+00  0.32237108921E+00  0.35688973811E+01  0.35886681303E+01  0.00000000000E+00 0. -1.
</event>
<event>
 5    1  0.3269840E+002  0.1573592E+01  0.7818608E-02  0.3382534E+00
         11   -1    0    0    0    0  0.00000000000E+00  0.00000000000E+00  0.39999999674E+01  0.40000000000E+01  0.51100000000E-03 0.  1.
    9000002   -1    0    0    0    0 -0.00000000000E+00 -0.00000000000E+00  0.00000000000E+00  0.93800000000E+00  0.93800000000E+00 0.  1.
         11    1    1    2    0    0  0.72263718357E-01  0.83136930979E-01  0.33585409494E+00  0.35345725130E+00  0.51100000000E-03 0.  1.
    9000002    1    1    2    0    0 -0.18941078993E+00  0.12852171074E+00  0.54778659249E-01  0.96707754549E+00  0.93800000000E+00 0.  1.
         22    1    1    2    0    0  0.11714707158E+00 -0.21165864172E+00  0.36093672132E+01  0.36174652032E+01  0.00000000000E+00 0.  1.
</event>
<event>
 5    1  0.3269840E+002  0.1599676E+01  0.7818608E-02  0.3353715E+00
         11   -1    0    0    0    0  0.00000000000E+00  0.00000000000E+00  0.39999999674E+01  0.40000000000E+01  0.51100000000E-03 0.  1.
    9000002   -1    0    0    0    0 -0.00000000000E+00 -0.00000000000E+00  0.00000000000E+00  0.93800000000E+00  0.93800000000E+00 0. -1.
         11    1    1    2    0    0  0.14268348277E+00  0.66634287783E-01  0.16783989800E+01  0.16857704772E+01  0.51100000000E-03 0.  1.
    9000002    1    1    2    0    0 -0.33001009755E+00 -0.15519524320E+00  0.89321184819E-01  0.10103536520E+01  0.93800000000E+00 0. -1.
         22    1    1    2    0    0  0.18732661478E+00  0.88560955416E-01  0.22322798025E+01  0.22418758708E+01  0.00000000000E+00 0. -1.
</event>
<event>
 5    1  0.3269840E+002  0.1587849E+01  0.7818608E-02  0.3366658E+00
         11   -1    0    0    0    0  0.00000000000E+00  0.00000000000E+00  0.39999999674E+01  0.40000000000E+01  0.51100000000E-03 0. -1.
    9000002   -1    0    0    0    0 -0.00000000000E+00 -0.00000000000E+00  0.00000000000E+00  0.93800000000E+00  0.93800000000E+00 0.  1.
         11    1    1    2    0    0  0.12115117167E-01 -0.86636117935E-01  0.59682135392E+00  0.60319862617E+00  0.51100000000E-03 0. -1.
    9000002    1    1    2    0    0  0.21477338404E+00  0.27464069840E-01  0.40039538115E-01  0.96349833743E+00  0.93800000000E+00 0.  1.
         22    1    1    2    0    0 -0.22688850121E+00  0.59172048096E-01  0.33631390753E+01  0.33713030364E+01  0.00000000000E+00 0. -1.
</event>
<event>
 5    1  0.3269840E+002  0.1599669E+01  0.7818608E-02  0.3353723E+00
         11   -1    0    0    0    0  0.00000000000E+00  0.00000000000E+00  0.39999999674E+01  0.40000000000E+01  0.51100000000E-03 0. -1.
    9000002   -1    0    0    0    0 -0.00000000000E+00 -0.00000000000E+00  0.00000000000E+00  0.93800000000E+00  0.93800000000E+00 0.  1.
         11    1    1    2    0    0  0.93504817926E-01  0.31318770823E-01  0.12533126509E+01  0.12571860954E+01  0.51100000000E-03 0. -1.
    9000002    1    1    2    0    0 -0.29705827630E+00 -0.10769893678E+00  0.66714750789E-01  0.99203706507E+00  0.93800000000E+00 0.  1.
         22    1    1    2    0    0  0.20355345837E+00  0.76380165961E-01  0.26799725657E+01  0.26887768396E+01  0.00000000000E+00 0. -1.
</event>
<event>
 5    1  0.3269840E+002  0.1554590E+01  0.7818608E-02  0.3404175E+00
         11   -1    0    0    0    0  0.00000000000E+00  0.00000000000E+00  0.39999999674E+01  0.40000000000E+01  0.51100000000E-03 0. -1.
    9000002   -1    0    0    0    0 -0.00000000000E+00 -0.00000000000E+00  0.00000000000E+00  0.93800000000E+00  0.93800000000E+00 0. -1.
         11    1    1    2    0    0 -0.53133768407E-01  0.15883604704E+00  0.25051796529E+01  0.25107722799E+01  0.51100000000E-03 0. -1.
    9000002    1    1    2    0    0 -0.55617053427E-01  0.11305214973E+00  0.44316918945E-01  0.94746083534E+00  0.93800000000E+00 0. -1.
         22    1    1    2    0    0  0.10875082183E+00 -0.27188819677E+00  0.14505033956E+01  0.14797668848E+01  0.00000000000E+00 0. -1.
</event>
<event>
 5    1  0.3661041E+002  0.1568885E+01  0.7818608E-02  0.3387843E+00
         11   -1    0    0    0    0  0.00000000000E+00  0.00000000000E+00  0.39999999674E+01  0.40000000000E+01  0.51100000000E-03 0.  1.
    9000002   -1    0    0    0    0 -0.00000000000E+00 -0.00000000000E+00  0.00000000000E+00  0.93800000000E+00  0.93800000000E+00 0. -1.
         11    1    1    2    0    0 -0.19984983342E+00  0.35538377602E-01  0.15306757209E+01  0.15440762144E+01  0.51100000000E-03 0.  1.
    9000002    1    1    2    0    0 -0.14152035284E-01 -0.12028003954E+00  0.32594736339E-01  0.94634770822E+00  0.93800000000E+00 0. -1.
         22    1    1    2    0    0  0.21400186870E+00  0.84741661940E-01  0.24367295102E+01  0.24475760774E+01  0.00000000000E+00 0.  1.
</event>
<event>
 5    1  0.3269840E+002  0.1599658E+01  0.7818608E-02  0.3353735E+00
         11   -1    0    0    0    0  0.00000000000E+00  0.00000000000E+00  0.39999999674E+01  0.40000000000E+01  0.51100000000E-03 0. -1.
    9000002   -1    0    0    0    0 -0.00000000000E+00 -0.00000000000E+00  0.00000000000E+00  0.93800000000E+00  0.93800000000E+00 0. -1.
         11    1    1    2    0    0 -0.80119915352E-01  0.11438722801E-02  0.98273289520E+00  0.98599427671E+00  0.51100000000E-03 0. -1.
    9000002    1    1    2    0    0  0.32033356767E+00  0.13611320860E-01  0.68730192067E-01  0.99366327392E+00  0.93800000000E+00 0. -1.
         22    1    1    2    0    0 -0.24021365232E+00 -0.14755193140E-01  0.29485368801E+01  0.29583424494E+01  0.00000000000E+00 0. -1.
</event>
<event>
 5    1  0.3269840E+002  0.1556535E+01  0.7818608E-02  0.3401934E+00
         11   -1    0    0    0    0  0.00000000000E+00  0.00000000000E+00  0.39999999674E+01  0.40000000000E+01  0.51100000000E-03 0. -1.
    9000002   -1    0    0    0    0 -0.00000000000E+00 -0.00000000000E+00  0.00000000000E+00  0.93800000000E+00  0.93800000000E+00 0.  1.
         11    1    1    2    0    0  0.10752792432E+00 -0.32318811218E-03  0.16837923757E+00  0.19978535413E+00  0.51100000000E-03 0. -1.
    9000002    1    1    2    0    0 -0.58823676748E-01  0.31081798591E+00  0.10174434166E+00  0.99512007133E+00  0.93800000000E+00 0.  1.
         22    1    1    2    0    0 -0.48704247569E-01 -0.31049479780E+00  0.37298763881E+01  0.37430945745E+01  0.00000000000E+00 0. -1.
</event>
<event>
 5    1  0.3269840E+002  0.1599675E+01  0.7818608E-02  0.3353716E+00
         11   -1    0    0    0    0  0.00000000000E+00  0.00000000000E+00  0.39999999674E+01  0.40000000000E+01  0.51100000000E-03 0.  1.
    9000002   -1    0    0    0    0 -0.00000000000E+00 -0.00000000000E+00  0.00000000000E+00  0.93800000000E+00  0.93800000000E+00 0.  1.
         11    1    1    2    0    0 -0.30852536014E+00  0.17798284630E+00  0.17074951043E+01  0.17442492895E+01  0.51100000000E-03 0.  1.
    9000002    1    1    2    0    0  0.65180110642E+00 -0.37558019351E+00  0.41052654684E+00  0.12705436670E+01  0.93800000000E+00 0.  1.
         22    1    1    2    0    0 -0.34327574628E+00  0.19759734721E+00  0.18819783162E+01  0.19232070435E+01  0.00000000000E+00 0.  1.
</event>
<event>
 5    1  0.3269840E+002  0.1599674E+01  0.7818608E-02  0.3353718E+00
         11   -1    0    0    0    0  0.00000000000E+00  0.00000000000E+00  0.39999999674E+01  0.40000000000E+01  0.51100000000E-03 0.  1.
    9000002   -1    0    0    0    0 -0.00000000000E+00 -0.00000000000E+00  0.00000000000E+00  0.93800000000E+00  0.93800000000E+00 0. -1.
         11    1    1    2    0    0  0.10709477800E+00 -0.15863082262E+00  0.10678894409E+01  0.10849060552E+01  0.51100000000E-03 0.  1.
    9000002    1    1    2    0    0 -0.36728698510E+00  0.55426889373E+00  0.31311863734E+00  0.11916379555E+01  0.93800000000E+00 0. -1.
         22    1    1    2    0    0  0.26019220711E+00 -0.39563807111E+00  0.26189918891E+01  0.26614559893E+01  0.00000000000E+00 0.  1.
</event>
<event>
 5    1  0.3269840E+002  0.1599676E+01  0.7818608E-02  0.3353715E+00
         11   -1    0    0    0    0  0.00000000000E+00  0.00000000000E+00  0.39999999674E+01  0.40000000000E+01  0.51100000000E-03 0. -1.
    9000002   -1    0    0    0    0 -0.00000000000E+00 -0.00000000000E+00  0.00000000000E+00  0.93800000000E+00  0.93800000000E+00 0. -1.
         11    1    1    2    0    0  0.19290182657E+00 -0.28042584131E+00  0.22250127771E+01  0.22508957964E+01  0.51100000000E-03 0. -1.
    9000002    1    1    2    0    0 -0.32556296443E+00  0.47437786117E+00  0.22977736004E+00  0.11241295451E+01  0.93800000000E+00 0. -1.
         22    1    1    2    0    0  0.13266113787E+00 -0.19395201986E+00  0.15452098302E+01  0.15629746585E+01  0.00000000000E+00 0.  1.
</event>
<event>
 5    1  0.3269840E+002  0.1598344E+01  0.7818608E-02  0.3355163E+00
         11   -1    0    0    0    0  0.00000000000E+00  0.00000000000E+00  0.39999999674E+01  0.40000000000E+01  0.51100000000E-03 0.  1.
    9000002   -1    0    0    0    0 -0.00000000000E+00 -0.00000000000E+00  0.00000000000E+00  0.93800000000E+00  0.93800000000E+00 0. -1.
         11    1    1    2    0    0 -0.14833884218E+00 -0.12811679946E+00  0.12988166098E+01  0.13135231911E+01  0.51100000000E-03 0.  1.
    9000002    1    1    2    0    0  0.31780501892E+00  0.35469906733E+00  0.15584242325E+00  0.10634577186E+01  0.93800000000E+00 0. -1.
         22    1    1    2    0    0 -0.16946617674E+00 -0.22658226787E+00  0.25453409343E+01  0.25610190903E+01  0.00000000000E+00 0. -1.
</event>
<event>
 5    1  0.3269840E+002  0.1597474E+01  0.7818608E-02  0.3356109E+00
         11   -1    0    0    0    0  0.00000000000E+00  0.00000000000E+00  0.39999999674E+01  0.40000000000E+01  0.51100000000E-03 0.  1.
    9000002   -1    0    0    0    0 -0.00000000000E+00 -0.00000000000E+00  0.00000000000E+00  0.93800000000E+00  0.93800000000E+00 0.  1.
         11    1    1    2    0    0  0.10939477333E-01  0.91564951875E-02  0.12462318129E+00  0.12543808036E+00  0.51100000000E-03 0.  1.
    9000002    1    1    2    0    0 -0.95879757499E-01  0.28320721245E+00  0.61358733428E-01  0.98641175340E+00  0.93800000000E+00 0.  1.
         22    1    1    2    0    0  0.84940280166E-01 -0.29236370763E+00  0.38140180526E+01  0.38261501662E+01  0.00000000000E+00 0.  1.
</event>
<event>
 5    1  0.3269840E+002  0.1599665E+01  0.7818608E-02  0.3353727E+00
         11   -1    0    0    0    0  0.00000000000E+00  0.00000000000E+00  0.39999999674E+01  0.40000000000E+01  0.51100000000E-03 0.  1.
    9000002   -1    0    0    0    0 -0.00000000000E+00 -0.00000000000E+00  0.00000000000E+00  0.93800000000E+00  0.93800000000E+00 0.  1.
         11    1    1    2    0    0  0.68683452062E-01 -0.45792361207E-01  0.86375376006E+00  0.86768956203E+00  0.51100000000E-03 0.  1.
    9000002    1    1    2    0    0 -0.30169749703E+00  0.22012210019E+00  0.93781048480E-01  0.10139595671E+01  0.93800000000E+00 0.  1.
         22    1    1    2    0    0  0.23301404497E+00 -0.17432973898E+00  0.30424651588E+01  0.30563508708E+01  0.00000000000E+00 0.  1.
</event>
<event>
 5    1  0.3269840E+002  0.1583796E+01  0.7818608E-02  0.3371141E+00
         11   -1    0    0    0    0  0.00000000000E+00  0.00000000000E+00  0.39999999674E+01  0.40000000000E+01  0.51100000000E-03 0. -1.
    9000002   -1    0    0    0    0 -0.00000000000E+00 -0.00000000000E+00  0.00000000000E+00  0.93800000000E+00  0.93800000000E+00 0.  1.
         11    1    1    2    0    0  0.81130453378E-02 -0.50591842770E-01  0.26890995445E+01  0.26895876965E+01  0.51100000000E-03 0. -1.
    9000002    1    1    2    0    0  0.19683699566E+00  0.83102074518E-01  0.42304239875E-01  0.96295607707E+00  0.93800000000E+00 0.  1.
         22    1    1    2    0    0 -0.20495004100E+00 -0.32510231747E-01  0.12685961830E+01  0.12854562264E+01  0.00000000000E+00 0.  1.
</event>
<event>
 5    1  0.3269840E+002  0.1575096E+01  0.7818608E-02  0.3380845E+00
         11   -1    0    0    0    0  0.00000000000E+00  0.00000000000E+00  0.39999999674E+01  0.40000000000E+01  0.51100000000E-03 0. -1.
    9000002   -1    0    0    0    0 -0.00000000000E+00 -0.00000000000E+00  0.00000000000E+00  0.93800000000E+00  0.93800000000E+00 0. -1.
         11    1    1    2    0    0 -0.15016413991E+00 -0.68676632257E-02  0.11171285147E+01  0.11271968831E+01  0.51100000000E-03 0. -1.
    9000002    1    1    2    0    0 -0.39146793229E-02 -0.24991095994E+00  0.60524595031E-01  0.97261402376E+00  0.93800000000E+00 0. -1.
         22    1    1    2    0    0  0.15407881924E+00  0.25677862317E+00  0.28223468576E+01  0.28381890931E+01  0.00000000000E+00 0. -1.
</event>
<event>
 5    1  0.3269840E+002  0.1599579E+01  0.7818608E-02  0.3353820E+00
         11   -1    0    0    0    0  0.00000000000E+00  0.00000000000E+00  0.39999999674E+01  0.40000000000E+01  0.51100000000E-03 0. -1.
    9000002   -1    0    0    0    0 -0.00000000000E+00 -0.00000000000E+00  0.00000000000E+00  0.93800000000E+00  0.93800000000E+00 0.  1.
         11    1    1    2    0    0  0.33001098416E-01  0.96159181258E-01  0.12451680260E+01  0.12493115443E+01  0.51100000000E-03 0. -1.
    9000002    1    1    2    0    0 -0.13674308431E+00 -0.29096044635E+00  0.69171249855E-01  0.99397450382E+00  0.93800000000E+00 0.  1.
         22    1    1    2    0    0  0.10374198590E+00  0.19480126509E+00  0.26856606915E+01  0.26947139518E+01  0.00000000000E+00 0. -1.
</event>
<event>
 5    1  0.3269840E+002  0.1571812E+01  0.7818608E-02  0.3384538E+00
         11   -1    0    0    0    0  0.00000000000E+00  0.00000000000E+00  0.39999999674E+01  0.40000000000E+01  0.51100000000E-03 0. -1.
    9000002   -1    0    0    0    0 -0.00000000000E+00 -0.00000000000E+00  0.00000000000E+00  0.93800000000E+00  0.93800000000E+00 0. -1.
         11    1    1    2    0    0 -0.20799381675E+00 -0.50702911255E-01  0.11606795587E+01  0.11802582396E+01  0.51100000000E-03 0. -1.
    9000002    1    1    2    0    0  0.17046697936E+00  0.49246166789E+00  0.21264116654E+00  0.10939093889E+01  0.93800000000E+00 0. -1.
         22    1    1    2    0    0  0.37526837395E-01 -0.44175875663E+00  0.26266792421E+01  0.26638323715E+01  0.00000000000E+00 0. -1.
</event>
<event>
 5    1  0.3269840E+002  0.1599370E+01  0.7818608E-02  0.3354047E+00
         11   -1    0    0    0    0  0.00000000000E+00  0.00000000000E+00  0.39999999674E+01  0.40000000000E+01  0.51100000000E-03 0.  1.
    9000002   -1    0    0    0    0 -0.00000000000E+00 -0.00000000000E+00  0.00000000000E+00  0.93800000000E+00  0.93800000000E+00 0.  1.
         11    1    1    2    0    0 -0.34926872916E-02 -0.92790336460E-02  0.95328561602E-01  0.95844118797E-01  0.51100000000E-03 0.  1.
    9000002    1    1    2    0    0 -0.66517801132E-01  0.22157496994E+00  0.35736551323E-01  0.96676842433E+00  0.93800000000E+00 0.  1.
         22    1    1    2    0    0  0.70010488424E-01 -0.21229593630E+00  0.38689348544E+01  0.38753874569E+01  0.00000000000E+00 0.  1.
</event>
<event>
 5    1  0.3269840E+002  0.1599671E+01  0.7818608E-02  0.3353720E+00
         11   -1    0    0    0    0  0.00000000000E+00  0.00000000000E+00  0.39999999674E+01  0.40000000000E+01  0.51100000000E-03 0. -1.
    9000002   -1    0    0    0    0 -0.00000000000E+00 -0.00000000000E+00  0.00000000000E+00  0.93800000000E+00  0.93800000000E+00 0. -1.
         11    1    1    2    0    0  0.41838525694E-01  0.19783048839E+00  0.13316899562E+01  0.13469542550E+01  0.51100000000E-03 0. -1.
    9000002    1    1    2    0    0 -0.11127109729E+00 -0.56287139385E+00  0.22844594027E+00  0.11230480892E+01  0.93800000000E+00 0. -1.
         22    1    1    2    0    0  0.69432571592E-01  0.36504090546E+00  0.24398640709E+01  0.24679976558E+01  0.00000000000E+00 0. -1.
</event>
<event>
 5    1  0.3269840E+002  0.1598735E+01  0.7818608E-02  0.3354737E+00
         11   -1    0    0    0    0  0.00000000000E+00  0.00000000000E+00  0.39999999674E+01  0.40000000000E+01  0.51100000000E-03 0. -1.
    9000002   -1    0    0    0    0 -0.00000000000E+00 -0.00000000000E+00  0.00000000000E+00  0.93800000000E+00  0.93800000000E+00 0. -1.
         11    1    1    2    0    0  0.10068698534E-01 -0.83932991430E-02  0.11249634675E+00  0.11325862137E+00  0.51100000000E-03 0. -1.
    9000002    1    1    2    0    0  0.73046090158E-01  0.23319745529E+00  0.40370730201E-01  0.97014977210E+00  0.93800000000E+00 0. -1.
         22    1    1    2    0    0 -0.83114788692E-01 -0.22480415615E+00  0.38471328904E+01  0.38545916065E+01  0.00000000000E+00 0. -1.
</event>
<event>
 5    1  0.3269840E+002  0.1599654E+01  0.7818608E-02  0.3353740E+00
         11   -1    0    0    0    0  0.00000000000E+00  0.00000000000E+00  0.39999999674E+01  0.40000000000E+01  0.51100000000E-03 0. -1.
    9000002   -1    0    0    0    0 -0.00000000000E+00 -0.00000000000E+00  0.00000000000E+00  0.93800000000E+00  0.93800000000E+00 0.  1.
         11    1    1    2    0    0  0.19839374185E-01  0.37896008328E-02  0.27713686745E+00  0.27787239205E+00  0.51100000000E-03 0. -1.
    9000002    1    1    2    0    0 -0.24376363927E+00 -0.39977013613E-01  0.40542974006E-01  0.97082779430E+00  0.93800000000E+00 0.  1.
         22    1    1    2    0    0  0.22392426509E+00  0.36187412780E-01  0.36823201259E+01  0.36892998136E+01  0.00000000000E+00 0. -1.
</event>
<event>
 5    1  0.3269840E+002  0.1599631E+01  0.7818608E-02  0.3353764E+00
         11   -1    0    0    0    0  0.00000000000E+00  0.00000000000E+00  0.39999999674E+01  0.40000000000E+01  0.51100000000E-03 0. -1.
    9000002   -1    0    0    0    0 -0.00000000000E+00 -0.00000000000E+00  0.00000000000E+00  0.93800000000E+00  0.93800000000E+00 0. -1.
         11    1    1    2    0    0 -0.59055297521E-01  0.36045245701E-01  0.67354893514E+00  0.67709321150E+00  0.51100000000E-03 0. -1.
    9000002    1    1    2    0    0  0.34006958112E+00 -0.17301613791E+00  0.98009869785E-01  0.10173651451E+01  0.93800000000E+00 0. -1.
         22    1    1    2    0    0 -0.28101428360E+00  0.13697089221E+00  0.32284411624E+01  0.32435416434E+01  0.00000000000E+00 0. -1.
</event>
<event>
 5    1  0.3269840E+002  0.1599671E+01  0.7818608E-02  0.3353721E+00
         11   -1    0    0    0    0  0.00000000000E+00  0.00000000000E+00  0.39999999674E+01  0.40000000000E+01  0.51100000000E-03 0. -1.
    9000002   -1    0    0    0    0 -0.00000000000E+00 -0.00000000000E+00  0.00000000000E+00  0.93800000000E+00  0.93800000000E+00 0. -1.
         11    1    1    2    0    0  0.16606482628E-01 -0.81879176896E-01  0.10350011140E+01  0.10383677296E+01  0.51100000000E-03 0. -1.
    9000002    1    1    2    0    0 -0.68416199163E-01  0.31945203496E+00  0.71392009237E-01  0.99582689155E+00  0.93800000000E+00 0. -1.
         22    1    1    2    0    0  0.51809716535E-01 -0.23757285806E+00  0.28936068442E+01  0.29038053789E+01  0.00000000000E+00 0. -1.
</event>
<event>
 5    1  0.3269840E+002  0.1533284E+01  0.7818608E-02  0.3429118E+00
         11   -1    0    0    0    0  0.00000000000E+00  0.00000000000E+00  0.39999999674E+01  0.40000000000E+01  0.51100000000E-03 0. -1.
    9000002   -1    0    0    0    0 -0.00000000000E+00 -0.00000000000E+00  0.00000000000E+00  0.93800000000E+00  0.93800000000E+00 0. -1.
         11    1    1    2    0    0  0.31645041059E+00  0.47071382527E-01  0.14518471432E+01  0.14866798464E+01  0.51100000000E-03 0. -1.
    9000002    1    1    2    0    0 -0.47083898532E-01 -0.18259388149E+00  0.74834252966E-01  0.95968827464E+00  0.93800000000E+00 0. -1.
         22    1    1    2    0    0 -0.26936651206E+00  0.13552249897E+00  0.24733185712E+01  0.24916318789E+01  0.00000000000E+00 0. -1.
</event>
<event>
 5    1  0.3269840E+002  0.1599677E+01  0.7818608E-02  0.3353714E+00
         11   -1    0    0    0    0  0.00000000000E+00  0.00000000000E+00  0.39999999674E+01  0.40000000000E+01  0.51100000000E-03 0. -1.
    9000002   -1    0    0    0    0 -0.00000000000E+00 -0.00000000000E+00  0.00000000000E+00  0.93800000000E+00  0.93800000000E+00 0. -1.
         11    1    1    2    0    0 -0.54508778332E-01 -0.78971760220E-01  0.88483426636E+00  0.89002229515E+00  0.51100000000E-03 0.  1.
    9000002    1    1    2    0    0  0.23837086082E+00  0.34658064334E+00  0.11967501492E+00  0.10349419881E+01  0.93800000000E+00 0. -1.
         22    1    1    2    0    0 -0.18386208249E+00 -0.26760888312E+00  0.29954906861E+01  0.30130357167E+01  0.00000000000E+00 0. -1.
</event>
<event>
 5    1  0.3269840E+002  0.1599667E+01  0.7818608E-02  0.3353724E+00
         11   -1    0    0    0    0  0.00000000000E+00  0.00000000000E+00  0.39999999674E+01  0.40000000000E+01  0.51100000000E-03 0.  1.
    9000002   -1    0    0    0    0 -0.00000000000E+00 -0.00000000000E+00  0.00000000000E+00  0.93800000000E+00  0.93800000000E+00 0. -1.
         11    1    1    2    0    0  0.10362840292E+00 -0.61934236487E-02  0.84999125137E+00  0.85630753408E+00  0.51100000000E-03 0.  1.
    9000002    1    1    2    0    0 -0.48171956818E+00  0.31841020403E-01  0.15910538359E+00  0.10668768045E+01  0.93800000000E+00 0. -1.
         22    1    1    2    0    0  0.37809116527E+00 -0.25647596754E-01  0.29909033324E+01  0.30148156614E+01  0.00000000000E+00 0.  1.
</event>
<event>
 5    1  0.3269840E+002  0.1599677E+01  0.7818608E-02  0.3353714E+00
         11   -1    0    0    0    0  0.00000000000E+00  0.00000000000E+00  0.39999999674E+01  0.40000000000E+01  0.51100000000E-03 0. -1.
    9000002   -1    0    0    0    0 -0.00000000000E+00 -0.00000000000E+00  0.00000000000E+00  0.93800000000E+00  0.93800000000E+00 0.  1.
         11    1    1    2    0    0  0.62248793776E-01 -0.19943042441E-01  0.80497371074E+00  0.80762341061E+00  0.51100000000E-03 0. -1.
    9000002    1    1    2    0    0 -0.30466455747E+00  0.99676536543E-01  0.68686177069E-01  0.99363861410E+00  0.93800000000E+00 0.  1.
         22    1    1    2    0    0  0.24241576370E+00 -0.79733494102E-01  0.31263400796E+01  0.31367379753E+01  0.00000000000E+00 0. -1.
</event>
<event>
 5    1  0.3269840E+002  0.1599551E+01  0.7818608E-02  0.3353851E+00
         11   -1    0    0    0    0  0.00000000000E+00  0.00000000000E+00  0.39999999674E+01  0.40000000000E+01  0.51100000000E-03 0.  1.
    9000002   -1    0    0    0    0 -0.00000000000E+00 -0.00000000000E+00  0.00000000000E+00  0.93800000000E+00  0.93800000000E+00 0. -1.
         11    1    1    2    0    0 -0.14203832736E-01 -0.11087519054E-01  0.34943077384E+00  0.34989542548E+00  0.51100000000E-03 0.  1.
    9000002    1    1    2    0    0  0.24451616402E+00  0.10302085396E+00  0.46920858346E-01  0.97593392080E+00  0.93800000000E+00 0. -1.
         22    1    1    2    0    0 -0.23031233129E+00 -0.91933334906E-01  0.36036483352E+01  0.36121706537E+01  0.00000000000E+00 0.  1.
</event>
<event>
 5    1  0.3269840E+002  0.1599671E+01  0.7818608E-02  0.3353721E+00
         11   -1    0    0    0    0  0.00000000000E+00  0.00000000000E+00  0.39999999674E+01  0.40000000000E+01  0.51100000000E-03 0.  1.
    9000002   -1    0    0    0    0 -0.00000000000E+00 -0.00000000000E+00  0.00000000000E+00  0.93800000000E+00  0.93800000000E+00 0.  1.
         11    1    1    2    0    0 -0.13598654344E-01 -0.54254854253E-01  0.76477992476E+00  0.76682273508E+00  0.51100000000E-03 0.  1.
    9000002    1    1    2    0    0  0.61550070655E-01  0.27146100789E+00  0.51592365342E-01  0.97978837621E+00  0.93800000000E+00 0.  1.
         22    1    1    2    0    0 -0.47951416311E-01 -0.21720615364E+00  0.31836276773E+01  0.31913888887E+01  0.00000000000E+00 0.  1.
</event>
<event>
 5    1  0.3269840E+002  0.1599672E+01  0.7818608E-02  0.3353720E+00
         11   -1    0    0    0    0  0.00000000000E+00  0.00000000000E+00  0.39999999674E+01  0.40000000000E+01  0.51100000000E-03 0.  1.
    9000002   -1    0    0    0    0 -0.00000000000E+00 -0.00000000000E+00  0.00000000000E+00  0.93800000000E+00  0.93800000000E+00 0. -1.
         11    1    1    2    0    0 -0.23596970859E-01  0.40335518421E-02  0.37428271981E+00  0.37504786634E+00  0.51100000000E-03 0.  1.
    9000002    1    1    2    0    0  0.23697506818E+00 -0.31891666673E-01  0.37953478850E-01  0.96874079500E+00  0.93800000000E+00 0. -1.
         22    1    1    2    0    0 -0.21337809732E+00  0.27858114831E-01  0.35877637687E+01  0.35942113387E+01  0.00000000000E+00 0.  1.
</event>
<event>
 5    1  0.3269840E+002  0.1599639E+01  0.7818608E-02  0.3353755E+00
         11   -1    0    0    0    0  0.00000000000E+00  0.00000000000E+00  0.39999999674E+01  0.40000000000E+01  0.51100000000E-03 0. -1.
    9000002   -1    0    0    0    0 -0.00000000000E+00 -0.00000000000E+00  0.00000000000E+00  0.93800000000E+00  0.93800000000E+00 0. -1.
         11    1    1    2    0    0 -0.31729985425E-01  0.65430511235E-01  0.77468886579E+00  0.77809449534E+00  0.51100000000E-03 0. -1.
    9000002    1    1    2    0    0  0.18901453952E+00 -0.32379014783E+00  0.94552024352E-01  0.10145691900E+01  0.93800000000E+00 0. -1.
         22    1    1    2    0    0 -0.15728455409E+00  0.25835963659E+00  0.31307590772E+01  0.31453363147E+01  0.00000000000E+00 0. -1.
</event>
<event>
 5    1  0.3269840E+002  0.1599675E+01  0.7818608E-02  0.3353716E+00
         11   -1    0    0    0    0  0.00000000000E+00  0.00000000000E+00  0.39999999674E+01  0.40000000000E+01  0.51100000000E-03 0.  1.
    9000002   -1    0    0    0    0 -0.00000000000E+00 -0.00000000000E+00  0.00000000000E+00  0.93800000000E+00  0.93800000000E+00 0. -1.
         11    1    1    2    0    0 -0.69283511437E-01 -0.40247060593E-01  0.47697575211E+00  0.48365913624E+00  0.51100000000E-03 0.  1.
    9000002    1    1    2    0    0  0.53453096012E+00  0.31927358803E+00  0.27181730718E+00  0.11581828957E+01  0.93800000000E+00 0. -1.
         22    1    1    2    0    0 -0.46524744869E+00 -0.27902652744E+00  0.32512069081E+01  0.32961579681E+01  0.00000000000E+00 0.  1.
</event>
<event>
 5    1  0.3269840E+002  0.1599628E+01  0.7818608E-02  0.3353767E+00
         11   -1    0    0    0    0  0.00000000000E+00  0.00000000000E+00  0.39999999674E+01  0.40000000000E+01  0.51100000000E-03 0. -1.
    9000002   -1    0    0    0    0 -0.00000000000E+00 -0.00000000000E+00  0.00000000000E+00  0.93800000000E+00  0.93800000000E+00 0. -1.
         11    1    1    2    0    0 -0.15406462408E-01 -0.65401828372E-02  0.28667344939E+00  0.28716208104E+00  0.51100000000E-03 0. -1.
    9000002    1    1    2    0    0  0.19659893312E+00  0.14794574159E+00  0.40240640088E-01  0.97056807699E+00  0.93800000000E+00 0. -1.
         22    1    1    2    0    0 -0.18119247072E+00 -0.14140555875E+00  0.36730858779E+01  0.36802698420E+01  0.00000000000E+00 0. -1.
</event>
<event>
 5    1  0.3269840E+002  0.1599677E+01  0.7818608E-02  0.3353714E+00
         11   -1    0    0    0    0  0.00000000000E+00  0.00000000000E+00  0.39999999674E+01  0.40000000000E+01  0.51100000000E-03 0.  1.
    9000002   -1    0    0    0    0 -0.00000000000E+00 -0.00000000000E+00  0.00000000000E+00  0.93800000000E+00  0.93800000000E+00 0. -1.
         11    1    1    2    0    0  0.70585128330E-01  0.36905310522E-01  0.10463590882E+01  0.10493864230E+01  0.51100000000E-03 0.  1.
    9000002    1    1    2    0    0 -0.26674473570E+00 -0.13999655521E+00  0.60548811715E-01  0.98704708504E+00  0.93800000000E+00 0. -1.
         22    1    1    2    0    0  0.19615960737E+00  0.10309124469E+00  0.28930920675E+01  0.29015664919E+01  0.00000000000E+00 0. -1.
</event>
<event>
 5    1  0.3269840E+002  0.1597060E+01  0.7818608E-02  0.3356561E+00
         11   -1    0    0    0    0  0.00000000000E+00  0.00000000000E+00  0.39999999674E+01  0.40000000000E+01  0.51100000000E-03 0. -1.
    9000002   -1    0    0    0    0 -0.00000000000E+00 -0.00000000000E+00  0.00000000000E+00  0.93800000000E+00  0.93800000000E+00 0. -1.
         11    1    1    2    0    0  0.69847541748E-01  0.37546093099E-01  0.63554756321E+00  0.64047588122E+00  0.51100000000E-03 0. -1.
    9000002    1    1    2    0    0 -0.15206966135E+00 -0.23529351441E+00  0.54298032707E-01  0.98044912983E+00  0.93800000000E+00 0. -1.
         22    1    1    2    0    0  0.82222119597E-01  0.19774742131E+00  0.33101543714E+01  0.33170749890E+01  0.00000000000E+00 0. -1.
</event>
<event>
 5    1  0.3269840E+002  0.1597507E+01  0.7818608E-02  0.3356074E+00
         11   -1    0    0    0    0  0.00000000000E+00  0.00000000000E+00  0.39999999674E+01  0.40000000000E+01  0.51100000000E-03 0. -1.
    9000002   -1    0    0    0    0 -0.00000000000E+00 -0.00000000000E+00  0.00000000000E+00  0.93800000000E+00  0.93800000000E+00 0. -1.
         11    1    1    2    0    0 -0.38042776386E-02  0.12920268768E-01  0.88859503589E-01  0.89875905406E-01  0.51100000000E-03 0. -1.
    9000002    1    1    2    0    0  0.23247263893E+00  0.16263337136E+00  0.55305608853E-01  0.98152730563E+00  0.93800000000E+00 0. -1.
         22    1    1    2    0    0 -0.22866836129E+00 -0.17555364013E+00  0.38558348549E+01  0.38665967890E+01  0.00000000000E+00 0. -1.
</event>
<event>
 5    1  0.3269840E+002  0.1594285E+01  0.7818608E-02  0.3359590E+00
         11   -1    0    0    0    0  0.00000000000E+00  0.00000000000E+00  0.39999999674E+01  0.40000000000E+01  0.51100000000E-03 0. -1.
    9000002   -1    0    0    0    0 -0.00000000000E+00 -0.00000000000E+00  0.00000000000E+00  0.93800000000E+00  0.93800000000E+00 0. -1.
         11    1    1    2    0    0 -0.15903050777E+00  0.32132331405E-01  0.13845163789E+01  0.13939903349E+01  0.51100000000E-03 0. -1.
    9000002    1    1    2    0    0  0.30557435961E+00 -0.28151169466E+00  0.12122588621E+00  0.10330364171E+01  0.93800000000E+00 0. -1.
         22    1    1    2    0    0 -0.14654385185E+00  0.24937936326E+00  0.24942577022E+01  0.25109732480E+01  0.00000000000E+00 0. -1.
</event>
<event>
 5    1  0.3269840E+002  0.1599676E+01  0.7818608E-02  0.3353715E+00
         11   -1    0    0    0    0  0.00000000000E+00  0.00000000000E+00  0.39999999674E+01  0.40000000000E+01  0.51100000000E-03 0.  1.
    9000002   -1    0    0    0    0 -0.00000000000E+00 -0.00000000000E+00  0.00000000000E+00  0.93800000000E+00  0.93800000000E+00 0. -1.
         11    1    1    2    0    0 -0.55379292862E-01  0.27703073854E-01  0.78002288445E+00  0.78247702060E+00  0.51100000000E-03 0.  1.
    9000002    1    1    2    0    0  0.27560096105E+00 -0.14003986878E+00  0.63809671964E-01  0.98968819778E+00  0.93800000000E+00 0. -1.
         22    1    1    2    0    0 -0.22022166819E+00  0.11233679493E+00  0.31561674109E+01  0.31658347816E+01  0.00000000000E+00 0. -1.
</event>
<event>
 5    1  0.3269840E+002  0.1599677E+01  0.7818608E-02  0.3353714E+00
         11   -1    0    0    0    0  0.00000000000E+00  0.00000000000E+00  0.39999999674E+01  0.40000000000E+01  0.51100000000E-03 0.  1.
    9000002   -1    0    0    0    0 -0.00000000000E+00 -0.00000000000E+00  0.00000000000E+00  0.93800000000E+00  0.93800000000E+00 0. -1.
         11    1    1    2    0    0  0.12125996775E-01  0.23372489406E+00  0.18649527291E+01  0.18795806204E+01  0.51100000000E-03 0.  1.
    9000002    1    1    2    0    0 -0.24920319384E-01 -0.48244288588E+00  0.15931304250E+00  0.10670505171E+01  0.93800000000E+00 0. -1.
         22    1    1    2    0    0  0.12794322609E-01  0.24871799182E+00  0.19757341958E+01  0.19913688625E+01  0.00000000000E+00 0.  1.
</event>
<event>
 5    1  0.3269840E+002  0.1599644E+01  0.7818608E-02  0.3353750E+00
         11   -1    0    0    0    0  0.00000000000E+00  0.00000000000E+00  0.39999999674E+01  0.40000000000E+01  0.51100000000E-03 0. -1.
    9000002   -1    0    0    0    0 -0.00000000000E+00 -0.00000000000E+00  0.00000000000E+00  0.93800000000E+00  0.93800000000E+00 0. -1.
         11    1    1    2    0    0 -0.32611922104E-01 -0.16214473379E-02  0.49729232864E+00  0.49836340937E+00  0.51100000000E-03 0. -1.
    9000002    1    1    2    0    0  0.28042468086E+00 -0.16367186516E-01  0.52574376107E-01  0.98056817787E+00  0.93800000000E+00 0. -1.
         22    1    1    2    0    0 -0.24781275876E+00  0.17988633854E-01  0.34501332626E+01  0.34590684128E+01  0.00000000000E+00 0. -1.
</event>
<event>
 5    1  0.3269840E+002  0.1599133E+01  0.7818608E-02  0.3354305E+00
         11   -1    0    0    0    0  0.00000000000E+00  0.00000000000E+00  0.39999999674E+01  0.40000000000E+01  0.51100000000E-03 0. -1.
    9000002   -1    0    0    0    0 -0.00000000000E+00 -0.00000000000E+00  0.00000000000E+00  0.93800000000E+00  0.93800000000E+00 0. -1.
         11    1    1    2    0    0 -0.40468537167E+00  0.10450043899E+00  0.20475426292E+01  0.20897659369E+01  0.51100000000E-03 0. -1.
    9000002    1    1    2    0    0  0.72322973676E+00 -0.22922695616E+00  0.41904391133E+00  0.12771249153E+01  0.93800000000E+00 0. -1.
         22    1    1    2    0    0 -0.31854436509E+00  0.12472651717E+00  0.15334134269E+01  0.15711091478E+01  0.00000000000E+00 0. -1.
</event>
<event>
 5    1  0.3269840E+002  0.1599676E+01  0.7818608E-02  0.3353715E+00
         11   -1    0    0    0    0  0.00000000000E+00  0.00000000000E+00  0.39999999674E+01  0.40000000000E+01  0.51100000000E-03 0. -1.
    9000002   -1    0    0    0    0 -0.00000000000E+00 -0.00000000000E+00  0.00000000000E+00  0.93800000000E+00  0.93800000000E+00 0. -1.
         11    1    1    2    0    0  0.59170942231E+00  0.39305132111E+00  0.24281702320E+01  0.25299447263E+01  0.51100000000E-03 0. -1.
    9000002    1    1    2    0    0 -0.79839573485E+00 -0.53181272462E+00  0.72426135290E+00  0.15246832559E+01  0.93800000000E+00 0. -1.
         22    1    1    2    0    0  0.20668631254E+00  0.13876140350E+00  0.84756838247E+00  0.88337201781E+00  0.00000000000E+00 0. -1.
</event>
<event>
 5    1  0.3269840E+002  0.1599675E+01  0.7818608E-02  0.3353717E+00
         11   -1    0    0    0    0  0.00000000000E+00  0.00000000000E+00  0.39999999674E+01  0.40000000000E+01  0.51100000000E-03 0.  1.
    9000002   -1    0    0    0    0 -0.00000000000E+00 -0.00000000000E+00  0.00000000000E+00  0.93800000000E+00  0.93800000000E+00 0. -1.
         11    1    1    2    0    0 -0.13090240455E+00  0.16387735842E+00  0.19582020994E+01  0.19694026890E+01  0.51100000000E-03 0.  1.
    9000002    1    1    2    0    0  0.26299021720E+00 -0.32372612672E+00  0.11760717806E+00  0.10332656521E+01  0.93800000000E+00 0. -1.
         22    1    1    2    0    0 -0.13208781265E+00  0.15984876830E+00  0.19241906899E+01  0.19353316589E+01  0.00000000000E+00 0. -1.
</event>
<event>
 5    1  0.3269840E+002  0.1599605E+01  0.7818608E-02  0.3353792E+00
         11   -1    0    0    0    0  0.00000000000E+00  0.00000000000E+00  0.39999999674E+01  0.40000000000E+01  0.51100000000E-03 0. -1.
    9000002   -1    0    0    0    0 -0.00000000000E+00 -0.00000000000E+00  0.00000000000E+00  0.93800000000E+00  0.93800000000E+00 0.  1.
         11    1    1    2    0    0  0.53862100184E-01 -0.17611458358E+00  0.10777795206E+01  0.10934013117E+01  0.51100000000E-03 0. -1.
    9000002    1    1    2    0    0 -0.18896824659E+00  0.57894391319E+00  0.25934151317E+00  0.11480361812E+01  0.93800000000E+00 0.  1.
         22    1    1    2    0    0  0.13510614640E+00 -0.40282932962E+00  0.26628789336E+01  0.26965625071E+01  0.00000000000E+00 0. -1.
</event>
<event>
 5    1  0.3269840E+002  0.1599630E+01  0.7818608E-02  0.3353765E+00
         11   -1    0    0    0    0  0.00000000000E+00  0.00000000000E+00  0.39999999674E+01  0.40000000000E+01  0.51100000000E-03 0. -1.
    9000002   -1    0    0    0    0 -0.00000000000E+00 -0.00000000000E+00  0.00000000000E+00  0.93800000000E+00  0.93800000000E+00 0.  1.
         11    1    1    2    0    0 -0.67208099907E-02  0.13975419227E-01  0.28373539892E+00  0.28415932036E+00  0.51100000000E-03 0. -1.
    9000002    1    1    2    0    0  0.41228331599E-01 -0.22199658460E+00  0.33842986968E-01  0.96538676533E+00  0.93800000000E+00 0.  1.
         22    1    1    2    0    0 -0.34507521609E-01  0.20802116537E+00  0.36824215815E+01  0.36884539143E+01  0.00000000000E+00 0. -1.
</event>
<event>
 5    1  0.3269840E+002  0.1585298E+01  0.7818608E-02  0.3369477E+00
         11   -1    0    0    0    0  0.00000000000E+00  0.00000000000E+00  0.39999999674E+01  0.40000000000E+01  0.51100000000E-03 0. -1.
    9000002   -1    0    0    0    0 -0.00000000000E+00 -0.00000000000E+00  0.00000000000E+00  0.93800000000E+00  0.93800000000E+00 0.  1.
         11    1    1    2    0    0  0.89186084101E-01 -0.12759257396E+00  0.45309764626E+00  0.47909473039E+00  0.51100000000E-03 0. -1.
    9000002    1    1    2    0    0 -0.47558875801E+00  0.30847392169E+00  0.23661404174E+00  0.11212363854E+01  0.93800000000E+00 0.  1.
         22    1    1    2    0    0  0.38640267390E+00 -0.18088134773E+00  0.33102882794E+01  0.33376688842E+01  0.00000000000E+00 0. -1.
</event>
<event>
 5    1  0.3269840E+002  0.1580120E+01  0.7818608E-02  0.3375227E+00
         11   -1    0    0    0    0  0.00000000000E+00  0.00000000000E+00  0.39999999674E+01  0.40000000000E+01  0.51100000000E-03 0.  1.
    9000002   -1    0    0    0    0 -0.00000000000E+00 -0.00000000000E+00  0.00000000000E+00  0.93800000000E+00  0.93800000000E+00 0. -1.
         11    1    1    2    0    0 -0.55890940820E-01  0.30131176516E-01  0.12597417080E+01  0.12613409995E+01  0.51100000000E-03 0.  1.
    9000002    1    1    2    0    0  0.24923282639E+00  0.38472058996E+00  0.16010108963E+00  0.10562212330E+01  0.93800000000E+00 0. -1.
         22    1    1    2    0    0 -0.19334188557E+00 -0.41485176647E+00  0.25801571697E+01  0.26204377675E+01  0.00000000000E+00 0.  1.
</event>
<event>
 5    1  0.3269840E+002  0.1599676E+01  0.7818608E-02  0.3353715E+00
         11   -1    0    0    0    0  0.00000000000E+00  0.00000000000E+00  0.39999999674E+01  0.40000000000E+01  0.51100000000E-03 0. -1.
    9000002   -1    0    0    0    0 -0.00000000000E+00 -0.00000000000E+00  0.00000000000E+00  0.93800000000E+00  0.93800000000E+00 0. -1.
         11    1    1    2    0    0 -0.72266410883E-01 -0.50570127950E-01  0.11131279894E+01  0.11166171922E+01  0.51100000000E-03 0. -1.
    9000002    1    1    2    0    0  0.25648246334E+00  0.17490857354E+00  0.64358382387E-01  0.99013244795E+00  0.93800000000E+00 0. -1.
         22    1    1    2    0    0 -0.18421605245E+00 -0.12433844559E+00  0.28225135955E+01  0.28312503598E+01  0.00000000000E+00 0. -1.
</event>
<event>
 5    1  0.3269840E+002  0.1599626E+01  0.7818608E-02  0.3353769E+00
         11   -1    0    0    0    0  0.00000000000E+00  0.00000000000E+00  0.39999999674E+01  0.40000000000E+01  0.51100000000E-03 0. -1.
    9000002   -1    0    0    0    0 -0.00000000000E+00 -0.00000000000E+00  0.00000000000E+00  0.93800000000E+00  0.93800000000E+00 0.  1.
         11    1    1    2    0    0  0.10531070443E-01 -0.13763143538E+00  0.12339260045E+01  0.12416227129E+01  0.51100000000E-03 0. -1.
    9000002    1    1    2    0    0 -0.58123903052E-01  0.43123581801E+00  0.12836595184E+00  0.10419522717E+01  0.93800000000E+00 0.  1.
         22    1    1    2    0    0  0.47592832609E-01 -0.29360438263E+00  0.26377080110E+01  0.26544250154E+01  0.00000000000E+00 0.  1.
</event>
<event>
 5    1  0.3269840E+002  0.1474819E+01  0.7818608E-02  0.3501545E+00
         11   -1    0    0    0    0  0.00000000000E+00  0.00000000000E+00  0.39999999674E+01  0.40000000000E+01  0.51100000000E-03 0. -1.
    9000002   -1    0    0    0    0 -0.00000000000E+00 -0.00000000000E+00  0.00000000000E+00  0.93800000000E+00  0.93800000000E+00 0.  1.
         11    1    1    2    0    0 -0.27148209725E+00  0.61900892850E+00  0.25180979970E+01  0.26072384560E+01  0.51100000000E-03 0. -1.
    9000002    1    1    2    0    0 -0.11614166735E+00 -0.65388069086E+00  0.46121221291E+00  0.12383899023E+01  0.93800000000E+00 0.  1.
         22    1    1    2    0    0  0.38762376460E+00  0.34871762365E-01  0.10206897574E+01  0.10923716417E+01  0.00000000000E+00 0. -1.
</event>
<event>
 5    1  0.3269840E+002  0.1472361E+01  0.7818608E-02  0.3504727E+00
         11   -1    0    0    0    0  0.00000000000E+00  0.00000000000E+00  0.39999999674E+01  0.40000000000E+01  0.51100000000E-03 0.  1.
    9000002   -1    0    0    0    0 -0.00000000000E+00 -0.00000000000E+00  0.00000000000E+00  0.93800000000E+00  0.93800000000E+00 0. -1.
         11    1    1    2    0    0  0.17173078035E+00  0.11408230681E+00  0.28402280038E+01  0.28477011094E+01  0.51100000000E-03 0.  1.
    9000002    1    1    2    0    0 -0.51675410526E-01  0.32766400201E+00  0.18305111760E+00  0.10116253051E+01  0.93800000000E+00 0. -1.
         22    1    1    2    0    0 -0.12005536982E+00 -0.44174630882E+00  0.97672084597E+00  0.10786735855E+01  0.00000000000E+00 0. -1.
</event>
<event>
 5    1  0.3269840E+002  0.1645101E+01  0.7818608E-02  0.3305822E+00
         11   -1    0    0    0    0  0.00000000000E+00  0.00000000000E+00  0.39999999674E+01  0.40000000000E+01  0.51100000000E-03 0.  1.
    9000002   -1    0    0    0    0 -0.00000000000E+00 -0.00000000000E+00  0.00000000000E+00  0.93800000000E+00  0.93800000000E+00 0.  1.
         11    1    1    2    0    0  0.48783586680E+00  0.39640250816E-01  0.26789070103E+00  0.55796135281E+00  0.51100000000E-03 0.  1.
    9000002    1    1    2    0    0 -0.31550806100E+00 -0.30043190608E+00  0.52892977637E+00  0.11616433941E+01  0.93800000000E+00 0.  1.
         22    1    1    2    0    0 -0.17232780580E+00  0.26079165527E+00  0.32031794900E+01  0.32183952531E+01  0.00000000000E+00 0.  1.
</event>
<event>
 5    1  0.3269840E+002  0.1571095E+01  0.7818608E-02  0.3385346E+00
         11   -1    0    0    0    0  0.00000000000E+00  0.00000000000E+00  0.39999999674E+01  0.40000000000E+01  0.51100000000E-03 0.  1.
    9000002   -1    0    0    0    0 -0.00000000000E+00 -0.00000000000E+00  0.00000000000E+00  0.93800000000E+00  0.93800000000E+00 0.  1.
         11    1    1    2    0    0  0.91896425361E-01 -0.11422548811E-01  0.16961568213E+01  0.16986829166E+01  0.51100000000E-03 0.  1.
    9000002    1    1    2    0    0  0.25193946464E+00 -0.25209022022E-01  0.64799718927E-01  0.97373096500E+00  0.93800000000E+00 0.  1.
         22    1    1    2    0    0 -0.34383589000E+00  0.36631570833E-01  0.22390434271E+01  0.22655861184E+01  0.00000000000E+00 0.  1.
</event>
<event>
 5    1  0.3269840E+002  0.1599102E+01  0.7818608E-02  0.3354339E+00
         11   -1    0    0    0    0  0.00000000000E+00  0.00000000000E+00  0.39999999674E+01  0.40000000000E+01  0.51100000000E-03 0. -1.
    9000002   -1    0    0    0    0 -0.00000000000E+00 -0.00000000000E+00  0.00000000000E+00  0.93800000000E+00  0.93800000000E+00 0. -1.
         11    1    1    2    0    0  0.43291250127E-02 -0.77340723999E-02  0.34369573430E+00  0.34381037811E+00  0.51100000000E-03 0. -1.
    9000002    1    1    2    0    0 -0.20305542370E+00 -0.19062164774E-01  0.27975162834E-01  0.96032363345E+00  0.93800000000E+00 0. -1.
         22    1    1    2    0    0  0.19872629869E+00  0.26796237174E-01  0.36283290702E+01  0.36338659884E+01  0.00000000000E+00 0. -1.
</event>
<event>
 5    1  0.3269840E+002  0.1599677E+01  0.7818608E-02  0.3353714E+00
         11   -1    0    0    0    0  0.00000000000E+00  0.00000000000E+00  0.39999999674E+01  0.40000000000E+01  0.51100000000E-03 0. -1.
    9000002   -1    0    0    0    0 -0.00000000000E+00 -0.00000000000E+00  0.00000000000E+00  0.93800000000E+00  0.93800000000E+00 0. -1.
         11    1    1    2    0    0  0.19963928076E-01 -0.10868659629E+00  0.12248172335E+01  0.12297921984E+01  0.51100000000E-03 0. -1.
    9000002    1    1    2    0    0 -0.63705966422E-01  0.34583808843E+00  0.82932344465E-01  0.10051786942E+01  0.93800000000E+00 0. -1.
         22    1    1    2    0    0  0.43742038346E-01 -0.23715149213E+00  0.26922503894E+01  0.27030291074E+01  0.00000000000E+00 0. -1.
</event>
<event>
 5    1  0.3269840E+002  0.1599677E+01  0.7818608E-02  0.3353714E+00
         11   -1    0    0    0    0  0.00000000000E+00  0.00000000000E+00  0.39999999674E+01  0.40000000000E+01  0.51100000000E-03 0.  1.
    9000002   -1    0    0    0    0 -0.00000000000E+00 -0.00000000000E+00  0.00000000000E+00  0.93800000000E+00  0.93800000000E+00 0.  1.
         11    1    1    2    0    0 -0.84975370690E-01  0.68899268864E-01  0.13753961968E+01  0.13797401503E+01  0.51100000000E-03 0. -1.
    9000002    1    1    2    0    0  0.24339656983E+00 -0.19749204716E+00  0.65624497228E-01  0.99115870250E+00  0.93800000000E+00 0.  1.
         22    1    1    2    0    0 -0.15842119914E+00  0.12859277830E+00  0.25589792733E+01  0.25671011472E+01  0.00000000000E+00 0.  1.
</event>
<event>
 5    1  0.3269840E+002  0.1549656E+01  0.7818608E-02  0.3409885E+00
         11   -1    0    0    0    0  0.00000000000E+00  0.00000000000E+00  0.39999999674E+01  0.40000000000E+01  0.51100000000E-03 0.  1.
    9000002   -1    0    0    0    0 -0.00000000000E+00 -0.00000000000E+00  0.00000000000E+00  0.93800000000E+00  0.93800000000E+00 0. -1.
         11    1    1    2    0    0  0.20190878400E+00 -0.19258422951E+00  0.12540334121E+01  0.12847007054E+01  0.51100000000E-03 0.  1.
    9000002    1    1    2    0    0 -0.15405962578E+00 -0.21237781307E-01  0.53900555392E-01  0.95233118269E+00  0.93800000000E+00 0. -1.
         22    1    1    2    0    0 -0.47849158228E-01  0.21382201082E+00  0.26920659998E+01  0.27009681120E+01  0.00000000000E+00 0.  1.
</event>
<event>
 5    1  0.3269840E+002  0.1597982E+01  0.7818608E-02  0.3355557E+00
         11   -1    0    0    0    0  0.00000000000E+00  0.00000000000E+00  0.39999999674E+01  0.40000000000E+01  0.51100000000E-03 0. -1.
    9000002   -1    0    0    0    0 -0.00000000000E+00 -0.00000000000E+00  0.00000000000E+00  0.93800000000E+00  0.93800000000E+00 0.  1.
         11    1    1    2    0    0 -0.86087811923E-01 -0.14599320149E-01  0.12162636187E+01  0.12193939899E+01  0.51100000000E-03 0. -1.
    9000002    1    1    2    0    0  0.24303994833E+00  0.19108890928E+00  0.65154620516E-01  0.98978407358E+00  0.93800000000E+00 0.  1.
         22    1    1    2    0    0 -0.15695213641E+00 -0.17648958913E+00  0.27185817282E+01  0.27288219365E+01  0.00000000000E+00 0. -1.
</event>
<event>
 5    1  0.3269840E+002  0.1599675E+01  0.7818608E-02  0.3353716E+00
         11   -1    0    0    0    0  0.00000000000E+00  0.00000000000E+00  0.39999999674E+01  0.40000000000E+01  0.51100000000E-03 0. -1.
    9000002   -1    0    0    0    0 -0.00000000000E+00 -0.00000000000E+00  0.00000000000E+00  0.93800000000E+00  0.93800000000E+00 0. -1.
         11    1    1    2    0    0 -0.19641435822E+00 -0.44939724286E-01  0.18758629035E+01  0.18866531406E+01  0.51100000000E-03 0. -1.
    9000002    1    1    2    0    0  0.40443562527E+00  0.95237045729E-01  0.11668634348E+00  0.10325202045E+01  0.93800000000E+00 0. -1.
         22    1    1    2    0    0 -0.20802126705E+00 -0.50297321443E-01  0.20074507204E+01  0.20188266550E+01  0.00000000000E+00 0. -1.
</event>
<event>
 5    1  0.3269840E+002  0.1541174E+01  0.7818608E-02  0.3419795E+00
         11   -1    0    0    0    0  0.00000000000E+00  0.00000000000E+00  0.39999999674E+01  0.40000000000E+01  0.51100000000E-03 0.  1.
    9000002   -1    0    0    0    0 -0.00000000000E+00 -0.00000000000E+00  0.00000000000E+00  0.93800000000E+00  0.93800000000E+00 0.  1.
         11    1    1    2    0    0 -0.90410454896E-03  0.12023854540E+00  0.17701693154E+00  0.21399387930E+00  0.51100000000E-03 0.  1.
    9000002    1    1    2    0    0  0.11634594639E+00  0.11661348511E+00  0.62606971115E-01  0.95441014086E+00  0.93800000000E+00 0.  1.
         22    1    1    2    0    0 -0.11544184184E+00 -0.23685203051E+00  0.37603760647E+01  0.37695959798E+01  0.00000000000E+00 0.  1.
</event>
<event>
 5    1  0.3269840E+002  0.1599445E+01  0.7818608E-02  0.3353966E+00
         11   -1    0    0    0    0  0.00000000000E+00  0.00000000000E+00  0.39999999674E+01  0.40000000000E+01  0.51100000000E-03 0. -1.
    9000002   -1    0    0    0    0 -0.00000000000E+00 -0.00000000000E+00  0.00000000000E+00  0.93800000000E+00  0.93800000000E+00 0.  1.
         11    1    1    2    0    0  0.66593872552E-01 -0.52853758733E-02  0.82595976812E+00  0.82865703324E+00  0.51100000000E-03 0. -1.
    9000002    1    1    2    0    0 -0.33234759107E+00  0.94226267229E-01  0.80161130286E-01  0.10027977451E+01  0.93800000000E+00 0.  1.
         22    1    1    2    0    0  0.26575371852E+00 -0.88940891356E-01  0.30938790690E+01  0.31065452217E+01  0.00000000000E+00 0. -1.
</event>
<event>
 5    1  0.3269840E+002  0.1598667E+01  0.7818608E-02  0.3354812E+00
         11   -1    0    0    0    0  0.00000000000E+00  0.00000000000E+00  0.39999999674E+01  0.40000000000E+01  0.51100000000E-03 0.  1.
    9000002   -1    0    0    0    0 -0.00000000000E+00 -0.00000000000E+00  0.00000000000E+00  0.93800000000E+00  0.93800000000E+00 0. -1.
         11    1    1    2    0    0 -0.36590789452E-02  0.21408726442E-02  0.69787688533E-01  0.69918200679E-01  0.51100000000E-03 0.  1.
    9000002    1    1    2    0    0 -0.34146369543E+00  0.31048799764E-01  0.79575359810E-01  0.10018671175E+01  0.93800000000E+00 0. -1.
         22    1    1    2    0    0  0.34512277437E+00 -0.33189672408E-01  0.38506369190E+01  0.38662146818E+01  0.00000000000E+00 0.  1.
</event>
<event>
 5    1  0.3269840E+002  0.1599676E+01  0.7818608E-02  0.3353715E+00
         11   -1    0    0    0    0  0.00000000000E+00  0.00000000000E+00  0.39999999674E+01  0.40000000000E+01  0.51100000000E-03 0. -1.
    9000002   -1    0    0    0    0 -0.00000000000E+00 -0.00000000000E+00  0.00000000000E+00  0.93800000000E+00  0.93800000000E+00 0.  1.
         11    1    1    2    0    0 -0.80955206044E-01  0.21622174991E-01  0.84900797642E+00  0.85313308984E+00  0.51100000000E-03 0. -1.
    9000002    1    1    2    0    0  0.37116757748E+00 -0.10335271379E+00  0.99946398561E-01  0.10189604686E+01  0.93800000000E+00 0.  1.
         22    1    1    2    0    0 -0.29021237144E+00  0.81730538798E-01  0.30510455924E+01  0.30659064415E+01  0.00000000000E+00 0. -1.
</event>
<event>
 5    1  0.3269840E+002  0.1599652E+01  0.7818608E-02  0.3353741E+00
         11   -1    0    0    0    0  0.00000000000E+00  0.00000000000E+00  0.39999999674E+01  0.40000000000E+01  0.51100000000E-03 0.  1.
    9000002   -1    0    0    0    0 -0.00000000000E+00 -0.00000000000E+00  0.00000000000E+00  0.93800000000E+00  0.93800000000E+00 0. -1.
         11    1    1    2    0    0 -0.11523659339E+00 -0.10447495612E+00  0.11837124873E+01  0.11938886056E+01  0.51100000000E-03 0.  1.
    9000002    1    1    2    0    0  0.35547404999E+00  0.34063613892E+00  0.16574358170E+00  0.10722451745E+01  0.93800000000E+00 0. -1.
         22    1    1    2    0    0 -0.24023745660E+00 -0.23616118281E+00  0.26505438983E+01  0.26718662199E+01  0.00000000000E+00 0.  1.
</event>
<event>
 5    1  0.3269840E+002  0.1599461E+01  0.7818608E-02  0.3353949E+00
         11   -1    0    0    0    0  0.00000000000E+00  0.00000000000E+00  0.39999999674E+01  0.40000000000E+01  0.51100000000E-03 0. -1.
    9000002   -1    0    0    0    0 -0.00000000000E+00 -0.00000000000E+00  0.00000000000E+00  0.93800000000E+00  0.93800000000E+00 0. -1.
         11    1    1    2    0    0 -0.21330964327E-01 -0.22277103651E+00  0.11582399486E+01  0.11796618094E+01  0.51100000000E-03 0. -1.
    9000002    1    1    2    0    0  0.47037028354E-01  0.74113415056E+00  0.39917064840E+00  0.12612190602E+01  0.93800000000E+00 0. -1.
         22    1    1    2    0    0 -0.25706064027E-01 -0.51836311405E+00  0.24425893703E+01  0.24971191305E+01  0.00000000000E+00 0. -1.
</event>
<event>
 5    1  0.3269840E+002  0.1450354E+01  0.7818608E-02  0.3533730E+00
         11   -1    0    0    0    0  0.00000000000E+00  0.00000000000E+00  0.39999999674E+01  0.40000000000E+01  0.51100000000E-03 0.  1.
    9000002   -1    0    0    0    0 -0.00000000000E+00 -0.00000000000E+00  0.00000000000E+00  0.93800000000E+00  0.93800000000E+00 0. -1.
         11    1    1    2    0    0 -0.35566260651E-01 -0.35257548970E-01 -0.48943026504E-01  0.70026670779E-01  0.51100000000E-03 0.  1.
    9000002    1    1    2    0    0  0.11401574549E+00  0.28399277214E+00  0.19565775510E+00  0.10058714838E+01  0.93800000000E+00 0. -1.
         22    1    1    2    0    0 -0.78449484841E-01 -0.24873522317E+00  0.38532852388E+01  0.38621018454E+01  0.00000000000E+00 0.  1.
</event>
<event>
 5    1  0.3269840E+002  0.1589186E+01  0.7818608E-02  0.3365185E+00
         11   -1    0    0    0    0  0.00000000000E+00  0.00000000000E+00  0.39999999674E+01  0.40000000000E+01  0.51100000000E-03 0. -1.
    9000002   -1    0    0    0    0 -0.00000000000E+00 -0.00000000000E+00  0.00000000000E+00  0.93800000000E+00  0.93800000000E+00 0.  1.
         11    1    1    2    0    0  0.89167434905E-01  0.55239882836E-01  0.11437343221E+01  0.11485341688E+01  0.51100000000E-03 0. -1.
    9000002    1    1    2    0    0 -0.12820914561E+00  0.15075932294E+00  0.33823232050E-01  0.95924656345E+00  0.93800000000E+00 0.  1.
         22    1    1    2    0    0  0.39041710708E-01 -0.20599920577E+00  0.28224424132E+01  0.28302192678E+01  0.00000000000E+00 0. -1.
</event>
<event>
 5    1  0.3269840E+002  0.1565229E+01  0.7818608E-02  0.3391989E+00
         11   -1    0    0    0    0  0.00000000000E+00  0.00000000000E+00  0.39999999674E+01  0.40000000000E+01  0.51100000000E-03 0.  1.
    9000002   -1    0    0    0    0 -0.00000000000E+00 -0.00000000000E+00  0.00000000000E+00  0.93800000000E+00  0.93800000000E+00 0.  1.
         11    1    1    2    0    0 -0.13749068220E+00  0.59700411287E-02  0.29811755216E+00  0.32834991261E+00  0.51100000000E-03 0.  1.
    9000002    1    1    2    0    0  0.21353734830E+00 -0.20666218180E+00  0.86322686068E-01  0.98772620834E+00  0.93800000000E+00 0.  1.
         22    1    1    2    0    0 -0.76046666102E-01  0.20069214067E+00  0.36155597291E+01  0.36219238791E+01  0.00000000000E+00 0.  1.
</event>
<event>
 5    1  0.3269840E+002  0.1591418E+01  0.7818608E-02  0.3362731E+00
         11   -1    0    0    0    0  0.00000000000E+00  0.00000000000E+00  0.39999999674E+01  0.40000000000E+01  0.51100000000E-03 0.  1.
    9000002   -1    0    0    0    0 -0.00000000000E+00 -0.00000000000E+00  0.00000000000E+00  0.93800000000E+00  0.93800000000E+00 0. -1.
         11    1    1    2    0    0  0.22503395225E-01  0.35750064193E-02  0.75320740312E-01  0.78693446422E-01  0.51100000000E-03 0.  1.
    9000002    1    1    2    0    0  0.29346873178E+00  0.39734604913E+00  0.17430631728E+00  0.10743530479E+01  0.93800000000E+00 0. -1.
         22    1    1    2    0    0 -0.31597212700E+00 -0.40092105555E+00  0.37503729098E+01  0.37849535057E+01  0.00000000000E+00 0.  1.
</event>
<event>
 5    1  0.3269840E+002  0.1583493E+01  0.7818608E-02  0.3371477E+00
         11   -1    0    0    0    0  0.00000000000E+00  0.00000000000E+00  0.39999999674E+01  0.40000000000E+01  0.51100000000E-03 0. -1.
    9000002   -1    0    0    0    0 -0.00000000000E+00 -0.00000000000E+00  0.00000000000E+00  0.93800000000E+00  0.93800000000E+00 0.  1.
         11    1    1    2    0    0 -0.70531982383E-01  0.50386903246E-01  0.11719069627E+01  0.11751084167E+01  0.51100000000E-03 0. -1.
    9000002    1    1    2    0    0 -0.67343411079E-01  0.18970841545E+00  0.39063336301E-01  0.96015330138E+00  0.93800000000E+00 0.  1.
         22    1    1    2    0    0  0.13787539346E+00 -0.24009531869E+00  0.27890296683E+01  0.28027382819E+01  0.00000000000E+00 0. -1.
</event>
<event>
 5    1  0.3269840E+002  0.1564414E+01  0.7818608E-02  0.3392917E+00
         11   -1    0    0    0    0  0.00000000000E+00  0.00000000000E+00  0.39999999674E+01  0.40000000000E+01  0.51100000000E-03 0.  1.
    9000002   -1    0    0    0    0 -0.00000000000E+00 -0.00000000000E+00  0.00000000000E+00  0.93800000000E+00  0.93800000000E+00 0. -1.
         11    1    1    2    0    0 -0.17862244519E+00 -0.60813660273E+00  0.27484384247E+01  0.28205762072E+01  0.51100000000E-03 0.  1.
    9000002    1    1    2    0    0 -0.43597721155E-02  0.71652908861E+00  0.41022774889E+00  0.12496254432E+01  0.93800000000E+00 0. -1.
         22    1    1    2    0    0  0.18298221731E+00 -0.10839248588E+00  0.84133379379E+00  0.86779834951E+00  0.00000000000E+00 0.  1.
</event>
<event>
 5    1  0.3269840E+002  0.1599667E+01  0.7818608E-02  0.3353725E+00
         11   -1    0    0    0    0  0.00000000000E+00  0.00000000000E+00  0.39999999674E+01  0.40000000000E+01  0.51100000000E-03 0. -1.
    9000002   -1    0    0    0    0 -0.00000000000E+00 -0.00000000000E+00  0.00000000000E+00  0.93800000000E+00  0.93800000000E+00 0. -1.
         11    1    1    2    0    0  0.13767814496E+00 -0.13219054824E-01  0.15170482638E+01  0.15233403135E+01  0.51100000000E-03 0. -1.
    9000002    1    1    2    0    0 -0.35303269473E+00  0.43356011231E-01  0.84889166721E-01  0.10067581626E+01  0.93800000000E+00 0.  1.
         22    1    1    2    0    0  0.21535454977E+00 -0.30136956407E-01  0.23980625368E+01  0.24079015239E+01  0.00000000000E+00 0. -1.
</event>
<event>
 5    1  0.3269840E+002  0.1599673E+01  0.7818608E-02  0.3353718E+00
         11   -1    0    0    0    0  0.00000000000E+00  0.00000000000E+00  0.39999999674E+01  0.40000000000E+01  0.51100000000E-03 0. -1.
    9000002   -1    0    0    0    0 -0.00000000000E+00 -0.00000000000E+00  0.00000000000E+00  0.93800000000E+00  0.93800000000E+00 0. -1.
         11    1    1    2    0    0 -0.86250407093E-01  0.85626077884E-01  0.65464196898E+00  0.66582830114E+00  0.51100000000E-03 0. -1.
    9000002    1    1    2    0    0  0.47470671190E+00 -0.47991944346E+00  0.32354006224E+00  0.12000797084E+01  0.93800000000E+00 0. -1.
         22    1    1    2    0    0 -0.38845630481E+00  0.39429336558E+00  0.30218179361E+01  0.30720919905E+01  0.00000000000E+00 0. -1.
</event>
<event>
 5    1  0.3269840E+002  0.1594324E+01  0.7818608E-02  0.3359547E+00
         11   -1    0    0    0    0  0.00000000000E+00  0.00000000000E+00  0.39999999674E+01  0.40000000000E+01  0.51100000000E-03 0. -1.
    9000002   -1    0    0    0    0 -0.00000000000E+00 -0.00000000000E+00  0.00000000000E+00  0.93800000000E+00  0.93800000000E+00 0.  1.
         11    1    1    2    0    0  0.69225930320E-01 -0.38881339030E-01  0.10445744228E+01  0.10475876927E+01  0.51100000000E-03 0. -1.
    9000002    1    1    2    0    0 -0.65641030207E-01  0.36364787643E+00  0.96136618160E-01  0.10127362797E+01  0.93800000000E+00 0.  1.
         22    1    1    2    0    0 -0.35849001128E-02 -0.32476653740E+00  0.28592889264E+01  0.28776760276E+01  0.00000000000E+00 0. -1.
</event>
<event>
 5    1  0.3269840E+002  0.1599560E+01  0.7818608E-02  0.3353841E+00
         11   -1    0    0    0    0  0.00000000000E+00  0.00000000000E+00  0.39999999674E+01  0.40000000000E+01  0.51100000000E-03 0. -1.
    9000002   -1    0    0    0    0 -0.00000000000E+00 -0.00000000000E+00  0.00000000000E+00  0.93800000000E+00  0.93800000000E+00 0. -1.
         11    1    1    2    0    0 -0.32152923368E-01 -0.43127162360E-01  0.74030859828E+00  0.74226063106E+00  0.51100000000E-03 0. -1.
    9000002    1    1    2    0    0  0.13214336867E+00  0.26705993589E+00  0.59308436447E-01  0.98597381805E+00  0.93800000000E+00 0. -1.
         22    1    1    2    0    0 -0.99990445300E-01 -0.22393277353E+00  0.32003829326E+01  0.32097655509E+01  0.00000000000E+00 0. -1.
</event>
<event>
 5    1  0.3269840E+002  0.1598141E+01  0.7818608E-02  0.3355383E+00
         11   -1    0    0    0    0  0.00000000000E+00  0.00000000000E+00  0.39999999674E+01  0.40000000000E+01  0.51100000000E-03 0.  1.
    9000002   -1    0    0    0    0 -0.00000000000E+00 -0.00000000000E+00  0.00000000000E+00  0.93800000000E+00  0.93800000000E+00 0.  1.
         11    1    1    2    0    0  0.28229300037E-01  0.14004097792E+00  0.10061146124E+01  0.10162062996E+01  0.51100000000E-03 0.  1.
    9000002    1    1    2    0    0 -0.69474198237E-01 -0.38631446407E+00  0.10509359662E+00  0.10222300100E+01  0.93800000000E+00 0.  1.
         22    1    1    2    0    0  0.41244898200E-01  0.24627348615E+00  0.28887917583E+01  0.28995636904E+01  0.00000000000E+00 0.  1.
</event>
<event>
 5    1  0.3269840E+002  0.1599402E+01  0.7818608E-02  0.3354013E+00
         11   -1    0    0    0    0  0.00000000000E+00  0.00000000000E+00  0.39999999674E+01  0.40000000000E+01  0.51100000000E-03 0.  1.
    9000002   -1    0    0    0    0 -0.00000000000E+00 -0.00000000000E+00  0.00000000000E+00  0.93800000000E+00  0.93800000000E+00 0. -1.
         11    1    1    2    0    0 -0.11501837491E-01 -0.20784514206E-01  0.48819497789E+00  0.48877283666E+00  0.51100000000E-03 0.  1.
    9000002    1    1    2    0    0  0.89934508405E-01  0.27416842412E+00  0.55697375277E-01  0.98295612222E+00  0.93800000000E+00 0. -1.
         22    1    1    2    0    0 -0.78432670914E-01 -0.25338390992E+00  0.34561076142E+01  0.34662710411E+01  0.00000000000E+00 0.  1.
</event>
<event>
 5    1  0.3269840E+002  0.1598669E+01  0.7818608E-02  0.3354809E+00
         11   -1    0    0    0    0  0.00000000000E+00  0.00000000000E+00  0.39999999674E+01  0.40000000000E+01  0.51100000000E-03 0.  1.
    9000002   -1    0    0    0    0 -0.00000000000E+00 -0.00000000000E+00  0.00000000000E+00  0.93800000000E+00  0.93800000000E+00 0.  1.
         11    1    1    2    0    0 -0.31473118585E-02  0.79011031432E-02  0.30895711464E-01  0.32049011072E-01  0.51100000000E-03 0.  1.
    9000002    1    1    2    0    0  0.56862020454E+00 -0.13981519800E+00  0.23948727647E+00  0.11314041639E+01  0.93800000000E+00 0.  1.
         22    1    1    2    0    0 -0.56547289268E+00  0.13191409485E+00  0.37296169794E+01  0.37745468250E+01  0.00000000000E+00 0.  1.
</event>
<event>
 5    1  0.3269840E+002  0.1599675E+01  0.7818608E-02  0.3353716E+00
         11   -1    0    0    0    0  0.00000000000E+00  0.00000000000E+00  0.39999999674E+01  0.40000000000E+01  0.51100000000E-03 0. -1.
    9000002   -1    0    0    0    0 -0.00000000000E+00 -0.00000000000E+00  0.00000000000E+00  0.93800000000E+00  0.93800000000E+00 0.  1.
         11    1    1    2    0    0  0.91021557749E-01  0.14214239693E+00  0.17964895928E+01  0.18044014251E+01  0.51100000000E-03 0. -1.
    9000002    1    1    2    0    0 -0.20145237921E+00 -0.30951585363E+00  0.91648607643E-01  0.10122384067E+01  0.93800000000E+00 0.  1.
         22    1    1    2    0    0  0.11043082146E+00  0.16737345669E+00  0.21118617669E+01  0.21213601681E+01  0.00000000000E+00 0. -1.
</event>
<event>
 5    1  0.3269840E+002  0.1599672E+01  0.7818608E-02  0.3353720E+00
         11   -1    0    0    0    0  0.00000000000E+00  0.00000000000E+00  0.39999999674E+01  0.40000000000E+01  0.51100000000E-03 0.  1.
    9000002   -1    0    0    0    0 -0.00000000000E+00 -0.00000000000E+00  0.00000000000E+00  0.93800000000E+00  0.93800000000E+00 0.  1.
         11    1    1    2    0    0 -0.25728079710E-01 -0.19360583632E+00  0.16169786061E+01  0.16287311711E+01  0.51100000000E-03 0.  1.
    9000002    1    1    2    0    0  0.66982221745E-01  0.46394957184E+00  0.14966954882E+00  0.10592359497E+01  0.93800000000E+00 0.  1.
         22    1    1    2    0    0 -0.41254142035E-01 -0.27034373552E+00  0.22333518124E+01  0.22500328792E+01  0.00000000000E+00 0. -1.
</event>
<event>
 5    1  0.3269840E+002  0.1599674E+01  0.7818608E-02  0.3353718E+00
         11   -1    0    0    0    0  0.00000000000E+00  0.00000000000E+00  0.39999999674E+01  0.40000000000E+01  0.51100000000E-03 0.  1.
    9000002   -1    0    0    0    0 -0.00000000000E+00 -0.00000000000E+00  0.00000000000E+00  0.93800000000E+00  0.93800000000E+00 0.  1.
         11    1    1    2    0    0  0.21768515407E+00 -0.12642375323E+00  0.15329822242E+01  0.15535136152E+01  0.51100000000E-03 0.  1.
    9000002    1    1    2    0    0 -0.52584620111E+00  0.30824438952E+00  0.25975297849E+00  0.11484095266E+01  0.93800000000E+00 0.  1.
         22    1    1    2    0    0  0.30816104704E+00 -0.18182063628E+00  0.22072647647E+01  0.22360768583E+01  0.00000000000E+00 0.  1.
</event>
<event>
 5    1  0.3269840E+002  0.1598087E+01  0.7818608E-02  0.3355442E+00
         11   -1    0    0    0    0  0.00000000000E+00  0.00000000000E+00  0.39999999674E+01  0.40000000000E+01  0.51100000000E-03 0. -1.
    9000002   -1    0    0    0    0 -0.00000000000E+00 -0.00000000000E+00  0.00000000000E+00  0.93800000000E+00  0.93800000000E+00 0. -1.
         11    1    1    2    0    0  0.34620851838E-01 -0.84922346268E-01  0.52894154431E+00  0.53683314604E+00  0.51100000000E-03 0. -1.
    9000002    1    1    2    0    0 -0.34104567979E+00  0.39045469313E+00  0.18602666755E+00  0.10877577599E+01  0.93800000000E+00 0. -1.
         22    1    1    2    0    0  0.30642482796E+00 -0.30553234686E+00  0.32850317555E+01  0.33134090941E+01  0.00000000000E+00 0. -1.
</event>
<event>
 5    1  0.3269840E+002  0.1595668E+01  0.7818608E-02  0.3358078E+00
         11   -1    0    0    0    0  0.00000000000E+00  0.00000000000E+00  0.39999999674E+01  0.40000000000E+01  0.51100000000E-03 0. -1.
    9000002   -1    0    0    0    0 -0.00000000000E+00 -0.00000000000E+00  0.00000000000E+00  0.93800000000E+00  0.93800000000E+00 0.  1.
         11    1    1    2    0    0  0.11925091420E-01 -0.17654616320E-01  0.11118626276E+00  0.11321015604E+00  0.51100000000E-03 0. -1.
    9000002    1    1    2    0    0 -0.51308797111E-01 -0.18760306416E+00  0.28038826140E-01  0.95836197656E+00  0.93800000000E+00 0.  1.
         22    1    1    2    0    0  0.39383705691E-01  0.20525768048E+00  0.38607748785E+01  0.38664278674E+01  0.00000000000E+00 0. -1.
</event>
<event>
 5    1  0.3269840E+002  0.1599676E+01  0.7818608E-02  0.3353715E+00
         11   -1    0    0    0    0  0.00000000000E+00  0.00000000000E+00  0.39999999674E+01  0.40000000000E+01  0.51100000000E-03 0.  1.
    9000002   -1    0    0    0    0 -0.00000000000E+00 -0.00000000000E+00  0.00000000000E+00  0.93800000000E+00  0.93800000000E+00 0.  1.
         11    1    1    2    0    0  0.20054249346E-01 -0.28879824169E+00  0.16665504190E+01  0.16915073625E+01  0.51100000000E-03 0.  1.
    9000002    1    1    2    0    0 -0.42261597125E-01  0.64301863723E+00  0.29263735592E+00  0.11750487788E+01  0.93800000000E+00 0.  1.
         22    1    1    2    0    0  0.22207347779E-01 -0.35422039554E+00  0.20408121925E+01  0.20714438587E+01  0.00000000000E+00 0.  1.
</event>
<event>
 5    1  0.3269840E+002  0.1599677E+01  0.7818608E-02  0.3353714E+00
         11   -1    0    0    0    0  0.00000000000E+00  0.00000000000E+00  0.39999999674E+01  0.40000000000E+01  0.51100000000E-03 0. -1.
    9000002   -1    0    0    0    0 -0.00000000000E+00 -0.00000000000E+00  0.00000000000E+00  0.93800000000E+00  0.93800000000E+00 0.  1.
         11    1    1    2    0    0 -0.22368468567E+00  0.34548498799E+00  0.16638523559E+01  0.17140010615E+01  0.51100000000E-03 0. -1.
    9000002    1    1    2    0    0  0.46353739262E+00 -0.71671875037E+00  0.54716112064E+00  0.13812248092E+01  0.93800000000E+00 0.  1.
         22    1    1    2    0    0 -0.23985270696E+00  0.37123376238E+00  0.17889864908E+01  0.18427741293E+01  0.00000000000E+00 0. -1.
</event>
<event>
 5    1  0.3269840E+002  0.1599634E+01  0.7818608E-02  0.3353761E+00
         11   -1    0    0    0    0  0.00000000000E+00  0.00000000000E+00  0.39999999674E+01  0.40000000000E+01  0.51100000000E-03 0. -1.
    9000002   -1    0    0    0    0 -0.00000000000E+00 -0.00000000000E+00  0.00000000000E+00  0.93800000000E+00  0.93800000000E+00 0. -1.
         11    1    1    2    0    0  0.39287119315E+00  0.97308836790E-01  0.17483854395E+01  0.17946221581E+01  0.51100000000E-03 0. -1.
    9000002    1    1    2    0    0 -0.79103735369E+00 -0.21046504963E+00  0.49680431317E+00  0.13404082056E+01  0.93800000000E+00 0. -1.
         22    1    1    2    0    0  0.39816616053E+00  0.11315621284E+00  0.17548102147E+01  0.18029696363E+01  0.00000000000E+00 0. -1.
</event>
<event>
 5    1  0.3269840E+002  0.1589512E+01  0.7818608E-02  0.3364826E+00
         11   -1    0    0    0    0  0.00000000000E+00  0.00000000000E+00  0.39999999674E+01  0.40000000000E+01  0.51100000000E-03 0. -1.
    9000002   -1    0    0    0    0 -0.00000000000E+00 -0.00000000000E+00  0.00000000000E+00  0.93800000000E+00  0.93800000000E+00 0. -1.
         11    1    1    2    0    0  0.18690442868E+00 -0.26989461293E-01  0.22378113682E+01  0.22457652765E+01  0.51100000000E-03 0. -1.
    9000002    1    1    2    0    0 -0.33810524112E+00  0.25406156682E+00  0.12966319847E+00  0.10370723113E+01  0.93800000000E+00 0. -1.
         22    1    1    2    0    0  0.15120081244E+00 -0.22707210553E+00  0.16325254007E+01  0.16551624122E+01  0.00000000000E+00 0.  1.
</event>
<event>
 5    1  0.3269840E+002  0.1599669E+01  0.7818608E-02  0.3353723E+00
         11   -1    0    0    0    0  0.00000000000E+00  0.00000000000E+00  0.39999999674E+01  0.40000000000E+01  0.51100000000E-03 0.  1.
    9000002   -1    0    0    0    0 -0.00000000000E+00 -0.00000000000E+00  0.00000000000E+00  0.93800000000E+00  0.93800000000E+00 0. -1.
         11    1    1    2    0    0  0.19841329909E+00  0.51155116454E-01  0.19614188908E+01  0.19720925458E+01  0.51100000000E-03 0.  1.
    9000002    1    1    2    0    0 -0.39900743925E+00 -0.97631908510E-01  0.11398494377E+00  0.10303278573E+01  0.93800000000E+00 0. -1.
         22    1    1    2    0    0  0.20059414016E+00  0.46476792055E-01  0.19245961328E+01  0.19355795969E+01  0.00000000000E+00 0. -1.
</event>
<event>
 5    1  0.3269840E+002  0.1599247E+01  0.7818608E-02  0.3354181E+00
         11   -1    0    0    0    0  0.00000000000E+00  0.00000000000E+00  0.39999999674E+01  0.40000000000E+01  0.51100000000E-03 0. -1.
    9000002   -1    0    0    0    0 -0.00000000000E+00 -0.00000000000E+00  0.00000000000E+00  0.93800000000E+00  0.93800000000E+00 0. -1.
         11    1    1    2    0    0  0.69653313784E-01  0.95120160111E-02  0.10847310578E+01  0.10870068038E+01  0.51100000000E-03 0. -1.
    9000002    1    1    2    0    0 -0.29797638873E+00  0.32797427025E-01  0.60285497738E-01  0.98658194829E+00  0.93800000000E+00 0. -1.
         22    1    1    2    0    0  0.22832307494E+00 -0.42309443037E-01  0.28549834118E+01  0.28644112480E+01  0.00000000000E+00 0. -1.
</event>
<event>
 5    1  0.3269840E+002  0.1587052E+01  0.7818608E-02  0.3367538E+00
         11   -1    0    0    0    0  0.00000000000E+00  0.00000000000E+00  0.39999999674E+01  0.40000000000E+01  0.51100000000E-03 0.  1.
    9000002   -1    0    0    0    0 -0.00000000000E+00 -0.00000000000E+00  0.00000000000E+00  0.93800000000E+00  0.93800000000E+00 0. -1.
         11    1    1    2    0    0  0.34784396520E-01 -0.74340646041E-01  0.47019059223E+00  0.47730068095E+00  0.51100000000E-03 0.  1.
    9000002    1    1    2    0    0 -0.17397076445E+00 -0.10206752577E+00  0.36463523471E-01  0.96013394651E+00  0.93800000000E+00 0. -1.
         22    1    1    2    0    0  0.13918636793E+00  0.17640817181E+00  0.34933458517E+01  0.35005653725E+01  0.00000000000E+00 0.  1.
</event>
<event>
 5    1  0.3269840E+002  0.1599651E+01  0.7818608E-02  0.3353743E+00
         11   -1    0    0    0    0  0.00000000000E+00  0.00000000000E+00  0.39999999674E+01  0.40000000000E+01  0.51100000000E-03 0. -1.
    9000002   -1    0    0    0    0 -0.00000000000E+00 -0.00000000000E+00  0.00000000000E+00  0.93800000000E+00  0.93800000000E+00 0.  1.
         11    1    1    2    0    0 -0.53039971700E-01 -0.65129787444E-01  0.10605223819E+01  0.10638435559E+01  0.51100000000E-03 0. -1.
    9000002    1    1    2    0    0  0.20776790674E+00  0.22462219668E+00  0.62512596744E-01  0.98862250585E+00  0.93800000000E+00 0.  1.
         22    1    1    2    0    0 -0.15472793504E+00 -0.15949240924E+00  0.28769649887E+01  0.28855339382E+01  0.00000000000E+00 0. -1.
</event>
<event>
 5    1  0.3269840E+002  0.1599649E+01  0.7818608E-02  0.3353744E+00
         11   -1    0    0    0    0  0.00000000000E+00  0.00000000000E+00  0.39999999674E+01  0.40000000000E+01  0.51100000000E-03 0.  1.
    9000002   -1    0    0    0    0 -0.00000000000E+00 -0.00000000000E+00  0.00000000000E+00  0.93800000000E+00  0.93800000000E+00 0. -1.
         11    1    1    2    0    0  0.10593520514E+00 -0.26790375246E-01  0.12112549708E+01  0.12161738598E+01  0.51100000000E-03 0.  1.
    9000002    1    1    2    0    0 -0.32459871026E+00  0.90717979814E-01  0.76081540313E-01  0.99961316285E+00  0.93800000000E+00 0. -1.
         22    1    1    2    0    0  0.21866350512E+00 -0.63927604567E-01  0.27126634562E+01  0.27222129773E+01  0.00000000000E+00 0.  1.
</event>
<event>
 5    1  0.3269840E+002  0.1592035E+01  0.7818608E-02  0.3362054E+00
         11   -1    0    0    0    0  0.00000000000E+00  0.00000000000E+00  0.39999999674E+01  0.40000000000E+01  0.51100000000E-03 0.  1.
    9000002   -1    0    0    0    0 -0.00000000000E+00 -0.00000000000E+00  0.00000000000E+00  0.93800000000E+00  0.93800000000E+00 0.  1.
         11    1    1    2    0    0  0.10162215501E-01 -0.74039154558E-02  0.15370135375E-01  0.19864308959E-01  0.51100000000E-03 0.  1.
    9000002    1    1    2    0    0  0.15451768784E+00 -0.34660142728E+00  0.10318508897E+00  0.10171034499E+01  0.93800000000E+00 0.  1.
         22    1    1    2    0    0 -0.16467990334E+00  0.35400534273E+00  0.38814447430E+01  0.39010322411E+01  0.00000000000E+00 0.  1.
</event>
<event>
 5    1  0.3269840E+002  0.1597644E+01  0.7818608E-02  0.3355925E+00
         11   -1    0    0    0    0  0.00000000000E+00  0.00000000000E+00  0.39999999674E+01  0.40000000000E+01  0.51100000000E-03 0. -1.
    9000002   -1    0    0    0    0 -0.00000000000E+00 -0.00000000000E+00  0.00000000000E+00  0.93800000000E+00  0.93800000000E+00 0. -1.
         11    1    1    2    0    0  0.10560725190E-02  0.77531818428E-01  0.62096413950E+00  0.62578672232E+00  0.51100000000E-03 0. -1.
    9000002    1    1    2    0    0  0.10490932266E+00 -0.26680959305E+00  0.56348101502E-01  0.98245225506E+00  0.93800000000E+00 0. -1.
         22    1    1    2    0    0 -0.10596539517E+00  0.18927777462E+00  0.33226877264E+01  0.33297610226E+01  0.00000000000E+00 0. -1.
</event>
<event>
 5    1  0.3269840E+002  0.1599677E+01  0.7818608E-02  0.3353714E+00
         11   -1    0    0    0    0  0.00000000000E+00  0.00000000000E+00  0.39999999674E+01  0.40000000000E+01  0.51100000000E-03 0. -1.
    9000002   -1    0    0    0    0 -0.00000000000E+00 -0.00000000000E+00  0.00000000000E+00  0.93800000000E+00  0.93800000000E+00 0.  1.
         11    1    1    2    0    0 -0.41279801278E-01 -0.27746885254E-01  0.75876973942E+00  0.76039837600E+00  0.51100000000E-03 0.  1.
    9000002    1    1    2    0    0  0.21732844297E+00  0.14500120704E+00  0.45382743588E-01  0.97476181480E+00  0.93800000000E+00 0.  1.
         22    1    1    2    0    0 -0.17604864170E+00 -0.11725432178E+00  0.31958474843E+01  0.32028398092E+01  0.00000000000E+00 0. -1.
</event>
<event>
 5    1  0.3269840E+002  0.1594647E+01  0.7818608E-02  0.3359194E+00
         11   -1    0    0    0    0  0.00000000000E+00  0.00000000000E+00  0.39999999674E+01  0.40000000000E+01  0.51100000000E-03 0.  1.
    9000002   -1    0    0    0    0 -0.00000000000E+00 -0.00000000000E+00  0.00000000000E+00  0.93800000000E+00  0.93800000000E+00 0. -1.
         11    1    1    2    0    0  0.14250693516E+00  0.55942392830E-01  0.84323122202E+00  0.85701629669E+00  0.51100000000E-03 0.  1.
    9000002    1    1    2    0    0 -0.33283315456E+00 -0.31651126708E+00  0.14786749740E+00  0.10548298857E+01  0.93800000000E+00 0. -1.
         22    1    1    2    0    0  0.19032621940E+00  0.26056887425E+00  0.30089012479E+01  0.30261538176E+01  0.00000000000E+00 0.  1.
</event>
<event>
 5    1  0.3269840E+002  0.1599641E+01  0.7818608E-02  0.3353753E+00
         11   -1    0    0    0    0  0.00000000000E+00  0.00000000000E+00  0.39999999674E+01  0.40000000000E+01  0.51100000000E-03 0. -1.
    9000002   -1    0    0    0    0 -0.00000000000E+00 -0.00000000000E+00  0.00000000000E+00  0.93800000000E+00  0.93800000000E+00 0.  1.
         11    1    1    2    0    0 -0.19115375243E-01  0.21564823838E-01  0.28940859080E+00  0.29084021859E+00  0.51100000000E-03 0. -1.
    9000002    1    1    2    0    0  0.23295293254E+00 -0.24843165056E+00  0.77718545060E-01  0.10009343265E+01  0.93800000000E+00 0.  1.
         22    1    1    2    0    0 -0.21383755730E+00  0.22686682673E+00  0.36328728315E+01  0.36462254549E+01  0.00000000000E+00 0. -1.
</event>
<event>
 5    1  0.3269840E+002  0.1599677E+01  0.7818608E-02  0.3353714E+00
         11   -1    0    0    0    0  0.00000000000E+00  0.00000000000E+00  0.39999999674E+01  0.40000000000E+01  0.51100000000E-03 0. -1.
    9000002   -1    0    0    0    0 -0.00000000000E+00 -0.00000000000E+00  0.00000000000E+00  0.93800000000E+00  0.93800000000E+00 0. -1.
         11    1    1    2    0    0 -0.91631986837E-02 -0.99853518238E-01  0.11642145993E+01  0.11685249606E+01  0.51100000000E-03 0. -1.
    9000002    1    1    2    0    0  0.30858135591E-01  0.33775886075E+00  0.77040594934E-01  0.10004061804E+01  0.93800000000E+00 0. -1.
         22    1    1    2    0    0 -0.21694936907E-01 -0.23790534251E+00  0.27587447732E+01  0.27690688590E+01  0.00000000000E+00 0. -1.
</event>
<event>
 5    1  0.3269840E+002  0.1599676E+01  0.7818608E-02  0.3353715E+00
         11   -1    0    0    0    0  0.00000000000E+00  0.00000000000E+00  0.39999999674E+01  0.40000000000E+01  0.51100000000E-03 0. -1.
    9000002   -1    0    0    0    0 -0.00000000000E+00 -0.00000000000E+00  0.00000000000E+00  0.93800000000E+00  0.93800000000E+00 0. -1.
         11    1    1    2    0    0 -0.39387823987E-01 -0.52647055522E-02  0.54435090103E+00  0.54579967238E+00  0.51100000000E-03 0.  1.
    9000002    1    1    2    0    0  0.29045251716E+00  0.39918317090E-01  0.57307243510E-01  0.98442077229E+00  0.93800000000E+00 0. -1.
         22    1    1    2    0    0 -0.25106469317E+00 -0.34653611537E-01  0.33983418228E+01  0.34077795553E+01  0.00000000000E+00 0. -1.
</event>
<event>
 5    1  0.3269840E+002  0.1595318E+01  0.7818608E-02  0.3358460E+00
         11   -1    0    0    0    0  0.00000000000E+00  0.00000000000E+00  0.39999999674E+01  0.40000000000E+01  0.51100000000E-03 0. -1.
    9000002   -1    0    0    0    0 -0.00000000000E+00 -0.00000000000E+00  0.00000000000E+00  0.93800000000E+00  0.93800000000E+00 0.  1.
         11    1    1    2    0    0 -0.65092565720E-01 -0.60403126861E-01  0.14291224319E+01  0.14318787541E+01  0.51100000000E-03 0. -1.
    9000002    1    1    2    0    0  0.29143471759E+00 -0.11926873577E-01  0.60116796976E-01  0.98414149095E+00  0.93800000000E+00 0.  1.
         22    1    1    2    0    0 -0.22634215187E+00  0.72330000438E-01  0.25107607385E+01  0.25219797550E+01  0.00000000000E+00 0. -1.
</event>
<event>
 5    1  0.3269840E+002  0.1598763E+01  0.7818608E-02  0.3354707E+00
         11   -1    0    0    0    0  0.00000000000E+00  0.00000000000E+00  0.39999999674E+01  0.40000000000E+01  0.51100000000E-03 0.  1.
    9000002   -1    0    0    0    0 -0.00000000000E+00 -0.00000000000E+00  0.00000000000E+00  0.93800000000E+00  0.93800000000E+00 0.  1.
         11    1    1    2    0    0 -0.53583116692E-01 -0.54394790247E-01  0.83181609169E+00  0.83531324371E+00  0.51100000000E-03 0.  1.
    9000002    1    1    2    0    0  0.31180474675E+00  0.12932512842E+00  0.77031092990E-01  0.99986247966E+00  0.93800000000E+00 0.  1.
         22    1    1    2    0    0 -0.25822163006E+00 -0.74930338175E-01  0.30911527827E+01  0.31028242766E+01  0.00000000000E+00 0.  1.
</event>
<event>
 5    1  0.3269840E+002  0.1599515E+01  0.7818608E-02  0.3353890E+00
         11   -1    0    0    0    0  0.00000000000E+00  0.00000000000E+00  0.39999999674E+01  0.40000000000E+01  0.51100000000E-03 0.  1.
    9000002   -1    0    0    0    0 -0.00000000000E+00 -0.00000000000E+00  0.00000000000E+00  0.93800000000E+00  0.93800000000E+00 0.  1.
         11    1    1    2    0    0  0.24796518893E-01 -0.31700552251E-01  0.44775786295E+00  0.44956329623E+00  0.51100000000E-03 0.  1.
    9000002    1    1    2    0    0 -0.14757647871E+00  0.23172981996E+00  0.50364123846E-01  0.97870223843E+00  0.93800000000E+00 0.  1.
         22    1    1    2    0    0  0.12277995981E+00 -0.20002926771E+00  0.35018779806E+01  0.35097344653E+01  0.00000000000E+00 0.  1.
</event>
<event>
 5    1  0.3269840E+002  0.1577425E+01  0.7818608E-02  0.3378236E+00
         11   -1    0    0    0    0  0.00000000000E+00  0.00000000000E+00  0.39999999674E+01  0.40000000000E+01  0.51100000000E-03 0.  1.
    9000002   -1    0    0    0    0 -0.00000000000E+00 -0.00000000000E+00  0.00000000000E+00  0.93800000000E+00  0.93800000000E+00 0.  1.
         11    1    1    2    0    0  0.11121343073E-01  0.12686358220E+00  0.49143254243E+00  0.50766549778E+00  0.51100000000E-03 0.  1.
    9000002    1    1    2    0    0  0.29582846122E+00 -0.13851276940E+00  0.89253878291E-01  0.99725148310E+00  0.93800000000E+00 0.  1.
         22    1    1    2    0    0 -0.30694980429E+00  0.11649187196E-01  0.34193135466E+01  0.34330830191E+01  0.00000000000E+00 0.  1.
</event>
<event>
 5    1  0.3269840E+002  0.1599677E+01  0.7818608E-02  0.3353714E+00
         11   -1    0    0    0    0  0.00000000000E+00  0.00000000000E+00  0.39999999674E+01  0.40000000000E+01  0.51100000000E-03 0.  1.
    9000002   -1    0    0    0    0 -0.00000000000E+00 -0.00000000000E+00  0.00000000000E+00  0.93800000000E+00  0.93800000000E+00 0.  1.
         11    1    1    2    0    0 -0.22253855553E-01 -0.13505602016E-01  0.37067866019E+00  0.37159193427E+00  0.51100000000E-03 0. -1.
    9000002    1    1    2    0    0  0.23767722352E+00  0.14270279767E+00  0.51166762144E-01  0.97944708310E+00  0.93800000000E+00 0.  1.
         22    1    1    2    0    0 -0.21542336796E+00 -0.12919719566E+00  0.35781545450E+01  0.35869609826E+01  0.00000000000E+00 0.  1.
</event>
<event>
 5    1  0.3269840E+002  0.1599676E+01  0.7818608E-02  0.3353715E+00
         11   -1    0    0    0    0  0.00000000000E+00  0.00000000000E+00  0.39999999674E+01  0.40000000000E+01  0.51100000000E-03 0.  1.
    9000002   -1    0    0    0    0 -0.00000000000E+00 -0.00000000000E+00  0.00000000000E+00  0.93800000000E+00  0.93800000000E+00 0.  1.
         11    1    1    2    0    0 -0.27411100207E-01 -0.73186145265E-01  0.95781624856E+00  0.96099937950E+00  0.51100000000E-03 0.  1.
    9000002    1    1    2    0    0  0.11471044062E+00  0.30235468499E+00  0.69923418683E-01  0.99464070156E+00  0.93800000000E+00 0.  1.
         22    1    1    2    0    0 -0.87299340411E-01 -0.22916853973E+00  0.29722603001E+01  0.29823599189E+01  0.00000000000E+00 0.  1.
</event>
<event>
 5    1  0.3269840E+002  0.1599647E+01  0.7818608E-02  0.3353746E+00
         11   -1    0    0    0    0  0.00000000000E+00  0.00000000000E+00  0.39999999674E+01  0.40000000000E+01  0.51100000000E-03 0. -1.
    9000002   -1    0    0    0    0 -0.00000000000E+00 -0.00000000000E+00  0.00000000000E+00  0.93800000000E+00  0.93800000000E+00 0.  1.
         11    1    1    2    0    0 -0.83456227998E-02  0.74649139337E-01  0.10114628198E+01  0.10142482144E+01  0.51100000000E-03 0. -1.
    9000002    1    1    2    0    0  0.45463283458E-01 -0.30856797308E+00  0.64994254474E-01  0.99063078756E+00  0.93800000000E+00 0.  1.
         22    1    1    2    0    0 -0.37117660658E-01  0.23391883374E+00  0.29235428931E+01  0.29331209980E+01  0.00000000000E+00 0. -1.
</event>
<event>
 5    1  0.3269840E+002  0.1599674E+01  0.7818608E-02  0.3353718E+00
         11   -1    0    0    0    0  0.00000000000E+00  0.00000000000E+00  0.39999999674E+01  0.40000000000E+01  0.51100000000E-03 0.  1.
    9000002   -1    0    0    0    0 -0.00000000000E+00 -0.00000000000E+00  0.00000000000E+00  0.93800000000E+00  0.93800000000E+00 0.  1.
         11    1    1    2    0    0 -0.63243801848E-01 -0.10342801756E+00  0.12010555781E+01  0.12071586043E+01  0.51100000000E-03 0.  1.
    9000002    1    1    2    0    0  0.20733578645E+00  0.34135899621E+00  0.10758985057E+00  0.10251505590E+01  0.93800000000E+00 0.  1.
         22    1    1    2    0    0 -0.14409198460E+00 -0.23793097864E+00  0.26913545387E+01  0.27056908367E+01  0.00000000000E+00 0.  1.
</event>
<event>
 5    1  0.3269840E+002  0.1599674E+01  0.7818608E-02  0.3353717E+00
         11   -1    0    0    0    0  0.00000000000E+00  0.00000000000E+00  0.39999999674E+01  0.40000000000E+01  0.51100000000E-03 0.  1.
    9000002   -1    0    0    0    0 -0.00000000000E+00 -0.00000000000E+00  0.00000000000E+00  0.93800000000E+00  0.93800000000E+00 0. -1.
         11    1    1    2    0    0  0.50937729710E-01  0.16374974596E-01  0.54314712132E+00  0.54577637236E+00  0.51100000000E-03 0.  1.
    9000002    1    1    2    0    0 -0.35800886304E+00 -0.11176257318E+00  0.94588764357E-01  0.10146192651E+01  0.93800000000E+00 0. -1.
         22    1    1    2    0    0  0.30707113333E+00  0.95387598582E-01  0.33622640817E+01  0.33776043625E+01  0.00000000000E+00 0.  1.
</event>
<event>
 5    1  0.3269840E+002  0.1598938E+01  0.7818608E-02  0.3354516E+00
         11   -1    0    0    0    0  0.00000000000E+00  0.00000000000E+00  0.39999999674E+01  0.40000000000E+01  0.51100000000E-03 0. -1.
    9000002   -1    0    0    0    0 -0.00000000000E+00 -0.00000000000E+00  0.00000000000E+00  0.93800000000E+00  0.93800000000E+00 0.  1.
         11    1    1    2    0    0  0.56949518197E-02  0.24919346555E-01  0.83091378531E+00  0.83130703476E+00  0.51100000000E-03 0. -1.
    9000002    1    1    2    0    0  0.52794682477E-01 -0.21775843166E+00  0.33847393348E-01  0.96498479734E+00  0.93800000000E+00 0.  1.
         22    1    1    2    0    0 -0.58489634297E-01  0.19283908510E+00  0.31352387887E+01  0.31417081679E+01  0.00000000000E+00 0. -1.
</event>
<event>
 5    1  0.3269840E+002  0.1599676E+01  0.7818608E-02  0.3353715E+00
         11   -1    0    0    0    0  0.00000000000E+00  0.00000000000E+00  0.39999999674E+01  0.40000000000E+01  0.51100000000E-03 0. -1.
    9000002   -1    0    0    0    0 -0.00000000000E+00 -0.00000000000E+00  0.00000000000E+00  0.93800000000E+00  0.93800000000E+00 0.  1.
         11    1    1    2    0    0 -0.13908541016E-01  0.11485737903E-01  0.28761351874E+00  0.28817905366E+00  0.51100000000E-03 0.  1.
    9000002    1    1    2    0    0  0.19356154925E+00 -0.15282034997E+00  0.40392539403E-01  0.97071916122E+00  0.93800000000E+00 0.  1.
         22    1    1    2    0    0 -0.17965300823E+00  0.14133461207E+00  0.36719939092E+01  0.36791017851E+01  0.00000000000E+00 0. -1.
</event>
<event>
 5    1  0.3269840E+002  0.1599578E+01  0.7818608E-02  0.3353822E+00
         11   -1    0    0    0    0  0.00000000000E+00  0.00000000000E+00  0.39999999674E+01  0.40000000000E+01  0.51100000000E-03 0. -1.
    9000002   -1    0    0    0    0 -0.00000000000E+00 -0.00000000000E+00  0.00000000000E+00  0.93800000000E+00  0.93800000000E+00 0. -1.
         11    1    1    2    0    0 -0.53856102502E-01  0.44766142380E-01  0.78510438702E+00  0.78822182596E+00  0.51100000000E-03 0. -1.
    9000002    1    1    2    0    0  0.29312078367E+00 -0.18215848825E+00  0.79895908757E-01  0.10026608923E+01  0.93800000000E+00 0. -1.
         22    1    1    2    0    0 -0.23926468117E+00  0.13739234587E+00  0.31349996716E+01  0.31471172818E+01  0.00000000000E+00 0. -1.
</event>
<event>
 5    1  0.3269840E+002  0.1594613E+01  0.7818608E-02  0.3359231E+00
         11   -1    0    0    0    0  0.00000000000E+00  0.00000000000E+00  0.39999999674E+01  0.40000000000E+01  0.51100000000E-03 0.  1.
    9000002   -1    0    0    0    0 -0.00000000000E+00 -0.00000000000E+00  0.00000000000E+00  0.93800000000E+00  0.93800000000E+00 0.  1.
         11    1    1    2    0    0 -0.27446076885E-02 -0.21165579340E-01  0.80013180746E-01  0.82812347112E-01  0.51100000000E-03 0.  1.
    9000002    1    1    2    0    0  0.15839848299E+00 -0.15091708979E+00  0.35556398619E-01  0.96383313125E+00  0.93800000000E+00 0.  1.
         22    1    1    2    0    0 -0.15565387531E+00  0.17208266913E+00  0.38844303880E+01  0.38913545216E+01  0.00000000000E+00 0.  1.
</event>
<event>
 5    1  0.3269840E+002  0.1598986E+01  0.7818608E-02  0.3354465E+00
         11   -1    0    0    0    0  0.00000000000E+00  0.00000000000E+00  0.39999999674E+01  0.40000000000E+01  0.51100000000E-03 0.  1.
    9000002   -1    0    0    0    0 -0.00000000000E+00 -0.00000000000E+00  0.00000000000E+00  0.93800000000E+00  0.93800000000E+00 0. -1.
         11    1    1    2    0    0  0.57674388863E-01  0.13541950473E+00  0.12171770343E+01  0.12260444410E+01  0.51100000000E-03 0.  1.
    9000002    1    1    2    0    0 -0.98725833958E-01 -0.46865532418E+00  0.15709845443E+00  0.10648514110E+01  0.93800000000E+00 0. -1.
         22    1    1    2    0    0  0.41051445095E-01  0.33323581945E+00  0.26257244786E+01  0.26471041480E+01  0.00000000000E+00 0.  1.
</event>
<event>
 5    1  0.3269840E+002  0.1599677E+01  0.7818608E-02  0.3353714E+00
         11   -1    0    0    0    0  0.00000000000E+00  0.00000000000E+00  0.39999999674E+01  0.40000000000E+01  0.51100000000E-03 0. -1.
    9000002   -1    0    0    0    0 -0.00000000000E+00 -0.00000000000E+00  0.00000000000E+00  0.93800000000E+00  0.93800000000E+00 0. -1.
         11    1    1    2    0    0  0.14256013336E+00  0.55040881328E-01  0.10607229541E+01  0.10716745480E+01  0.51100000000E-03 0. -1.
    9000002    1    1    2    0    0 -0.51178866085E+00 -0.19674733359E+00  0.20758393197E+00  0.11061519947E+01  0.93800000000E+00 0. -1.
         22    1    1    2    0    0  0.36922852749E+00  0.14170645226E+00  0.27316930813E+01  0.27601734573E+01  0.00000000000E+00 0. -1.
</event>
<event>
 5    1  0.3269840E+002  0.1599673E+01  0.7818608E-02  0.3353718E+00
         11   -1    0    0    0    0  0.00000000000E+00  0.00000000000E+00  0.39999999674E+01  0.40000000000E+01  0.51100000000E-03 0.  1.
    9000002   -1    0    0    0    0 -0.00000000000E+00 -0.00000000000E+00  0.00000000000E+00  0.93800000000E+00  0.93800000000E+00 0.  1.
         11    1    1    2    0    0  0.32734586067E-01 -0.18383147295E+00  0.16851275306E+01  0.16954411282E+01  0.51100000000E-03 0.  1.
    9000002    1    1    2    0    0 -0.74380482137E-01  0.42791149509E+00  0.12783560534E+00  0.10415501168E+01  0.93800000000E+00 0.  1.
         22    1    1    2    0    0  0.41645896070E-01 -0.24408002214E+00  0.21870368314E+01  0.22010087551E+01  0.00000000000E+00 0.  1.
</event>
<event>
 5    1  0.3269840E+002  0.1599677E+01  0.7818608E-02  0.3353715E+00
         11   -1    0    0    0    0  0.00000000000E+00  0.00000000000E+00  0.39999999674E+01  0.40000000000E+01  0.51100000000E-03 0.  1.
    9000002   -1    0    0    0    0 -0.00000000000E+00 -0.00000000000E+00  0.00000000000E+00  0.93800000000E+00  0.93800000000E+00 0.  1.
         11    1    1    2    0    0  0.55515967580E-01 -0.96741933803E-01  0.74200453168E+00  0.75034126274E+00  0.51100000000E-03 0. -1.
    9000002    1    1    2    0    0 -0.28191824823E+00  0.48973105980E+00  0.22119510275E+00  0.11171775522E+01  0.93800000000E+00 0.  1.
         22    1    1    2    0    0  0.22640228065E+00 -0.39298912600E+00  0.30368003329E+01  0.30704811851E+01  0.00000000000E+00 0.  1.
</event>
<event>
 5    1  0.3269840E+002  0.1571070E+01  0.7818608E-02  0.3385374E+00
         11   -1    0    0    0    0  0.00000000000E+00  0.00000000000E+00  0.39999999674E+01  0.40000000000E+01  0.51100000000E-03 0. -1.
    9000002   -1    0    0    0    0 -0.00000000000E+00 -0.00000000000E+00  0.00000000000E+00  0.93800000000E+00  0.93800000000E+00 0. -1.
         11    1    1    2    0    0 -0.93561683141E-01 -0.59686450033E-01  0.33149278796E+00  0.34957687346E+00  0.51100000000E-03 0. -1.
    9000002    1    1    2    0    0 -0.14590407849E+00  0.20259485002E+00  0.63592946851E-01  0.97273878110E+00  0.93800000000E+00 0. -1.
         22    1    1    2    0    0  0.23946576163E+00 -0.14290839998E+00  0.36049142325E+01  0.36156843454E+01  0.00000000000E+00 0. -1.
</event>
<event>
 5    1  0.3269840E+002  0.1599615E+01  0.7818608E-02  0.3353781E+00
         11   -1    0    0    0    0  0.00000000000E+00  0.00000000000E+00  0.39999999674E+01  0.40000000000E+01  0.51100000000E-03 0. -1.
    9000002   -1    0    0    0    0 -0.00000000000E+00 -0.00000000000E+00  0.00000000000E+00  0.93800000000E+00  0.93800000000E+00 0.  1.
         11    1    1    2    0    0 -0.81876913618E-01 -0.18114879994E+00  0.14196218377E+01  0.14334731040E+01  0.51100000000E-03 0. -1.
    9000002    1    1    2    0    0  0.19857024305E+00  0.47528350283E+00  0.18215548969E+00  0.10855179280E+01  0.93800000000E+00 0.  1.
         22    1    1    2    0    0 -0.11669332943E+00 -0.29413470289E+00  0.23982226400E+01  0.24190089681E+01  0.00000000000E+00 0. -1.
</event>
<event>
 5    1  0.3269840E+002  0.1599677E+01  0.7818608E-02  0.3353714E+00
         11   -1    0    0    0    0  0.00000000000E+00  0.00000000000E+00  0.39999999674E+01  0.40000000000E+01  0.51100000000E-03 0. -1.
    9000002   -1    0    0    0    0 -0.00000000000E+00 -0.00000000000E+00  0.00000000000E+00  0.93800000000E+00  0.93800000000E+00 0.  1.
         11    1    1    2    0    0 -0.22606105821E+00  0.12981947401E-01  0.13142308061E+01  0.13335947682E+01  0.51100000000E-03 0. -1.
    9000002    1    1    2    0    0  0.63936158322E+00 -0.37696804193E-01  0.28880659415E+00  0.11719460448E+01  0.93800000000E+00 0.  1.
         22    1    1    2    0    0 -0.41330052501E+00  0.24714856792E-01  0.23969625671E+01  0.24324591870E+01  0.00000000000E+00 0. -1.
</event>
<event>
 5    1  0.3269840E+002  0.1559368E+01  0.7818608E-02  0.3398680E+00
         11   -1    0    0    0    0  0.00000000000E+00  0.00000000000E+00  0.39999999674E+01  0.40000000000E+01  0.51100000000E-03 0.  1.
    9000002   -1    0    0    0    0 -0.00000000000E+00 -0.00000000000E+00  0.00000000000E+00  0.93800000000E+00  0.93800000000E+00 0.  1.
         11    1    1    2    0    0 -0.13455706186E+00  0.15169039627E+00  0.49709507771E+00  0.53686064917E+00  0.51100000000E-03 0.  1.
    9000002    1    1    2    0    0  0.14136710469E-01 -0.41145642942E+00  0.14913797677E+00  0.10351726310E+01  0.93800000000E+00 0.  1.
         22    1    1    2    0    0  0.12042035139E+00  0.25976603314E+00  0.33537669129E+01  0.33659667198E+01  0.00000000000E+00 0.  1.
</event>
<event>
 5    1  0.3269840E+002  0.1481528E+01  0.7818608E-02  0.3492920E+00
         11   -1    0    0    0    0  0.00000000000E+00  0.00000000000E+00  0.39999999674E+01  0.40000000000E+01  0.51100000000E-03 0.  1.
    9000002   -1    0    0    0    0 -0.00000000000E+00 -0.00000000000E+00  0.00000000000E+00  0.93800000000E+00  0.93800000000E+00 0.  1.
         11    1    1    2    0    0 -0.46836423358E+00  0.95743385280E-02  0.25772060044E+01  0.26194365374E+01  0.51100000000E-03 0.  1.
    9000002    1    1    2    0    0  0.16281309003E+00 -0.23933325103E+00  0.15428407106E+00  0.99369818452E+00  0.93800000000E+00 0.  1.
         22    1    1    2    0    0  0.30555114355E+00  0.22975891250E+00  0.12685098919E+01  0.13248652781E+01  0.00000000000E+00 0. -1.
</event>
<event>
 5    1  0.3269840E+002  0.1599674E+01  0.7818608E-02  0.3353717E+00
         11   -1    0    0    0    0  0.00000000000E+00  0.00000000000E+00  0.39999999674E+01  0.40000000000E+01  0.51100000000E-03 0. -1.
    9000002   -1    0    0    0    0 -0.00000000000E+00 -0.00000000000E+00  0.00000000000E+00  0.93800000000E+00  0.93800000000E+00 0.  1.
         11    1    1    2    0    0  0.14243946264E-02  0.69992251223E-01  0.94325272056E+00  0.94584718644E+00  0.51100000000E-03 0. -1.
    9000002    1    1    2    0    0 -0.10487230623E-01 -0.28745375884E+00  0.55136662608E-01  0.98266153738E+00  0.93800000000E+00 0.  1.
         22    1    1    2    0    0  0.90628359970E-02  0.21746150762E+00  0.30016105842E+01  0.30094912762E+01  0.00000000000E+00 0. -1.
</event>
<event>
 5    1  0.3269840E+002  0.1483813E+01  0.7818608E-02  0.3490003E+00
         11   -1    0    0    0    0  0.00000000000E+00  0.00000000000E+00  0.39999999674E+01  0.40000000000E+01  0.51100000000E-03 0.  1.
    9000002   -1    0    0    0    0 -0.00000000000E+00 -0.00000000000E+00  0.00000000000E+00  0.93800000000E+00  0.93800000000E+00 0. -1.
         11    1    1    2    0    0 -0.13472468437E+00 -0.40064417441E+00  0.17066902950E+01  0.17582543954E+01  0.51100000000E-03 0.  1.
    9000002    1    1    2    0    0 -0.10475547077E+00  0.82999411894E-01  0.10237419926E+00  0.95298850345E+00  0.93800000000E+00 0. -1.
         22    1    1    2    0    0  0.23948015514E+00  0.31764476251E+00  0.21909354731E+01  0.22267571011E+01  0.00000000000E+00 0.  1.
</event>
<event>
 5    1  0.3269840E+002  0.1599632E+01  0.7818608E-02  0.3353763E+00
         11   -1    0    0    0    0  0.00000000000E+00  0.00000000000E+00  0.39999999674E+01  0.40000000000E+01  0.51100000000E-03 0.  1.
    9000002   -1    0    0    0    0 -0.00000000000E+00 -0.00000000000E+00  0.00000000000E+00  0.93800000000E+00  0.93800000000E+00 0.  1.
         11    1    1    2    0    0 -0.25505072793E+00  0.27756154671E+00  0.23074196545E+01  0.23380070593E+01  0.51100000000E-03 0.  1.
    9000002    1    1    2    0    0  0.41928392484E+00 -0.45924927714E+00  0.27114833967E+00  0.11576157956E+01  0.93800000000E+00 0.  1.
         22    1    1    2    0    0 -0.16423319692E+00  0.18168773043E+00  0.14214319732E+01  0.14423771451E+01  0.00000000000E+00 0.  1.
</event>
<event>
 5    1  0.3269840E+002  0.1599289E+01  0.7818608E-02  0.3354136E+00
         11   -1    0    0    0    0  0.00000000000E+00  0.00000000000E+00  0.39999999674E+01  0.40000000000E+01  0.51100000000E-03 0.  1.
    9000002   -1    0    0    0    0 -0.00000000000E+00 -0.00000000000E+00  0.00000000000E+00  0.93800000000E+00  0.93800000000E+00 0.  1.
         11    1    1    2    0    0  0.24509947632E-01  0.56471670860E-01  0.12587407944E+01  0.12602453871E+01  0.51100000000E-03 0.  1.
    9000002    1    1    2    0    0 -0.10970914063E+00 -0.23870374504E+00  0.46190586536E-01  0.97518877338E+00  0.93800000000E+00 0.  1.
         22    1    1    2    0    0  0.85199192996E-01  0.18223207418E+00  0.26950685865E+01  0.27025658395E+01  0.00000000000E+00 0.  1.
</event>
<event>
 5    1  0.3269840E+002  0.1597666E+01  0.7818608E-02  0.3355900E+00
         11   -1    0    0    0    0  0.00000000000E+00  0.00000000000E+00  0.39999999674E+01  0.40000000000E+01  0.51100000000E-03 0. -1.
    9000002   -1    0    0    0    0 -0.00000000000E+00 -0.00000000000E+00  0.00000000000E+00  0.93800000000E+00  0.93800000000E+00 0.  1.
         11    1    1    2    0    0  0.40989347546E-01  0.17396815339E-01  0.28006612778E+00  0.28358433110E+00  0.51100000000E-03 0. -1.
    9000002    1    1    2    0    0 -0.43918505645E+00  0.12566301969E+00  0.14362036731E+00  0.10531597781E+01  0.93800000000E+00 0.  1.
         22    1    1    2    0    0  0.39819570891E+00 -0.14305983503E+00  0.35763134723E+01  0.36012558908E+01  0.00000000000E+00 0. -1.
</event>
<event>
 5    1  0.3269840E+002  0.1599367E+01  0.7818608E-02  0.3354051E+00
         11   -1    0    0    0    0  0.00000000000E+00  0.00000000000E+00  0.39999999674E+01  0.40000000000E+01  0.51100000000E-03 0.  1.
    9000002   -1    0    0    0    0 -0.00000000000E+00 -0.00000000000E+00  0.00000000000E+00  0.93800000000E+00  0.93800000000E+00 0. -1.
         11    1    1    2    0    0  0.84769725358E-02 -0.85431809025E-03  0.12349039918E+00  0.12378501013E+00  0.51100000000E-03 0.  1.
    9000002    1    1    2    0    0 -0.17376350184E+00  0.24167707421E+00  0.59337042261E-01  0.98588358712E+00  0.93800000000E+00 0. -1.
         22    1    1    2    0    0  0.16528652930E+00 -0.24082275612E+00  0.38171725259E+01  0.38283314028E+01  0.00000000000E+00 0.  1.
</event>
<event>
 5    1  0.3269840E+002  0.1599672E+01  0.7818608E-02  0.3353719E+00
         11   -1    0    0    0    0  0.00000000000E+00  0.00000000000E+00  0.39999999674E+01  0.40000000000E+01  0.51100000000E-03 0. -1.
    9000002   -1    0    0    0    0 -0.00000000000E+00 -0.00000000000E+00  0.00000000000E+00  0.93800000000E+00  0.93800000000E+00 0. -1.
         11    1    1    2    0    0  0.18617517127E-01 -0.24201028084E+00  0.16537118953E+01  0.16714301905E+01  0.51100000000E-03 0. -1.
    9000002    1    1    2    0    0 -0.40718359989E-01  0.54911438193E+00  0.20943896232E+00  0.11076521422E+01  0.93800000000E+00 0. -1.
         22    1    1    2    0    0  0.22100842862E-01 -0.30710410109E+00  0.21368491098E+01  0.21589176673E+01  0.00000000000E+00 0.  1.
</event>
<event>
 5    1  0.3269840E+002  0.1599031E+01  0.7818608E-02  0.3354416E+00
         11   -1    0    0    0    0  0.00000000000E+00  0.00000000000E+00  0.39999999674E+01  0.40000000000E+01  0.51100000000E-03 0. -1.
    9000002   -1    0    0    0    0 -0.00000000000E+00 -0.00000000000E+00  0.00000000000E+00  0.93800000000E+00  0.93800000000E+00 0.  1.
         11    1    1    2    0    0  0.56982342619E-01 -0.22757568469E-02  0.81786530195E+00  0.81985125461E+00  0.51100000000E-03 0. -1.
    9000002    1    1    2    0    0 -0.30182801577E+00 -0.10516935167E+00  0.68793164829E-01  0.99334648696E+00  0.93800000000E+00 0.  1.
         22    1    1    2    0    0  0.24484567315E+00  0.10744510851E+00  0.31133415006E+01  0.31248022584E+01  0.00000000000E+00 0. -1.
</event>
<event>
 5    1  0.3269840E+002  0.1487045E+01  0.7818608E-02  0.3485892E+00
         11   -1    0    0    0    0  0.00000000000E+00  0.00000000000E+00  0.39999999674E+01  0.40000000000E+01  0.51100000000E-03 0.  1.
    9000002   -1    0    0    0    0 -0.00000000000E+00 -0.00000000000E+00  0.00000000000E+00  0.93800000000E+00  0.93800000000E+00 0.  1.
         11    1    1    2    0    0 -0.31428890121E+00 -0.90453100521E-01  0.35770076009E+01  0.35919274652E+01  0.51100000000E-03 0.  1.
    9000002    1    1    2    0    0  0.11197005325E+00  0.18696744569E+00  0.12185375669E+00  0.97066289544E+00  0.93800000000E+00 0.  1.
         22    1    1    2    0    0  0.20231884796E+00 -0.96514345170E-01  0.30113860973E+00  0.37540963937E+00  0.00000000000E+00 0. -1.
</event>
<event>
 5    1  0.3269840E+002  0.1599481E+01  0.7818608E-02  0.3353927E+00
         11   -1    0    0    0    0  0.00000000000E+00  0.00000000000E+00  0.39999999674E+01  0.40000000000E+01  0.51100000000E-03 0. -1.
    9000002   -1    0    0    0    0 -0.00000000000E+00 -0.00000000000E+00  0.00000000000E+00  0.93800000000E+00  0.93800000000E+00 0. -1.
         11    1    1    2    0    0 -0.14582906189E+00  0.95116885048E-01  0.16452923157E+01  0.16544788914E+01  0.51100000000E-03 0. -1.
    9000002    1    1    2    0    0  0.34941220120E+00 -0.26253968616E+00  0.12965943214E+00  0.10429149253E+01  0.93800000000E+00 0. -1.
         22    1    1    2    0    0 -0.20358313930E+00  0.16742280111E+00  0.22250482196E+01  0.22406061832E+01  0.00000000000E+00 0.  1.
</event>
<event>
 5    1  0.3269840E+002  0.1599264E+01  0.7818608E-02  0.3354163E+00
         11   -1    0    0    0    0  0.00000000000E+00  0.00000000000E+00  0.39999999674E+01  0.40000000000E+01  0.51100000000E-03 0.  1.
    9000002   -1    0    0    0    0 -0.00000000000E+00 -0.00000000000E+00  0.00000000000E+00  0.93800000000E+00  0.93800000000E+00 0.  1.
         11    1    1    2    0    0 -0.71591239073E-01 -0.26692839015E-01  0.47617218942E+00  0.48226344280E+00  0.51100000000E-03 0.  1.
    9000002    1    1    2    0    0  0.47693443994E+00  0.30297551072E+00  0.22155119834E+00  0.11172240391E+01  0.93800000000E+00 0.  1.
         22    1    1    2    0    0 -0.40534320086E+00 -0.27628267171E+00  0.33022765796E+01  0.33385125181E+01  0.00000000000E+00 0.  1.
</event>
<event>
 5    1  0.3269840E+002  0.1599631E+01  0.7818608E-02  0.3353764E+00
         11   -1    0    0    0    0  0.00000000000E+00  0.00000000000E+00  0.39999999674E+01  0.40000000000E+01  0.51100000000E-03 0.  1.
    9000002   -1    0    0    0    0 -0.00000000000E+00 -0.00000000000E+00  0.00000000000E+00  0.93800000000E+00  0.93800000000E+00 0. -1.
         11    1    1    2    0    0 -0.10573337725E+00 -0.53502352666E-01  0.11860382394E+01  0.11919433776E+01  0.51100000000E-03 0.  1.
    9000002    1    1    2    0    0  0.36178108459E+00  0.19465960947E+00  0.11404339047E+00  0.10303532460E+01  0.93800000000E+00 0. -1.
         22    1    1    2    0    0 -0.25604770734E+00 -0.14115725680E+00  0.26999183375E+01  0.27157033764E+01  0.00000000000E+00 0.  1.
</event>
<event>
 5    1  0.3269840E+002  0.1599674E+01  0.7818608E-02  0.3353717E+00
         11   -1    0    0    0    0  0.00000000000E+00  0.00000000000E+00  0.39999999674E+01  0.40000000000E+01  0.51100000000E-03 0.  1.
    9000002   -1    0    0    0    0 -0.00000000000E+00 -0.00000000000E+00  0.00000000000E+00  0.93800000000E+00  0.93800000000E+00 0. -1.
         11    1    1    2    0    0 -0.18162359999E+00 -0.25387292604E+00  0.15580234001E+01  0.15889857680E+01  0.51100000000E-03 0.  1.
    9000002    1    1    2    0    0  0.42495721832E+00  0.59283047307E+00  0.38336087656E+00  0.12485376121E+01  0.93800000000E+00 0. -1.
         22    1    1    2    0    0 -0.24333361833E+00 -0.33895754703E+00  0.20586156907E+01  0.21004766199E+01  0.00000000000E+00 0.  1.
</event>
<event>
 5    1  0.3269840E+002  0.1599665E+01  0.7818608E-02  0.3353727E+00
         11   -1    0    0    0    0  0.00000000000E+00  0.00000000000E+00  0.39999999674E+01  0.40000000000E+01  0.51100000000E-03 0.  1.
    9000002   -1    0    0    0    0 -0.00000000000E+00 -0.00000000000E+00  0.00000000000E+00  0.93800000000E+00  0.93800000000E+00 0. -1.
         11    1    1    2    0    0 -0.36462227023E-02 -0.58623839293E-02  0.83856264750E-01  0.84141528059E-01  0.51100000000E-03 0.  1.
    9000002    1    1    2    0    0  0.12010509313E+00  0.26634632810E+00  0.56917034652E-01  0.98409813978E+00  0.93800000000E+00 0. -1.
         22    1    1    2    0    0 -0.11645887043E+00 -0.26048394417E+00  0.38592266680E+01  0.38697603322E+01  0.00000000000E+00 0.  1.
</event>
<event>
 5    1  0.3269840E+002  0.1599675E+01  0.7818608E-02  0.3353716E+00
         11   -1    0    0    0    0  0.00000000000E+00  0.00000000000E+00  0.39999999674E+01  0.40000000000E+01  0.51100000000E-03 0.  1.
    9000002   -1    0    0    0    0 -0.00000000000E+00 -0.00000000000E+00  0.00000000000E+00  0.93800000000E+00  0.93800000000E+00 0. -1.
         11    1    1    2    0    0  0.21432588671E-01 -0.23996708452E-01  0.38634721845E+00  0.38768496514E+00  0.51100000000E-03 0.  1.
    9000002    1    1    2    0    0 -0.21004752727E+00  0.24867282016E+00  0.70863352805E-01  0.99540130097E+00  0.93800000000E+00 0. -1.
         22    1    1    2    0    0  0.18861493860E+00 -0.22467611171E+00  0.35427893961E+01  0.35549137339E+01  0.00000000000E+00 0.  1.
</event>
<event>
 5    1  0.3269840E+002  0.1599675E+01  0.7818608E-02  0.3353716E+00
         11   -1    0    0    0    0  0.00000000000E+00  0.00000000000E+00  0.39999999674E+01  0.40000000000E+01  0.51100000000E-03 0. -1.
    9000002   -1    0    0    0    0 -0.00000000000E+00 -0.00000000000E+00  0.00000000000E+00  0.93800000000E+00  0.93800000000E+00 0. -1.
         11    1    1    2    0    0 -0.25814470957E-01 -0.12878532503E+00  0.13178819544E+01  0.13244112480E+01  0.51100000000E-03 0. -1.
    9000002    1    1    2    0    0  0.75442298981E-01  0.38497051397E+00  0.10370432948E+00  0.10220041218E+01  0.93800000000E+00 0. -1.
         22    1    1    2    0    0 -0.49627828024E-01 -0.25618518895E+00  0.25784136835E+01  0.25915846302E+01  0.00000000000E+00 0.  1.
</event>
<event>
 5    1  0.3269840E+002  0.1542811E+01  0.7818608E-02  0.3417874E+00
         11   -1    0    0    0    0  0.00000000000E+00  0.00000000000E+00  0.39999999674E+01  0.40000000000E+01  0.51100000000E-03 0. -1.
    9000002   -1    0    0    0    0 -0.00000000000E+00 -0.00000000000E+00  0.00000000000E+00  0.93800000000E+00  0.93800000000E+00 0.  1.
         11    1    1    2    0    0 -0.92782309974E-01  0.82341451661E-01  0.13406309542E+00  0.18265225534E+00  0.51100000000E-03 0. -1.
    9000002    1    1    2    0    0 -0.71380822190E-01 -0.47921562785E+00  0.21270198841E+00  0.10769535624E+01  0.93800000000E+00 0.  1.
         22    1    1    2    0    0  0.16416313216E+00  0.39687417619E+00  0.36532348835E+01  0.36783941822E+01  0.00000000000E+00 0. -1.
</event>
<event>
 5    1  0.3269840E+002  0.1599597E+01  0.7818608E-02  0.3353801E+00
         11   -1    0    0    0    0  0.00000000000E+00  0.00000000000E+00  0.39999999674E+01  0.40000000000E+01  0.51100000000E-03 0. -1.
    9000002   -1    0    0    0    0 -0.00000000000E+00 -0.00000000000E+00  0.00000000000E+00  0.93800000000E+00  0.93800000000E+00 0. -1.
         11    1    1    2    0    0  0.13455480776E-01 -0.35858603260E-01  0.59594430074E+00  0.59717397808E+00  0.51100000000E-03 0. -1.
    9000002    1    1    2    0    0 -0.81879229341E-01  0.28758556020E+00  0.59703264402E-01  0.98631543758E+00  0.93800000000E+00 0. -1.
         22    1    1    2    0    0  0.68423748564E-01 -0.25172695694E+00  0.33443524022E+01  0.33545105843E+01  0.00000000000E+00 0. -1.
</event>
<event>
 5    1  0.3269840E+002  0.1546283E+01  0.7818608E-02  0.3413812E+00
         11   -1    0    0    0    0  0.00000000000E+00  0.00000000000E+00  0.39999999674E+01  0.40000000000E+01  0.51100000000E-03 0.  1.
    9000002   -1    0    0    0    0 -0.00000000000E+00 -0.00000000000E+00  0.00000000000E+00  0.93800000000E+00  0.93800000000E+00 0.  1.
         11    1    1    2    0    0 -0.12552117443E+00 -0.18966753952E+00  0.18352656925E+01  0.18493052112E+01  0.51100000000E-03 0.  1.
    9000002    1    1    2    0    0 -0.10707363023E-01 -0.11858759140E+00  0.49544046721E-01  0.94682431159E+00  0.93800000000E+00 0.  1.
         22    1    1    2    0    0  0.13622853745E+00  0.30825513092E+00  0.21151902281E+01  0.21418704772E+01  0.00000000000E+00 0.  1.
</event>
<event>
 5    1  0.3269840E+002  0.1599633E+01  0.7818608E-02  0.3353762E+00
         11   -1    0    0    0    0  0.00000000000E+00  0.00000000000E+00  0.39999999674E+01  0.40000000000E+01  0.51100000000E-03 0. -1.
    9000002   -1    0    0    0    0 -0.00000000000E+00 -0.00000000000E+00  0.00000000000E+00  0.93800000000E+00  0.93800000000E+00 0. -1.
         11    1    1    2    0    0 -0.51906025955E-03  0.22641804853E-02  0.18287574087E-01  0.18441594936E-01  0.51100000000E-03 0. -1.
    9000002    1    1    2    0    0  0.98982028917E-01 -0.28116666567E+00  0.59297983721E-01  0.98600830970E+00  0.93800000000E+00 0. -1.
         22    1    1    2    0    0 -0.98462968658E-01  0.27890248518E+00  0.39224144096E+01  0.39335500954E+01  0.00000000000E+00 0. -1.
</event>
<event>
 5    1  0.3269840E+002  0.1599619E+01  0.7818608E-02  0.3353777E+00
         11   -1    0    0    0    0  0.00000000000E+00  0.00000000000E+00  0.39999999674E+01  0.40000000000E+01  0.51100000000E-03 0.  1.
    9000002   -1    0    0    0    0 -0.00000000000E+00 -0.00000000000E+00  0.00000000000E+00  0.93800000000E+00  0.93800000000E+00 0.  1.
         11    1    1    2    0    0  0.10553562664E+00 -0.17609092160E+00  0.16863788122E+01  0.16988288733E+01  0.51100000000E-03 0.  1.
    9000002    1    1    2    0    0 -0.25735905866E+00  0.38937943109E+00  0.14838502612E+00  0.10581645158E+01  0.93800000000E+00 0.  1.
         22    1    1    2    0    0  0.15182343201E+00 -0.21328850949E+00  0.21652361290E+01  0.21810066110E+01  0.00000000000E+00 0. -1.
</event>
<event>
 5    1  0.3269840E+002  0.1599429E+01  0.7818608E-02  0.3353983E+00
         11   -1    0    0    0    0  0.00000000000E+00  0.00000000000E+00  0.39999999674E+01  0.40000000000E+01  0.51100000000E-03 0. -1.
    9000002   -1    0    0    0    0 -0.00000000000E+00 -0.00000000000E+00  0.00000000000E+00  0.93800000000E+00  0.93800000000E+00 0.  1.
         11    1    1    2    0    0 -0.48913216082E-01  0.10061307227E+00  0.82385317919E+00  0.83141434616E+00  0.51100000000E-03 0. -1.
    9000002    1    1    2    0    0  0.27588438516E+00 -0.41401613651E+00  0.16959456813E+00  0.10752338689E+01  0.93800000000E+00 0.  1.
         22    1    1    2    0    0 -0.22697116908E+00  0.31340306425E+00  0.30065522200E+01  0.30313517850E+01  0.00000000000E+00 0. -1.
</event>
<event>
 5    1  0.3269840E+002  0.1599675E+01  0.7818608E-02  0.3353717E+00
         11   -1    0    0    0    0  0.00000000000E+00  0.00000000000E+00  0.39999999674E+01  0.40000000000E+01  0.51100000000E-03 0.  1.
    9000002   -1    0    0    0    0 -0.00000000000E+00 -0.00000000000E+00  0.00000000000E+00  0.93800000000E+00  0.93800000000E+00 0.  1.
         11    1    1    2    0    0  0.11595571543E+00 -0.22847791215E+00  0.20932097707E+01  0.21088326841E+01  0.51100000000E-03 0.  1.
    9000002    1    1    2    0    0 -0.21531815487E+00  0.41745858704E+00  0.15030091923E+00  0.10597490014E+01  0.93800000000E+00 0.  1.
         22    1    1    2    0    0  0.99362439437E-01 -0.18898067488E+00  0.17564892774E+01  0.17694183145E+01  0.00000000000E+00 0. -1.
</event>
<event>
 5    1  0.3269840E+002  0.1599675E+01  0.7818608E-02  0.3353716E+00
         11   -1    0    0    0    0  0.00000000000E+00  0.00000000000E+00  0.39999999674E+01  0.40000000000E+01  0.51100000000E-03 0.  1.
    9000002   -1    0    0    0    0 -0.00000000000E+00 -0.00000000000E+00  0.00000000000E+00  0.93800000000E+00  0.93800000000E+00 0.  1.
         11    1    1    2    0    0 -0.21815974548E-01  0.22258025982E-01  0.45843231204E+00  0.45949080764E+00  0.51100000000E-03 0.  1.
    9000002    1    1    2    0    0  0.19646652707E+00 -0.18935976429E+00  0.49553001050E-01  0.97813890450E+00  0.93800000000E+00 0.  1.
         22    1    1    2    0    0 -0.17465055252E+00  0.16710173831E+00  0.34920146543E+01  0.35003702879E+01  0.00000000000E+00 0.  1.
</event>
<event>
 5    1  0.3269840E+002  0.1476999E+01  0.7818608E-02  0.3498734E+00
         11   -1    0    0    0    0  0.00000000000E+00  0.00000000000E+00  0.39999999674E+01  0.40000000000E+01  0.51100000000E-03 0. -1.
    9000002   -1    0    0    0    0 -0.00000000000E+00 -0.00000000000E+00  0.00000000000E+00  0.93800000000E+00  0.93800000000E+00 0. -1.
         11    1    1    2    0    0  0.10263336770E+00 -0.38203783068E+00  0.27644123786E+01  0.27925727515E+01  0.51100000000E-03 0. -1.
    9000002    1    1    2    0    0  0.26309728728E+00  0.19284963403E+00  0.17591438050E+00  0.10085638469E+01  0.93800000000E+00 0. -1.
         22    1    1    2    0    0 -0.36573065498E+00  0.18918819665E+00  0.10596732083E+01  0.11368634017E+01  0.00000000000E+00 0. -1.
</event>
<event>
 5    1  0.3269840E+002  0.1599640E+01  0.7818608E-02  0.3353754E+00
         11   -1    0    0    0    0  0.00000000000E+00  0.00000000000E+00  0.39999999674E+01  0.40000000000E+01  0.51100000000E-03 0.  1.
    9000002   -1    0    0    0    0 -0.00000000000E+00 -0.00000000000E+00  0.00000000000E+00  0.93800000000E+00  0.93800000000E+00 0.  1.
         11    1    1    2    0    0 -0.42155333927E-01  0.73360759790E-01  0.11021692382E+01  0.11054122145E+01  0.51100000000E-03 0.  1.
    9000002    1    1    2    0    0  0.12730435631E+00 -0.26442111389E+00  0.57449527729E-01  0.98451479057E+00  0.93800000000E+00 0.  1.
         22    1    1    2    0    0 -0.85149022382E-01  0.19106035410E+00  0.28403812014E+01  0.28480729949E+01  0.00000000000E+00 0.  1.
</event>
<event>
 5    1  0.3269840E+002  0.1598305E+01  0.7818608E-02  0.3355206E+00
         11   -1    0    0    0    0  0.00000000000E+00  0.00000000000E+00  0.39999999674E+01  0.40000000000E+01  0.51100000000E-03 0.  1.
    9000002   -1    0    0    0    0 -0.00000000000E+00 -0.00000000000E+00  0.00000000000E+00  0.93800000000E+00  0.93800000000E+00 0.  1.
         11    1    1    2    0    0 -0.32725891002E-02  0.97971241067E-02  0.27310904643E+00  0.27330478562E+00  0.51100000000E-03 0.  1.
    9000002    1    1    2    0    0  0.11079330019E+00  0.17939118924E+00  0.30484004021E-01  0.96188857393E+00  0.93800000000E+00 0.  1.
         22    1    1    2    0    0 -0.10752071109E+00 -0.18918831335E+00  0.36964069169E+01  0.37028066405E+01  0.00000000000E+00 0.  1.
</event>
<event>
 5    1  0.3269840E+002  0.1565844E+01  0.7818608E-02  0.3391290E+00
         11   -1    0    0    0    0  0.00000000000E+00  0.00000000000E+00  0.39999999674E+01  0.40000000000E+01  0.51100000000E-03 0. -1.
    9000002   -1    0    0    0    0 -0.00000000000E+00 -0.00000000000E+00  0.00000000000E+00  0.93800000000E+00  0.93800000000E+00 0. -1.
         11    1    1    2    0    0 -0.47150552122E-01 -0.32301100653E-01  0.81556515209E-01  0.99590471246E-01  0.51100000000E-03 0. -1.
    9000002    1    1    2    0    0 -0.28896763903E+00 -0.31242816822E+00  0.15184113070E+00  0.10411596351E+01  0.93800000000E+00 0. -1.
         22    1    1    2    0    0  0.33611819115E+00  0.34472926887E+00  0.37666023214E+01  0.37972498937E+01  0.00000000000E+00 0. -1.
</event>
<event>
 5    1  0.3269840E+002  0.1593109E+01  0.7818608E-02  0.3360877E+00
         11   -1    0    0    0    0  0.00000000000E+00  0.00000000000E+00  0.39999999674E+01  0.40000000000E+01  0.51100000000E-03 0. -1.
    9000002   -1    0    0    0    0 -0.00000000000E+00 -0.00000000000E+00  0.00000000000E+00  0.93800000000E+00  0.93800000000E+00 0. -1.
         11    1    1    2    0    0  0.27330309305E-01 -0.20208313368E-01  0.17285569248E+00  0.17616660660E+00  0.51100000000E-03 0. -1.
    9000002    1    1    2    0    0 -0.25781223244E-01 -0.22767060872E+00  0.39813656382E-01  0.96639935057E+00  0.93800000000E+00 0. -1.
         22    1    1    2    0    0 -0.15490860608E-02  0.24787892209E+00  0.37873306185E+01  0.37954340428E+01  0.00000000000E+00 0. -1.
</event>
<event>
 5    1  0.3269840E+002  0.1599669E+01  0.7818608E-02  0.3353723E+00
         11   -1    0    0    0    0  0.00000000000E+00  0.00000000000E+00  0.39999999674E+01  0.40000000000E+01  0.51100000000E-03 0. -1.
    9000002   -1    0    0    0    0 -0.00000000000E+00 -0.00000000000E+00  0.00000000000E+00  0.93800000000E+00  0.93800000000E+00 0.  1.
         11    1    1    2    0    0  0.30237449523E-01 -0.21441922513E-01  0.37583995585E+00  0.37766386236E+00  0.51100000000E-03 0. -1.
    9000002    1    1    2    0    0 -0.32153047388E+00  0.24037066707E+00  0.10873234729E+00  0.10260734021E+01  0.93800000000E+00 0.  1.
         22    1    1    2    0    0  0.29129302436E+00 -0.21892874455E+00  0.35154276642E+01  0.35342627355E+01  0.00000000000E+00 0. -1.
</event>
<event>
 5    1  0.3269840E+002  0.1596424E+01  0.7818608E-02  0.3357254E+00
         11   -1    0    0    0    0  0.00000000000E+00  0.00000000000E+00  0.39999999674E+01  0.40000000000E+01  0.51100000000E-03 0.  1.
    9000002   -1    0    0    0    0 -0.00000000000E+00 -0.00000000000E+00  0.00000000000E+00  0.93800000000E+00  0.93800000000E+00 0.  1.
         11    1    1    2    0    0 -0.12209928301E-02 -0.32160016012E-01  0.11929375526E+01  0.11933717036E+01  0.51100000000E-03 0.  1.
    9000002    1    1    2    0    0 -0.20388843293E+00  0.82530395501E-01  0.34530269512E-01  0.96406332716E+00  0.93800000000E+00 0.  1.
         22    1    1    2    0    0  0.20510942576E+00 -0.50370379489E-01  0.27725321453E+01  0.27805649693E+01  0.00000000000E+00 0.  1.
</event>
<event>
 5    1  0.3269840E+002  0.1571115E+01  0.7818608E-02  0.3385323E+00
         11   -1    0    0    0    0  0.00000000000E+00  0.00000000000E+00  0.39999999674E+01  0.40000000000E+01  0.51100000000E-03 0.  1.
    9000002   -1    0    0    0    0 -0.00000000000E+00 -0.00000000000E+00  0.00000000000E+00  0.93800000000E+00  0.93800000000E+00 0.  1.
         11    1    1    2    0    0  0.35002398552E-01 -0.11398617856E+00  0.38114480484E+00  0.39936154070E+00  0.51100000000E-03 0.  1.
    9000002    1    1    2    0    0 -0.18232696563E+00 -0.60285550018E-01  0.46060003682E-01  0.95856298378E+00  0.93800000000E+00 0.  1.
         22    1    1    2    0    0  0.14732456708E+00  0.17427172858E+00  0.35727951588E+01  0.35800754755E+01  0.00000000000E+00 0.  1.
</event>
<event>
 5    1  0.3269840E+002  0.1599472E+01  0.7818608E-02  0.3353936E+00
         11   -1    0    0    0    0  0.00000000000E+00  0.00000000000E+00  0.39999999674E+01  0.40000000000E+01  0.51100000000E-03 0.  1.
    9000002   -1    0    0    0    0 -0.00000000000E+00 -0.00000000000E+00  0.00000000000E+00  0.93800000000E+00  0.93800000000E+00 0.  1.
         11    1    1    2    0    0 -0.33837602181E-01  0.51183795143E-01  0.73720009410E+00  0.73974928460E+00  0.51100000000E-03 0.  1.
    9000002    1    1    2    0    0  0.23305150621E+00 -0.31709602535E+00  0.10454172016E+00  0.10225633795E+01  0.93800000000E+00 0.  1.
         22    1    1    2    0    0 -0.19921390403E+00  0.26591223021E+00  0.31582581531E+01  0.31756873359E+01  0.00000000000E+00 0.  1.
</event>
<event>
 5    1  0.3269840E+002  0.1599674E+01  0.7818608E-02  0.3353717E+00
         11   -1    0    0    0    0  0.00000000000E+00  0.00000000000E+00  0.39999999674E+01  0.40000000000E+01  0.51100000000E-03 0. -1.
    9000002   -1    0    0    0    0 -0.00000000000E+00 -0.00000000000E+00  0.00000000000E+00  0.93800000000E+00  0.93800000000E+00 0.  1.
         11    1    1    2    0    0  0.14252567512E-01 -0.14887857423E-01  0.26364825321E+00  0.26445310836E+00  0.51100000000E-03 0. -1.
    9000002    1    1    2    0    0 -0.19980034760E+00  0.22390765328E+00  0.60079294587E-01  0.98666526124E+00  0.93800000000E+00 0.  1.
         22    1    1    2    0    0  0.18554778009E+00 -0.20901979586E+00  0.36762724196E+01  0.36868816304E+01  0.00000000000E+00 0. -1.
</event>
<event>
 5    1  0.3269840E+002  0.1599571E+01  0.7818608E-02  0.3353829E+00
         11   -1    0    0    0    0  0.00000000000E+00  0.00000000000E+00  0.39999999674E+01  0.40000000000E+01  0.51100000000E-03 0. -1.
    9000002   -1    0    0    0    0 -0.00000000000E+00 -0.00000000000E+00  0.00000000000E+00  0.93800000000E+00  0.93800000000E+00 0. -1.
         11    1    1    2    0    0 -0.34816347669E+00  0.10504935624E-02  0.22085135787E+01  0.22357887643E+01  0.51100000000E-03 0. -1.
    9000002    1    1    2    0    0  0.58016174615E+00 -0.17731072065E-01  0.23420035353E+00  0.11276505878E+01  0.93800000000E+00 0. -1.
         22    1    1    2    0    0 -0.23199826946E+00  0.16680578502E-01  0.15572860351E+01  0.15745606479E+01  0.00000000000E+00 0. -1.
</event>
<event>
 5    1  0.3269840E+002  0.1597945E+01  0.7818608E-02  0.3355597E+00
         11   -1    0    0    0    0  0.00000000000E+00  0.00000000000E+00  0.39999999674E+01  0.40000000000E+01  0.51100000000E-03 0.  1.
    9000002   -1    0    0    0    0 -0.00000000000E+00 -0.00000000000E+00  0.00000000000E+00  0.93800000000E+00  0.93800000000E+00 0. -1.
         11    1    1    2    0    0 -0.23514274986E-01  0.74820740616E-01  0.67404154672E+00  0.67858922198E+00  0.51100000000E-03 0.  1.
    9000002    1    1    2    0    0 -0.35759199666E-01 -0.30003513163E+00  0.62278153828E-01  0.98743220983E+00  0.93800000000E+00 0. -1.
         22    1    1    2    0    0  0.59273474652E-01  0.22521439102E+00  0.32636802668E+01  0.32719785682E+01  0.00000000000E+00 0.  1.
</event>
<event>
 5    1  0.3269840E+002  0.1599633E+01  0.7818608E-02  0.3353762E+00
         11   -1    0    0    0    0  0.00000000000E+00  0.00000000000E+00  0.39999999674E+01  0.40000000000E+01  0.51100000000E-03 0. -1.
    9000002   -1    0    0    0    0 -0.00000000000E+00 -0.00000000000E+00  0.00000000000E+00  0.93800000000E+00  0.93800000000E+00 0.  1.
         11    1    1    2    0    0 -0.88597945915E-01 -0.24757532418E-01  0.10712906547E+01  0.10752332116E+01  0.51100000000E-03 0. -1.
    9000002    1    1    2    0    0  0.30308738556E+00  0.10486633524E+00  0.68790707789E-01  0.99369767688E+00  0.93800000000E+00 0.  1.
         22    1    1    2    0    0 -0.21448943965E+00 -0.80108802823E-01  0.28599186049E+01  0.28690691115E+01  0.00000000000E+00 0. -1.
</event>
<event>
 5    1  0.3269840E+002  0.1599672E+01  0.7818608E-02  0.3353720E+00
         11   -1    0    0    0    0  0.00000000000E+00  0.00000000000E+00  0.39999999674E+01  0.40000000000E+01  0.51100000000E-03 0.  1.
    9000002   -1    0    0    0    0 -0.00000000000E+00 -0.00000000000E+00  0.00000000000E+00  0.93800000000E+00  0.93800000000E+00 0.  1.
         11    1    1    2    0    0 -0.12935009407E+00 -0.19935548945E-01  0.12891006319E+01  0.12957274302E+01  0.51100000000E-03 0.  1.
    9000002    1    1    2    0    0  0.39284508274E+00  0.67766208566E-01  0.10718024257E+00  0.10248176045E+01  0.93800000000E+00 0.  1.
         22    1    1    2    0    0 -0.26349498867E+00 -0.47830659621E-01  0.26037190929E+01  0.26174549654E+01  0.00000000000E+00 0.  1.
</event>
<event>
 5    1  0.3269840E+002  0.1599648E+01  0.7818608E-02  0.3353745E+00
         11   -1    0    0    0    0  0.00000000000E+00  0.00000000000E+00  0.39999999674E+01  0.40000000000E+01  0.51100000000E-03 0.  1.
    9000002   -1    0    0    0    0 -0.00000000000E+00 -0.00000000000E+00  0.00000000000E+00  0.93800000000E+00  0.93800000000E+00 0. -1.
         11    1    1    2    0    0  0.17548235985E+00 -0.22132629898E-01  0.12164741213E+01  0.12292654151E+01  0.51100000000E-03 0.  1.
    9000002    1    1    2    0    0 -0.56362289622E+00  0.68205010640E-01  0.22342302959E+00  0.11189658363E+01  0.93800000000E+00 0. -1.
         22    1    1    2    0    0  0.38814053637E+00 -0.46072380742E-01  0.25601028165E+01  0.25897687486E+01  0.00000000000E+00 0.  1.
</event>
<event>
 5    1  0.3269840E+002  0.1582843E+01  0.7818608E-02  0.3372198E+00
         11   -1    0    0    0    0  0.00000000000E+00  0.00000000000E+00  0.39999999674E+01  0.40000000000E+01  0.51100000000E-03 0.  1.
    9000002   -1    0    0    0    0 -0.00000000000E+00 -0.00000000000E+00  0.00000000000E+00  0.93800000000E+00  0.93800000000E+00 0. -1.
         11    1    1    2    0    0  0.71507656182E-01 -0.15785636538E-01  0.26429369614E+01  0.26439513185E+01  0.51100000000E-03 0.  1.
    9000002    1    1    2    0    0 -0.22364207089E+00 -0.16194896990E+00  0.63888932028E-01  0.97988215636E+00  0.93800000000E+00 0. -1.
         22    1    1    2    0    0  0.15213441471E+00  0.17773460644E+00  0.12931740739E+01  0.13141665252E+01  0.00000000000E+00 0.  1.
</event>
<event>
 5    1  0.3269840E+002  0.1599631E+01  0.7818608E-02  0.3353764E+00
         11   -1    0    0    0    0  0.00000000000E+00  0.00000000000E+00  0.39999999674E+01  0.40000000000E+01  0.51100000000E-03 0. -1.
    9000002   -1    0    0    0    0 -0.00000000000E+00 -0.00000000000E+00  0.00000000000E+00  0.93800000000E+00  0.93800000000E+00 0. -1.
         11    1    1    2    0    0 -0.23008802097E+00 -0.11632096482E+00  0.16890264031E+01  0.17085905056E+01  0.51100000000E-03 0. -1.
    9000002    1    1    2    0    0  0.52714994676E+00  0.24816024382E+00  0.23603365415E+00  0.11291706952E+01  0.93800000000E+00 0. -1.
         22    1    1    2    0    0 -0.29706192579E+00 -0.13183927900E+00  0.20749399101E+01  0.21002387993E+01  0.00000000000E+00 0. -1.
</event>
<event>
 5    1  0.3269840E+002  0.1590936E+01  0.7818608E-02  0.3363260E+00
         11   -1    0    0    0    0  0.00000000000E+00  0.00000000000E+00  0.39999999674E+01  0.40000000000E+01  0.51100000000E-03 0. -1.
    9000002   -1    0    0    0    0 -0.00000000000E+00 -0.00000000000E+00  0.00000000000E+00  0.93800000000E+00  0.93800000000E+00 0. -1.
         11    1    1    2    0    0 -0.25740488684E-01 -0.41868276160E-01  0.75653241332E+00  0.75812735001E+00  0.51100000000E-03 0. -1.
    9000002    1    1    2    0    0 -0.13234180867E+00 -0.15907088763E+00  0.34953887655E-01  0.96118867860E+00  0.93800000000E+00 0. -1.
         22    1    1    2    0    0  0.15808229736E+00  0.20093916379E+00  0.32085136664E+01  0.32186839714E+01  0.00000000000E+00 0. -1.
</event>
<event>
 5    1  0.3269840E+002  0.1595476E+01  0.7818608E-02  0.3358289E+00
         11   -1    0    0    0    0  0.00000000000E+00  0.00000000000E+00  0.39999999674E+01  0.40000000000E+01  0.51100000000E-03 0.  1.
    9000002   -1    0    0    0    0 -0.00000000000E+00 -0.00000000000E+00  0.00000000000E+00  0.93800000000E+00  0.93800000000E+00 0. -1.
         11    1    1    2    0    0  0.25854257814E-02 -0.24865065579E-01  0.92832347791E+00  0.92866016210E+00  0.51100000000E-03 0.  1.
    9000002    1    1    2    0    0  0.13250247268E+00 -0.13692965722E+00  0.27167107531E-01  0.95754304761E+00  0.93800000000E+00 0. -1.
         22    1    1    2    0    0 -0.13508789846E+00  0.16179472280E+00  0.30445093819E+01  0.30517967903E+01  0.00000000000E+00 0.  1.
</event>
<event>
 5    1  0.3269840E+002  0.1599131E+01  0.7818608E-02  0.3354307E+00
         11   -1    0    0    0    0  0.00000000000E+00  0.00000000000E+00  0.39999999674E+01  0.40000000000E+01  0.51100000000E-03 0. -1.
    9000002   -1    0    0    0    0 -0.00000000000E+00 -0.00000000000E+00  0.00000000000E+00  0.93800000000E+00  0.93800000000E+00 0. -1.
         11    1    1    2    0    0  0.30764000196E+00 -0.14263826799E+00  0.19558433944E+01  0.19850218363E+01  0.51100000000E-03 0. -1.
    9000002    1    1    2    0    0 -0.61392545448E+00  0.22753051932E+00  0.30341760059E+00  0.11834613814E+01  0.93800000000E+00 0. -1.
         22    1    1    2    0    0  0.30628545252E+00 -0.84892251326E-01  0.17407389724E+01  0.17695167823E+01  0.00000000000E+00 0. -1.
</event>
<event>
 5    1  0.3269840E+002  0.1584671E+01  0.7818608E-02  0.3370171E+00
         11   -1    0    0    0    0  0.00000000000E+00  0.00000000000E+00  0.39999999674E+01  0.40000000000E+01  0.51100000000E-03 0. -1.
    9000002   -1    0    0    0    0 -0.00000000000E+00 -0.00000000000E+00  0.00000000000E+00  0.93800000000E+00  0.93800000000E+00 0.  1.
         11    1    1    2    0    0  0.58469776265E-01  0.18780440394E-01  0.20670021674E+00  0.21563084287E+00  0.51100000000E-03 0. -1.
    9000002    1    1    2    0    0  0.26058553828E-01  0.17489174442E+00  0.31916107019E-01  0.95505434839E+00  0.93800000000E+00 0.  1.
         22    1    1    2    0    0 -0.84528330093E-01 -0.19367218481E+00  0.37613836436E+01  0.37673148087E+01  0.00000000000E+00 0. -1.
</event>
<event>
 5    1  0.3269840E+002  0.1599506E+01  0.7818608E-02  0.3353900E+00
         11   -1    0    0    0    0  0.00000000000E+00  0.00000000000E+00  0.39999999674E+01  0.40000000000E+01  0.51100000000E-03 0.  1.
    9000002   -1    0    0    0    0 -0.00000000000E+00 -0.00000000000E+00  0.00000000000E+00  0.93800000000E+00  0.93800000000E+00 0.  1.
         11    1    1    2    0    0  0.18212838962E-01  0.41153104991E-03  0.17506194340E+00  0.17600801689E+00  0.51100000000E-03 0.  1.
    9000002    1    1    2    0    0 -0.31891542772E+00 -0.12400912565E+00  0.78577020356E-01  0.10015506285E+01  0.93800000000E+00 0.  1.
         22    1    1    2    0    0  0.30070258876E+00  0.12359759460E+00  0.37463610036E+01  0.37604413546E+01  0.00000000000E+00 0.  1.
</event>
<event>
 5    1  0.3269840E+002  0.1599663E+01  0.7818608E-02  0.3353729E+00
         11   -1    0    0    0    0  0.00000000000E+00  0.00000000000E+00  0.39999999674E+01  0.40000000000E+01  0.51100000000E-03 0. -1.
    9000002   -1    0    0    0    0 -0.00000000000E+00 -0.00000000000E+00  0.00000000000E+00  0.93800000000E+00  0.93800000000E+00 0. -1.
         11    1    1    2    0    0  0.99830767440E-01 -0.51410400760E-01  0.99165175339E+00  0.99798931485E+00  0.51100000000E-03 0. -1.
    9000002    1    1    2    0    0 -0.37721109312E+00  0.19309387810E+00  0.12152062182E+00  0.10364288283E+01  0.93800000000E+00 0. -1.
         22    1    1    2    0    0  0.27738032568E+00 -0.14168347734E+00  0.28868275921E+01  0.29035818569E+01  0.00000000000E+00 0. -1.
</event>
<event>
 5    1  0.3269840E+002  0.1599635E+01  0.7818608E-02  0.3353760E+00
         11   -1    0    0    0    0  0.00000000000E+00  0.00000000000E+00  0.39999999674E+01  0.40000000000E+01  0.51100000000E-03 0. -1.
    9000002   -1    0    0    0    0 -0.00000000000E+00 -0.00000000000E+00  0.00000000000E+00  0.93800000000E+00  0.93800000000E+00 0. -1.
         11    1    1    2    0    0 -0.30772546978E-02  0.13321972080E-01  0.30776976731E+00  0.30807374966E+00  0.51100000000E-03 0. -1.
    9000002    1    1    2    0    0  0.11632101990E-01 -0.21770152268E+00  0.31533169660E-01  0.96351834417E+00  0.93800000000E+00 0. -1.
         22    1    1    2    0    0 -0.85548472923E-02  0.20437955060E+00  0.36606970304E+01  0.36664079062E+01  0.00000000000E+00 0. -1.
</event>
<event>
 5    1  0.3269840E+002  0.1599676E+01  0.7818608E-02  0.3353715E+00
         11   -1    0    0    0    0  0.00000000000E+00  0.00000000000E+00  0.39999999674E+01  0.40000000000E+01  0.51100000000E-03 0.  1.
    9000002   -1    0    0    0    0 -0.00000000000E+00 -0.00000000000E+00  0.00000000000E+00  0.93800000000E+00  0.93800000000E+00 0.  1.
         11    1    1    2    0    0  0.11778076936E+00  0.93553925963E-01  0.14218020122E+01  0.14297362938E+01  0.51100000000E-03 0.  1.
    9000002    1    1    2    0    0 -0.32073370373E+00 -0.25761827840E+00  0.11432405922E+00  0.10306072368E+01  0.93800000000E+00 0.  1.
         22    1    1    2    0    0  0.20295293437E+00  0.16406435243E+00  0.24638738959E+01  0.24776564694E+01  0.00000000000E+00 0.  1.
</event>
<event>
 5    1  0.3269840E+002  0.1598849E+01  0.7818608E-02  0.3354614E+00
         11   -1    0    0    0    0  0.00000000000E+00  0.00000000000E+00  0.39999999674E+01  0.40000000000E+01  0.51100000000E-03 0. -1.
    9000002   -1    0    0    0    0 -0.00000000000E+00 -0.00000000000E+00  0.00000000000E+00  0.93800000000E+00  0.93800000000E+00 0.  1.
         11    1    1    2    0    0 -0.46626507389E-01 -0.32131635153E-01  0.41650633773E+00  0.42033827290E+00  0.51100000000E-03 0. -1.
    9000002    1    1    2    0    0  0.27791858943E+00  0.18140000929E+00  0.74369761494E-01  0.99775726865E+00  0.93800000000E+00 0.  1.
         22    1    1    2    0    0 -0.23129208204E+00 -0.14926837414E+00  0.35091238681E+01  0.35199044585E+01  0.00000000000E+00 0. -1.
</event>
<event>
 5    1  0.3269840E+002  0.1596001E+01  0.7818608E-02  0.3357716E+00
         11   -1    0    0    0    0  0.00000000000E+00  0.00000000000E+00  0.39999999674E+01  0.40000000000E+01  0.51100000000E-03 0. -1.
    9000002   -1    0    0    0    0 -0.00000000000E+00 -0.00000000000E+00  0.00000000000E+00  0.93800000000E+00  0.93800000000E+00 0. -1.
         11    1    1    2    0    0  0.42976032733E-01  0.81543358740E-01  0.19575094943E+01  0.19596785297E+01  0.51100000000E-03 0. -1.
    9000002    1    1    2    0    0 -0.22232494207E+00 -0.21940923558E+00  0.68068111300E-01  0.99098237134E+00  0.93800000000E+00 0. -1.
         22    1    1    2    0    0  0.17934890934E+00  0.13786587684E+00  0.19744223618E+01  0.19873390989E+01  0.00000000000E+00 0. -1.
</event>
<event>
 5    1  0.3269840E+002  0.1588199E+01  0.7818608E-02  0.3366273E+00
         11   -1    0    0    0    0  0.00000000000E+00  0.00000000000E+00  0.39999999674E+01  0.40000000000E+01  0.51100000000E-03 0. -1.
    9000002   -1    0    0    0    0 -0.00000000000E+00 -0.00000000000E+00  0.00000000000E+00  0.93800000000E+00  0.93800000000E+00 0.  1.
         11    1    1    2    0    0  0.34540185432E+00  0.31584176423E+00  0.21321074240E+01  0.21828744328E+01  0.51100000000E-03 0. -1.
    9000002    1    1    2    0    0 -0.63748719979E+00 -0.32683944085E+00  0.38170281173E+00  0.12404656329E+01  0.93800000000E+00 0.  1.
         22    1    1    2    0    0  0.29208534547E+00  0.10997676613E-01  0.14861897317E+01  0.15146599343E+01  0.00000000000E+00 0. -1.
</event>
<event>
 5    1  0.3269840E+002  0.1599488E+01  0.7818608E-02  0.3353919E+00
         11   -1    0    0    0    0  0.00000000000E+00  0.00000000000E+00  0.39999999674E+01  0.40000000000E+01  0.51100000000E-03 0.  1.
    9000002   -1    0    0    0    0 -0.00000000000E+00 -0.00000000000E+00  0.00000000000E+00  0.93800000000E+00  0.93800000000E+00 0.  1.
         11    1    1    2    0    0  0.50408086323E-02 -0.72938042863E-02  0.23285136755E+00  0.23302066394E+00  0.51100000000E-03 0.  1.
    9000002    1    1    2    0    0 -0.18512812263E+00  0.21031095014E+00  0.52423685104E-01  0.98035471147E+00  0.93800000000E+00 0.  1.
         22    1    1    2    0    0  0.18008731400E+00 -0.20301714585E+00  0.37147249147E+01  0.37246246246E+01  0.00000000000E+00 0.  1.
</event>
<event>
 5    1  0.3269840E+002  0.1599432E+01  0.7818608E-02  0.3353980E+00
         11   -1    0    0    0    0  0.00000000000E+00  0.00000000000E+00  0.39999999674E+01  0.40000000000E+01  0.51100000000E-03 0. -1.
    9000002   -1    0    0    0    0 -0.00000000000E+00 -0.00000000000E+00  0.00000000000E+00  0.93800000000E+00  0.93800000000E+00 0. -1.
         11    1    1    2    0    0 -0.38503131453E+00 -0.15373042903E+00  0.19498014165E+01  0.19933910763E+01  0.51100000000E-03 0. -1.
    9000002    1    1    2    0    0  0.68442325931E+00  0.26398758407E+00  0.38849869947E+00  0.12525573368E+01  0.93800000000E+00 0. -1.
         22    1    1    2    0    0 -0.29939194478E+00 -0.11025715505E+00  0.16616998513E+01  0.16920515869E+01  0.00000000000E+00 0.  1.
</event>
<event>
 5    1  0.3269840E+002  0.1599610E+01  0.7818608E-02  0.3353786E+00
         11   -1    0    0    0    0  0.00000000000E+00  0.00000000000E+00  0.39999999674E+01  0.40000000000E+01  0.51100000000E-03 0.  1.
    9000002   -1    0    0    0    0 -0.00000000000E+00 -0.00000000000E+00  0.00000000000E+00  0.93800000000E+00  0.93800000000E+00 0. -1.
         11    1    1    2    0    0  0.45546523999E-01  0.24714294389E-01  0.64253858582E+00  0.64462498989E+00  0.51100000000E-03 0.  1.
    9000002    1    1    2    0    0 -0.25892567873E+00 -0.11244873077E+00  0.53127136225E-01  0.98099628784E+00  0.93800000000E+00 0. -1.
         22    1    1    2    0    0  0.21337915473E+00  0.87734436378E-01  0.33043342453E+01  0.33123787223E+01  0.00000000000E+00 0.  1.
</event>
<event>
 5    1  0.3269840E+002  0.1557151E+01  0.7818608E-02  0.3401225E+00
         11   -1    0    0    0    0  0.00000000000E+00  0.00000000000E+00  0.39999999674E+01  0.40000000000E+01  0.51100000000E-03 0.  1.
    9000002   -1    0    0    0    0 -0.00000000000E+00 -0.00000000000E+00  0.00000000000E+00  0.93800000000E+00  0.93800000000E+00 0. -1.
         11    1    1    2    0    0 -0.93765843432E-02  0.18190208977E+00  0.19117330360E+01  0.19203905209E+01  0.51100000000E-03 0.  1.
    9000002    1    1    2    0    0  0.44846984974E-01  0.13631255517E+00  0.45608276044E-01  0.95000867343E+00  0.93800000000E+00 0. -1.
         22    1    1    2    0    0 -0.35470400631E-01 -0.31821464493E+00  0.20426586553E+01  0.20676008056E+01  0.00000000000E+00 0. -1.
</event>
<event>
 5    1  0.3269840E+002  0.1597262E+01  0.7818608E-02  0.3356340E+00
         11   -1    0    0    0    0  0.00000000000E+00  0.00000000000E+00  0.39999999674E+01  0.40000000000E+01  0.51100000000E-03 0. -1.
    9000002   -1    0    0    0    0 -0.00000000000E+00 -0.00000000000E+00  0.00000000000E+00  0.93800000000E+00  0.93800000000E+00 0. -1.
         11    1    1    2    0    0  0.18251716556E-01  0.15542435563E-01  0.11972614771E+00  0.12210366099E+00  0.51100000000E-03 0. -1.
    9000002    1    1    2    0    0  0.16019908579E-03 -0.21787160520E+00  0.33283946374E-01  0.96354547537E+00  0.93800000000E+00 0. -1.
         22    1    1    2    0    0 -0.18411915642E-01  0.20232916963E+00  0.38469898733E+01  0.38523508636E+01  0.00000000000E+00 0. -1.
</event>
<event>
 5    1  0.3269840E+002  0.1599672E+01  0.7818608E-02  0.3353720E+00
         11   -1    0    0    0    0  0.00000000000E+00  0.00000000000E+00  0.39999999674E+01  0.40000000000E+01  0.51100000000E-03 0.  1.
    9000002   -1    0    0    0    0 -0.00000000000E+00 -0.00000000000E+00  0.00000000000E+00  0.93800000000E+00  0.93800000000E+00 0.  1.
         11    1    1    2    0    0 -0.94727286252E-01  0.22763570145E+00  0.20588927675E+01  0.20736033759E+01  0.51100000000E-03 0.  1.
    9000002    1    1    2    0    0  0.18238170792E+00 -0.42535184552E+00  0.14575679125E+00  0.10560664383E+01  0.93800000000E+00 0.  1.
         22    1    1    2    0    0 -0.87654421671E-01  0.19771614407E+00  0.17953504086E+01  0.18083301859E+01  0.00000000000E+00 0.  1.
</event>
<event>
 5    1  0.3269840E+002  0.1582570E+01  0.7818608E-02  0.3372501E+00
         11   -1    0    0    0    0  0.00000000000E+00  0.00000000000E+00  0.39999999674E+01  0.40000000000E+01  0.51100000000E-03 0.  1.
    9000002   -1    0    0    0    0 -0.00000000000E+00 -0.00000000000E+00  0.00000000000E+00  0.93800000000E+00  0.93800000000E+00 0. -1.
         11    1    1    2    0    0 -0.13477157347E-01 -0.38000692783E-02  0.75020003206E-03  0.14032042537E-01  0.51100000000E-03 0.  1.
    9000002    1    1    2    0    0  0.24198815460E+00 -0.48353464376E+00  0.21776480862E+00  0.11043683853E+01  0.93800000000E+00 0. -1.
         22    1    1    2    0    0 -0.22851099725E+00  0.48733471304E+00  0.37814849587E+01  0.38195995721E+01  0.00000000000E+00 0.  1.
</event>
<event>
 5    1  0.3269840E+002  0.1570074E+01  0.7818608E-02  0.3386498E+00
         11   -1    0    0    0    0  0.00000000000E+00  0.00000000000E+00  0.39999999674E+01  0.40000000000E+01  0.51100000000E-03 0. -1.
    9000002   -1    0    0    0    0 -0.00000000000E+00 -0.00000000000E+00  0.00000000000E+00  0.93800000000E+00  0.93800000000E+00 0. -1.
         11    1    1    2    0    0 -0.38831402927E-01 -0.51623699852E-01  0.10644417582E+00  0.12451308335E+00  0.51100000000E-03 0. -1.
    9000002    1    1    2    0    0 -0.66558004490E-01 -0.16373853497E+00  0.43002040442E-01  0.95547551056E+00  0.93800000000E+00 0. -1.
         22    1    1    2    0    0  0.10538940742E+00  0.21536223482E+00  0.38505537511E+01  0.38580114061E+01  0.00000000000E+00 0. -1.
</event>
<event>
 5    1  0.3269840E+002  0.1599675E+01  0.7818608E-02  0.3353716E+00
         11   -1    0    0    0    0  0.00000000000E+00  0.00000000000E+00  0.39999999674E+01  0.40000000000E+01  0.51100000000E-03 0.  1.
    9000002   -1    0    0    0    0 -0.00000000000E+00 -0.00000000000E+00  0.00000000000E+00  0.93800000000E+00  0.93800000000E+00 0.  1.
         11    1    1    2    0    0 -0.15605756118E+00  0.20848410364E-01  0.17340092125E+01  0.17411423919E+01  0.51100000000E-03 0.  1.
    9000002    1    1    2    0    0  0.35537968784E+00 -0.45391314888E-01  0.86144341769E-01  0.10077797089E+01  0.93800000000E+00 0.  1.
         22    1    1    2    0    0 -0.19932212666E+00  0.24542904524E-01  0.21798464130E+01  0.21890778992E+01  0.00000000000E+00 0.  1.
</event>
<event>
 5    1  0.3269840E+002  0.1598466E+01  0.7818608E-02  0.3355030E+00
         11   -1    0    0    0    0  0.00000000000E+00  0.00000000000E+00  0.39999999674E+01  0.40000000000E+01  0.51100000000E-03 0.  1.
    9000002   -1    0    0    0    0 -0.00000000000E+00 -0.00000000000E+00  0.00000000000E+00  0.93800000000E+00  0.93800000000E+00 0.  1.
         11    1    1    2    0    0  0.30842085962E-01  0.12562318753E-01  0.32305074011E+00  0.32476312587E+00  0.51100000000E-03 0.  1.
    9000002    1    1    2    0    0 -0.11286564196E+00 -0.24846211768E+00  0.50497728766E-01  0.97819532695E+00  0.93800000000E+00 0.  1.
         22    1    1    2    0    0  0.82023555997E-01  0.23589979892E+00  0.36264514985E+01  0.36350415472E+01  0.00000000000E+00 0.  1.
</event>
<event>
 5    1  0.3269840E+002  0.1585023E+01  0.7818608E-02  0.3369781E+00
         11   -1    0    0    0    0  0.00000000000E+00  0.00000000000E+00  0.39999999674E+01  0.40000000000E+01  0.51100000000E-03 0.  1.
    9000002   -1    0    0    0    0 -0.00000000000E+00 -0.00000000000E+00  0.00000000000E+00  0.93800000000E+00  0.93800000000E+00 0.  1.
         11    1    1    2    0    0  0.34833767796E-01 -0.11807466950E+00  0.92570408837E+00  0.93385402463E+00  0.51100000000E-03 0.  1.
    9000002    1    1    2    0    0 -0.19409327389E+00 -0.20591355653E-01  0.36257762247E-01  0.95877777833E+00  0.93800000000E+00 0.  1.
         22    1    1    2    0    0  0.15925950609E+00  0.13866602515E+00  0.30380381167E+01  0.30453681970E+01  0.00000000000E+00 0.  1.
</event>
<event>
 5    1  0.3269840E+002  0.1599101E+01  0.7818608E-02  0.3354340E+00
         11   -1    0    0    0    0  0.00000000000E+00  0.00000000000E+00  0.39999999674E+01  0.40000000000E+01  0.51100000000E-03 0.  1.
    9000002   -1    0    0    0    0 -0.00000000000E+00 -0.00000000000E+00  0.00000000000E+00  0.93800000000E+00  0.93800000000E+00 0.  1.
         11    1    1    2    0    0 -0.53348761371E-01  0.33709585140E-01  0.66719115908E+00  0.67016918040E+00  0.51100000000E-03 0.  1.
    9000002    1    1    2    0    0  0.40342704961E+00 -0.10982758554E+00  0.11868415472E+00  0.10338014372E+01  0.93800000000E+00 0.  1.
         22    1    1    2    0    0 -0.35007828824E+00  0.76118000399E-01  0.32141246536E+01  0.32340293824E+01  0.00000000000E+00 0.  1.
</event>
<event>
 5    1  0.3269840E+002  0.1598944E+01  0.7818608E-02  0.3354511E+00
         11   -1    0    0    0    0  0.00000000000E+00  0.00000000000E+00  0.39999999674E+01  0.40000000000E+01  0.51100000000E-03 0. -1.
    9000002   -1    0    0    0    0 -0.00000000000E+00 -0.00000000000E+00  0.00000000000E+00  0.93800000000E+00  0.93800000000E+00 0.  1.
         11    1    1    2    0    0  0.16965657638E-01 -0.59952821320E-01  0.65884967554E+00  0.66178949101E+00  0.51100000000E-03 0. -1.
    9000002    1    1    2    0    0  0.43646676905E-01  0.36668083902E+00  0.92229125242E-01  0.10122796460E+01  0.93800000000E+00 0.  1.
         22    1    1    2    0    0 -0.60612334543E-01 -0.30672801770E+00  0.32489211666E+01  0.32639308630E+01  0.00000000000E+00 0. -1.
</event>
<event>
 5    1  0.3269840E+002  0.1599677E+01  0.7818608E-02  0.3353714E+00
         11   -1    0    0    0    0  0.00000000000E+00  0.00000000000E+00  0.39999999674E+01  0.40000000000E+01  0.51100000000E-03 0. -1.
    9000002   -1    0    0    0    0 -0.00000000000E+00 -0.00000000000E+00  0.00000000000E+00  0.93800000000E+00  0.93800000000E+00 0. -1.
         11    1    1    2    0    0 -0.17748193437E+00  0.11754169503E+00  0.16224108045E+01  0.16363168907E+01  0.51100000000E-03 0. -1.
    9000002    1    1    2    0    0  0.41898012733E+00 -0.27793783912E+00  0.17313283018E+00  0.10782452255E+01  0.93800000000E+00 0. -1.
         22    1    1    2    0    0 -0.24149819297E+00  0.16039614409E+00  0.22044563327E+01  0.22234378838E+01  0.00000000000E+00 0. -1.
</event>
<event>
 5    1  0.3269840E+002  0.1599675E+01  0.7818608E-02  0.3353716E+00
         11   -1    0    0    0    0  0.00000000000E+00  0.00000000000E+00  0.39999999674E+01  0.40000000000E+01  0.51100000000E-03 0.  1.
    9000002   -1    0    0    0    0 -0.00000000000E+00 -0.00000000000E+00  0.00000000000E+00  0.93800000000E+00  0.93800000000E+00 0. -1.
         11    1    1    2    0    0 -0.10547689016E+00  0.33774079111E+00  0.21924407259E+01  0.22208085947E+01  0.51100000000E-03 0.  1.
    9000002    1    1    2    0    0  0.18249118095E+00 -0.57812937649E+00  0.25677686562E+00  0.11459995488E+01  0.93800000000E+00 0. -1.
         22    1    1    2    0    0 -0.77014290784E-01  0.24038858538E+00  0.15507823758E+01  0.15711918565E+01  0.00000000000E+00 0.  1.
</event>
<event>
 5    1  0.3269840E+002  0.1599365E+01  0.7818608E-02  0.3354053E+00
         11   -1    0    0    0    0  0.00000000000E+00  0.00000000000E+00  0.39999999674E+01  0.40000000000E+01  0.51100000000E-03 0.  1.
    9000002   -1    0    0    0    0 -0.00000000000E+00 -0.00000000000E+00  0.00000000000E+00  0.93800000000E+00  0.93800000000E+00 0.  1.
         11    1    1    2    0    0 -0.73623818086E-02  0.17688434121E-01  0.39455466384E+00  0.39501990993E+00  0.51100000000E-03 0.  1.
    9000002    1    1    2    0    0 -0.40326164735E-01 -0.23490201116E+00  0.37939663833E-01  0.96854972639E+00  0.93800000000E+00 0.  1.
         22    1    1    2    0    0  0.47688546544E-01  0.21721357704E+00  0.35675056397E+01  0.35744303637E+01  0.00000000000E+00 0.  1.
</event>
<event>
 5    1  0.3269840E+002  0.1598721E+01  0.7818608E-02  0.3354752E+00
         11   -1    0    0    0    0  0.00000000000E+00  0.00000000000E+00  0.39999999674E+01  0.40000000000E+01  0.51100000000E-03 0.  1.
    9000002   -1    0    0    0    0 -0.00000000000E+00 -0.00000000000E+00  0.00000000000E+00  0.93800000000E+00  0.93800000000E+00 0. -1.
         11    1    1    2    0    0  0.47747112153E-01  0.18442854633E-02  0.36344064268E+00  0.36656861565E+00  0.51100000000E-03 0.  1.
    9000002    1    1    2    0    0 -0.31235366804E+00  0.94756931305E-01  0.72019179072E-01  0.99577831475E+00  0.93800000000E+00 0. -1.
         22    1    1    2    0    0  0.26460655589E+00 -0.96601216768E-01  0.35645401456E+01  0.35756530696E+01  0.00000000000E+00 0.  1.
</event>
<event>
 5    1  0.3269840E+002  0.1598372E+01  0.7818608E-02  0.3355132E+00
         11   -1    0    0    0    0  0.00000000000E+00  0.00000000000E+00  0.39999999674E+01  0.40000000000E+01  0.51100000000E-03 0. -1.
    9000002   -1    0    0    0    0 -0.00000000000E+00 -0.00000000000E+00  0.00000000000E+00  0.93800000000E+00  0.93800000000E+00 0. -1.
         11    1    1    2    0    0 -0.72241606992E-01  0.15502316411E+00  0.95170783488E+00  0.96695351248E+00  0.51100000000E-03 0. -1.
    9000002    1    1    2    0    0  0.27771217174E+00 -0.46682154187E+00  0.20475171105E+00  0.11030927728E+01  0.93800000000E+00 0. -1.
         22    1    1    2    0    0 -0.20547056475E+00  0.31179837777E+00  0.28435404214E+01  0.28679537147E+01  0.00000000000E+00 0. -1.
</event>
<event>
 5    1  0.3269840E+002  0.1599629E+01  0.7818608E-02  0.3353766E+00
         11   -1    0    0    0    0  0.00000000000E+00  0.00000000000E+00  0.39999999674E+01  0.40000000000E+01  0.51100000000E-03 0. -1.
    9000002   -1    0    0    0    0 -0.00000000000E+00 -0.00000000000E+00  0.00000000000E+00  0.93800000000E+00  0.93800000000E+00 0.  1.
         11    1    1    2    0    0  0.21875955244E-01 -0.10559073100E-01  0.36795063234E+00  0.36875192258E+00  0.51100000000E-03 0. -1.
    9000002    1    1    2    0    0 -0.26732340024E+00  0.73123165488E-01  0.51172632641E-01  0.97942403277E+00  0.93800000000E+00 0.  1.
         22    1    1    2    0    0  0.24544744499E+00 -0.62564092388E-01  0.35808767024E+01  0.35898240446E+01  0.00000000000E+00 0. -1.
</event>
<event>
 5    1  0.3269840E+002  0.1598125E+01  0.7818608E-02  0.3355401E+00
         11   -1    0    0    0    0  0.00000000000E+00  0.00000000000E+00  0.39999999674E+01  0.40000000000E+01  0.51100000000E-03 0.  1.
    9000002   -1    0    0    0    0 -0.00000000000E+00 -0.00000000000E+00  0.00000000000E+00  0.93800000000E+00  0.93800000000E+00 0.  1.
         11    1    1    2    0    0 -0.13773384276E+00  0.13216636329E+00  0.19407733179E+01  0.19501384288E+01  0.51100000000E-03 0.  1.
    9000002    1    1    2    0    0  0.36807500857E+00 -0.27037872584E+00  0.14315716934E+00  0.10530535800E+01  0.93800000000E+00 0.  1.
         22    1    1    2    0    0 -0.23034116582E+00  0.13821236255E+00  0.19160694801E+01  0.19348079911E+01  0.00000000000E+00 0. -1.
</event>
<event>
 5    1  0.3269840E+002  0.1599676E+01  0.7818608E-02  0.3353715E+00
         11   -1    0    0    0    0  0.00000000000E+00  0.00000000000E+00  0.39999999674E+01  0.40000000000E+01  0.51100000000E-03 0.  1.
    9000002   -1    0    0    0    0 -0.00000000000E+00 -0.00000000000E+00  0.00000000000E+00  0.93800000000E+00  0.93800000000E+00 0. -1.
         11    1    1    2    0    0 -0.11782128380E+00  0.13914224300E-02  0.98889561420E+00  0.99589085139E+00  0.51100000000E-03 0.  1.
    9000002    1    1    2    0    0  0.45759671768E+00 -0.80953152438E-02  0.14242537976E+00  0.10533704377E+01  0.93800000000E+00 0. -1.
         22    1    1    2    0    0 -0.33977543388E+00  0.67038928138E-02  0.28686789734E+01  0.28887387109E+01  0.00000000000E+00 0.  1.
</event>
<event>
 5    1  0.3269840E+002  0.1598174E+01  0.7818608E-02  0.3355348E+00
         11   -1    0    0    0    0  0.00000000000E+00  0.00000000000E+00  0.39999999674E+01  0.40000000000E+01  0.51100000000E-03 0.  1.
    9000002   -1    0    0    0    0 -0.00000000000E+00 -0.00000000000E+00  0.00000000000E+00  0.93800000000E+00  0.93800000000E+00 0.  1.
         11    1    1    2    0    0 -0.20812871768E+00  0.66408175099E-01  0.19216186707E+01  0.19339974627E+01  0.51100000000E-03 0.  1.
    9000002    1    1    2    0    0  0.35889093289E+00 -0.20550072839E+00  0.11683421305E+00  0.10317594121E+01  0.93800000000E+00 0.  1.
         22    1    1    2    0    0 -0.15076221521E+00  0.13909255330E+00  0.19615470836E+01  0.19722431252E+01  0.00000000000E+00 0.  1.
</event>
<event>
 5    1  0.3269840E+002  0.1599577E+01  0.7818608E-02  0.3353822E+00
         11   -1    0    0    0    0  0.00000000000E+00  0.00000000000E+00  0.39999999674E+01  0.40000000000E+01  0.51100000000E-03 0.  1.
    9000002   -1    0    0    0    0 -0.00000000000E+00 -0.00000000000E+00  0.00000000000E+00  0.93800000000E+00  0.93800000000E+00 0. -1.
         11    1    1    2    0    0  0.50627893325E-03  0.11111729793E-01  0.12092167249E+00  0.12143326915E+00  0.51100000000E-03 0.  1.
    9000002    1    1    2    0    0  0.48054815319E-03 -0.23059186088E+00  0.35347341074E-01  0.96657450398E+00  0.93800000000E+00 0. -1.
         22    1    1    2    0    0 -0.98682708644E-03  0.21948013109E+00  0.38437309538E+01  0.38499922269E+01  0.00000000000E+00 0.  1.
</event>
<event>
 5    1  0.3269840E+002  0.1501745E+01  0.7818608E-02  0.3467435E+00
         11   -1    0    0    0    0  0.00000000000E+00  0.00000000000E+00  0.39999999674E+01  0.40000000000E+01  0.51100000000E-03 0. -1.
    9000002   -1    0    0    0    0 -0.00000000000E+00 -0.00000000000E+00  0.00000000000E+00  0.93800000000E+00  0.93800000000E+00 0. -1.
         11    1    1    2    0    0  0.27949645981E-01  0.23188766802E+00  0.45924907029E+00  0.51523105784E+00  0.51100000000E-03 0. -1.
    9000002    1    1    2    0    0  0.31898654544E+00  0.63489936472E-01  0.15299322441E+00  0.10045070009E+01  0.93800000000E+00 0. -1.
         22    1    1    2    0    0 -0.34693619142E+00 -0.29537760449E+00  0.33877576727E+01  0.34182619412E+01  0.00000000000E+00 0. -1.
</event>
<event>
 5    1  0.3269840E+002  0.1599661E+01  0.7818608E-02  0.3353732E+00
         11   -1    0    0    0    0  0.00000000000E+00  0.00000000000E+00  0.39999999674E+01  0.40000000000E+01  0.51100000000E-03 0.  1.
    9000002   -1    0    0    0    0 -0.00000000000E+00 -0.00000000000E+00  0.00000000000E+00  0.93800000000E+00  0.93800000000E+00 0.  1.
         11    1    1    2    0    0  0.90011359150E-01  0.35496739766E-01  0.89699305962E+00  0.90219669332E+00  0.51100000000E-03 0.  1.
    9000002    1    1    2    0    0 -0.37787358715E+00 -0.16674279285E+00  0.11527730516E+00  0.10313701876E+01  0.93800000000E+00 0.  1.
         22    1    1    2    0    0  0.28786222800E+00  0.13124605308E+00  0.29877296026E+01  0.30044331191E+01  0.00000000000E+00 0.  1.
</event>
<event>
 5    1  0.3269840E+002  0.1596693E+01  0.7818608E-02  0.3356961E+00
         11   -1    0    0    0    0  0.00000000000E+00  0.00000000000E+00  0.39999999674E+01  0.40000000000E+01  0.51100000000E-03 0. -1.
    9000002   -1    0    0    0    0 -0.00000000000E+00 -0.00000000000E+00  0.00000000000E+00  0.93800000000E+00  0.93800000000E+00 0. -1.
         11    1    1    2    0    0 -0.17753961724E-01  0.14771124131E+00  0.20678912854E+01  0.20732362247E+01  0.51100000000E-03 0. -1.
    9000002    1    1    2    0    0 -0.56685093982E-01 -0.36452533641E+00  0.93882601096E-01  0.10122992954E+01  0.93800000000E+00 0. -1.
         22    1    1    2    0    0  0.74439055706E-01  0.21681409510E+00  0.18382260808E+01  0.18524644798E+01  0.00000000000E+00 0.  1.
</event>
<event>
 5    1  0.3269840E+002  0.1599557E+01  0.7818608E-02  0.3353844E+00
         11   -1    0    0    0    0  0.00000000000E+00  0.00000000000E+00  0.39999999674E+01  0.40000000000E+01  0.51100000000E-03 0. -1.
    9000002   -1    0    0    0    0 -0.00000000000E+00 -0.00000000000E+00  0.00000000000E+00  0.93800000000E+00  0.93800000000E+00 0.  1.
         11    1    1    2    0    0 -0.21913676646E+00  0.10843765283E+00  0.18961974537E+01  0.19118955755E+01  0.51100000000E-03 0. -1.
    9000002    1    1    2    0    0  0.43620803425E+00 -0.19427641860E+00  0.15562734714E+00  0.10639946650E+01  0.93800000000E+00 0.  1.
         22    1    1    2    0    0 -0.21707126778E+00  0.85838765769E-01  0.19481751665E+01  0.19621097595E+01  0.00000000000E+00 0. -1.
</event>
<event>
 5    1  0.3269840E+002  0.1541292E+01  0.7818608E-02  0.3419656E+00
         11   -1    0    0    0    0  0.00000000000E+00  0.00000000000E+00  0.39999999674E+01  0.40000000000E+01  0.51100000000E-03 0.  1.
    9000002   -1    0    0    0    0 -0.00000000000E+00 -0.00000000000E+00  0.00000000000E+00  0.93800000000E+00  0.93800000000E+00 0.  1.
         11    1    1    2    0    0 -0.26353089778E+00  0.93933173244E-01  0.12337605548E+01  0.12650839272E+01  0.51100000000E-03 0.  1.
    9000002    1    1    2    0    0 -0.11799794952E-01 -0.17082198112E+00  0.64051658898E-01  0.95564951703E+00  0.93800000000E+00 0.  1.
         22    1    1    2    0    0  0.27533069273E+00  0.76888807880E-01  0.27021877536E+01  0.27172665557E+01  0.00000000000E+00 0.  1.
</event>
<event>
 5    1  0.3269840E+002  0.1599676E+01  0.7818608E-02  0.3353715E+00
         11   -1    0    0    0    0  0.00000000000E+00  0.00000000000E+00  0.39999999674E+01  0.40000000000E+01  0.51100000000E-03 0. -1.
    9000002   -1    0    0    0    0 -0.00000000000E+00 -0.00000000000E+00  0.00000000000E+00  0.93800000000E+00  0.93800000000E+00 0.  1.
         11    1    1    2    0    0 -0.17659160301E-02 -0.82305642514E-02  0.13570567755E+00  0.13596746922E+00  0.51100000000E-03 0.  1.
    9000002    1    1    2    0    0  0.55119159997E-01  0.24338294985E+00  0.41367179729E-01  0.97150842798E+00  0.93800000000E+00 0.  1.
         22    1    1    2    0    0 -0.53353243967E-01 -0.23515238560E+00  0.38229271101E+01  0.38305241028E+01  0.00000000000E+00 0. -1.
</event>
<event>
 5    1  0.3269840E+002  0.1587222E+01  0.7818608E-02  0.3367350E+00
         11   -1    0    0    0    0  0.00000000000E+00  0.00000000000E+00  0.39999999674E+01  0.40000000000E+01  0.51100000000E-03 0.  1.
    9000002   -1    0    0    0    0 -0.00000000000E+00 -0.00000000000E+00  0.00000000000E+00  0.93800000000E+00  0.93800000000E+00 0.  1.
         11    1    1    2    0    0 -0.97850473469E-01 -0.56674598719E-01  0.15215504718E+01  0.15257466450E+01  0.51100000000E-03 0.  1.
    9000002    1    1    2    0    0 -0.85123444424E-01  0.16087953665E+00  0.31244889632E-01  0.95600652154E+00  0.93800000000E+00 0.  1.
         22    1    1    2    0    0  0.18297391789E+00 -0.10420493793E+00  0.24472046059E+01  0.24562468335E+01  0.00000000000E+00 0. -1.
</event>
<event>
 5    1  0.3269840E+002  0.1599619E+01  0.7818608E-02  0.3353777E+00
         11   -1    0    0    0    0  0.00000000000E+00  0.00000000000E+00  0.39999999674E+01  0.40000000000E+01  0.51100000000E-03 0.  1.
    9000002   -1    0    0    0    0 -0.00000000000E+00 -0.00000000000E+00  0.00000000000E+00  0.93800000000E+00  0.93800000000E+00 0.  1.
         11    1    1    2    0    0 -0.11554345932E-01  0.39275571285E-02  0.28619519965E+00  0.28645572439E+00  0.51100000000E-03 0.  1.
    9000002    1    1    2    0    0  0.19710160124E+00 -0.10850053629E+00  0.33610224156E-01  0.96519171917E+00  0.93800000000E+00 0.  1.
         22    1    1    2    0    0 -0.18554725531E+00  0.10457297917E+00  0.36801945436E+01  0.36863525564E+01  0.00000000000E+00 0.  1.
</event>
<event>
 5    1  0.3269840E+002  0.1599583E+01  0.7818608E-02  0.3353817E+00
         11   -1    0    0    0    0  0.00000000000E+00  0.00000000000E+00  0.39999999674E+01  0.40000000000E+01  0.51100000000E-03 0. -1.
    9000002   -1    0    0    0    0 -0.00000000000E+00 -0.00000000000E+00  0.00000000000E+00  0.93800000000E+00  0.93800000000E+00 0.  1.
         11    1    1    2    0    0 -0.99635175255E-01  0.50433362288E-01  0.14680132016E+01  0.14722546360E+01  0.51100000000E-03 0. -1.
    9000002    1    1    2    0    0  0.28593176918E+00 -0.15840862896E+00  0.71543485650E-01  0.99589795697E+00  0.93800000000E+00 0.  1.
         22    1    1    2    0    0 -0.18629659393E+00  0.10797526668E+00  0.24604432802E+01  0.24698474070E+01  0.00000000000E+00 0. -1.
</event>
<event>
 5    1  0.3269840E+002  0.1599669E+01  0.7818608E-02  0.3353723E+00
         11   -1    0    0    0    0  0.00000000000E+00  0.00000000000E+00  0.39999999674E+01  0.40000000000E+01  0.51100000000E-03 0.  1.
    9000002   -1    0    0    0    0 -0.00000000000E+00 -0.00000000000E+00  0.00000000000E+00  0.93800000000E+00  0.93800000000E+00 0.  1.
         11    1    1    2    0    0 -0.69875853766E-01  0.29302372784E+00  0.16497892754E+01  0.16770660256E+01  0.51100000000E-03 0.  1.
    9000002    1    1    2    0    0  0.14940723295E+00 -0.65024983940E+00  0.31545125639E+00  0.11935245578E+01  0.93800000000E+00 0.  1.
         22    1    1    2    0    0 -0.79531379183E-01  0.35722611156E+00  0.20347594356E+01  0.20674094166E+01  0.00000000000E+00 0.  1.
</event>
<event>
 5    1  0.3269840E+002  0.1595928E+01  0.7818608E-02  0.3357795E+00
         11   -1    0    0    0    0  0.00000000000E+00  0.00000000000E+00  0.39999999674E+01  0.40000000000E+01  0.51100000000E-03 0. -1.
    9000002   -1    0    0    0    0 -0.00000000000E+00 -0.00000000000E+00  0.00000000000E+00  0.93800000000E+00  0.93800000000E+00 0.  1.
         11    1    1    2    0    0  0.15918704772E-01 -0.74506827944E-01  0.87944947968E+00  0.88274363266E+00  0.51100000000E-03 0. -1.
    9000002    1    1    2    0    0 -0.22682409459E+00  0.10739737223E+00  0.44713763482E-01  0.97202195762E+00  0.93800000000E+00 0.  1.
         22    1    1    2    0    0  0.21090538982E+00 -0.32890544287E-01  0.30758367242E+01  0.30832344097E+01  0.00000000000E+00 0. -1.
</event>
<event>
 5    1  0.3269840E+002  0.1599657E+01  0.7818608E-02  0.3353736E+00
         11   -1    0    0    0    0  0.00000000000E+00  0.00000000000E+00  0.39999999674E+01  0.40000000000E+01  0.51100000000E-03 0. -1.
    9000002   -1    0    0    0    0 -0.00000000000E+00 -0.00000000000E+00  0.00000000000E+00  0.93800000000E+00  0.93800000000E+00 0.  1.
         11    1    1    2    0    0 -0.30758387269E-01  0.31978102815E-01  0.53190269494E+00  0.53375033063E+00  0.51100000000E-03 0. -1.
    9000002    1    1    2    0    0  0.25344122369E+00 -0.23948622874E+00  0.81529159455E-01  0.10040304335E+01  0.93800000000E+00 0.  1.
         22    1    1    2    0    0 -0.22268283643E+00  0.20750812592E+00  0.33865681130E+01  0.34002192358E+01  0.00000000000E+00 0. -1.
</event>
<event>
 5    1  0.3269840E+002  0.1599509E+01  0.7818608E-02  0.3353896E+00
         11   -1    0    0    0    0  0.00000000000E+00  0.00000000000E+00  0.39999999674E+01  0.40000000000E+01  0.51100000000E-03 0.  1.
    9000002   -1    0    0    0    0 -0.00000000000E+00 -0.00000000000E+00  0.00000000000E+00  0.93800000000E+00  0.93800000000E+00 0. -1.
         11    1    1    2    0    0 -0.67590186553E-01  0.17900135986E+00  0.18371935296E+01  0.18471302732E+01  0.51100000000E-03 0.  1.
    9000002    1    1    2    0    0  0.16146787694E+00 -0.40414292944E+00  0.12850805034E+00  0.10419988972E+01  0.93800000000E+00 0. -1.
         22    1    1    2    0    0 -0.93877690390E-01  0.22514156958E+00  0.20342983875E+01  0.20488708296E+01  0.00000000000E+00 0.  1.
</event>
<event>
 5    1  0.3269840E+002  0.1549570E+01  0.7818608E-02  0.3409986E+00
         11   -1    0    0    0    0  0.00000000000E+00  0.00000000000E+00  0.39999999674E+01  0.40000000000E+01  0.51100000000E-03 0. -1.
    9000002   -1    0    0    0    0 -0.00000000000E+00 -0.00000000000E+00  0.00000000000E+00  0.93800000000E+00  0.93800000000E+00 0. -1.
         11    1    1    2    0    0 -0.32114534888E+00 -0.85586999220E-01  0.18729670855E+01  0.19022264413E+01  0.51100000000E-03 0. -1.
    9000002    1    1    2    0    0  0.11108819373E+00  0.13551387918E+00  0.58516159948E-01  0.95601921488E+00  0.93800000000E+00 0. -1.
         22    1    1    2    0    0  0.21005715515E+00 -0.49926879957E-01  0.20685167219E+01  0.20797543438E+01  0.00000000000E+00 0.  1.
</event>
<event>
 5    1  0.3269840E+002  0.1599671E+01  0.7818608E-02  0.3353720E+00
         11   -1    0    0    0    0  0.00000000000E+00  0.00000000000E+00  0.39999999674E+01  0.40000000000E+01  0.51100000000E-03 0.  1.
    9000002   -1    0    0    0    0 -0.00000000000E+00 -0.00000000000E+00  0.00000000000E+00  0.93800000000E+00  0.93800000000E+00 0. -1.
         11    1    1    2    0    0  0.65028699788E-01  0.11284315465E+00  0.11182225493E+01  0.11257816130E+01  0.51100000000E-03 0.  1.
    9000002    1    1    2    0    0 -0.23121657948E+00 -0.38380512931E+00  0.13632427845E+00  0.10484253873E+01  0.93800000000E+00 0. -1.
         22    1    1    2    0    0  0.16618787969E+00  0.27096197465E+00  0.27454531396E+01  0.27637929996E+01  0.00000000000E+00 0.  1.
</event>
<event>
 5    1  0.3269840E+002  0.1599675E+01  0.7818608E-02  0.3353717E+00
         11   -1    0    0    0    0  0.00000000000E+00  0.00000000000E+00  0.39999999674E+01  0.40000000000E+01  0.51100000000E-03 0. -1.
    9000002   -1    0    0    0    0 -0.00000000000E+00 -0.00000000000E+00  0.00000000000E+00  0.93800000000E+00  0.93800000000E+00 0.  1.
         11    1    1    2    0    0 -0.26513568048E+00  0.10537930244E+00  0.21156425191E+01  0.21347939611E+01  0.51100000000E-03 0. -1.
    9000002    1    1    2    0    0  0.48123091383E+00 -0.19170804679E+00  0.18426176439E+00  0.10872587390E+01  0.93800000000E+00 0.  1.
         22    1    1    2    0    0 -0.21609523335E+00  0.86328744355E-01  0.17000956839E+01  0.17159473000E+01  0.00000000000E+00 0. -1.
</event>
<event>
 5    1  0.3269840E+002  0.1599663E+01  0.7818608E-02  0.3353730E+00
         11   -1    0    0    0    0  0.00000000000E+00  0.00000000000E+00  0.39999999674E+01  0.40000000000E+01  0.51100000000E-03 0.  1.
    9000002   -1    0    0    0    0 -0.00000000000E+00 -0.00000000000E+00  0.00000000000E+00  0.93800000000E+00  0.93800000000E+00 0. -1.
         11    1    1    2    0    0  0.66438521013E-02 -0.15573183162E-01  0.24498873055E+00  0.24557362241E+00  0.51100000000E-03 0.  1.
    9000002    1    1    2    0    0 -0.13028507599E+00  0.22531510710E+00  0.45046982297E-01  0.97448156941E+00  0.93800000000E+00 0. -1.
         22    1    1    2    0    0  0.12364122389E+00 -0.20974192394E+00  0.37099642545E+01  0.37179448082E+01  0.00000000000E+00 0.  1.
</event>
<event>
 5    1  0.3269840E+002  0.1595618E+01  0.7818608E-02  0.3358133E+00
         11   -1    0    0    0    0  0.00000000000E+00  0.00000000000E+00  0.39999999674E+01  0.40000000000E+01  0.51100000000E-03 0. -1.
    9000002   -1    0    0    0    0 -0.00000000000E+00 -0.00000000000E+00  0.00000000000E+00  0.93800000000E+00  0.93800000000E+00 0.  1.
         11    1    1    2    0    0  0.76312107922E-01 -0.13757551938E+00  0.73031276394E+00  0.74706596472E+00  0.51100000000E-03 0. -1.
    9000002    1    1    2    0    0 -0.32134178255E+00  0.40860283463E+00  0.18934185749E+00  0.10889954806E+01  0.93800000000E+00 0.  1.
         22    1    1    2    0    0  0.24502967463E+00 -0.27102731526E+00  0.30803453459E+01  0.31019385547E+01  0.00000000000E+00 0. -1.
</event>
<event>
 5    1  0.3269840E+002  0.1599592E+01  0.7818608E-02  0.3353807E+00
         11   -1    0    0    0    0  0.00000000000E+00  0.00000000000E+00  0.39999999674E+01  0.40000000000E+01  0.51100000000E-03 0. -1.
    9000002   -1    0    0    0    0 -0.00000000000E+00 -0.00000000000E+00  0.00000000000E+00  0.93800000000E+00  0.93800000000E+00 0.  1.
         11    1    1    2    0    0  0.25673749506E+00  0.34422584796E+00  0.24888699043E+01  0.25256443213E+01  0.51100000000E-03 0. -1.
    9000002    1    1    2    0    0 -0.36795173500E+00 -0.51387336698E+00  0.28077395946E+00  0.11653893482E+01  0.93800000000E+00 0.  1.
         22    1    1    2    0    0  0.11121423994E+00  0.16964751902E+00  0.12303561036E+01  0.12469663305E+01  0.00000000000E+00 0. -1.
</event>
<event>
 5    1  0.3269840E+002  0.1599624E+01  0.7818608E-02  0.3353771E+00
         11   -1    0    0    0    0  0.00000000000E+00  0.00000000000E+00  0.39999999674E+01  0.40000000000E+01  0.51100000000E-03 0.  1.
    9000002   -1    0    0    0    0 -0.00000000000E+00 -0.00000000000E+00  0.00000000000E+00  0.93800000000E+00  0.93800000000E+00 0.  1.
         11    1    1    2    0    0 -0.21252631691E-01  0.33579637027E-01  0.45235869134E+00  0.45410121463E+00  0.51100000000E-03 0.  1.
    9000002    1    1    2    0    0  0.20302024389E+00 -0.33333815755E+00  0.10266816780E+00  0.10211348096E+01  0.93800000000E+00 0.  1.
         22    1    1    2    0    0 -0.18176761220E+00  0.29975852052E+00  0.34449731082E+01  0.34627639758E+01  0.00000000000E+00 0.  1.
</event>
<event>
 5    1  0.3269840E+002  0.1599668E+01  0.7818608E-02  0.3353724E+00
         11   -1    0    0    0    0  0.00000000000E+00  0.00000000000E+00  0.39999999674E+01  0.40000000000E+01  0.51100000000E-03 0. -1.
    9000002   -1    0    0    0    0 -0.00000000000E+00 -0.00000000000E+00  0.00000000000E+00  0.93800000000E+00  0.93800000000E+00 0. -1.
         11    1    1    2    0    0  0.52009257623E-01  0.30281385302E-01  0.74552417169E+00  0.74794951492E+00  0.51100000000E-03 0. -1.
    9000002    1    1    2    0    0 -0.26789612450E+00 -0.17350631099E+00  0.68093686732E-01  0.99315332333E+00  0.93800000000E+00 0. -1.
         22    1    1    2    0    0  0.21588686687E+00  0.14322492569E+00  0.31863821089E+01  0.31968971617E+01  0.00000000000E+00 0. -1.
</event>
<event>
 5    1  0.3269840E+002  0.1599648E+01  0.7818608E-02  0.3353746E+00
         11   -1    0    0    0    0  0.00000000000E+00  0.00000000000E+00  0.39999999674E+01  0.40000000000E+01  0.51100000000E-03 0.  1.
    9000002   -1    0    0    0    0 -0.00000000000E+00 -0.00000000000E+00  0.00000000000E+00  0.93800000000E+00  0.93800000000E+00 0.  1.
         11    1    1    2    0    0 -0.36921038102E-01 -0.39004954970E-02  0.32479297369E+00  0.32690841806E+00  0.51100000000E-03 0.  1.
    9000002    1    1    2    0    0  0.40030323590E+00  0.36456358589E-01  0.10903544366E+00  0.10263062285E+01  0.93800000000E+00 0.  1.
         22    1    1    2    0    0 -0.36338219780E+00 -0.32555863092E-01  0.35661715500E+01  0.35847853534E+01  0.00000000000E+00 0.  1.
</event>
<event>
 5    1  0.3269840E+002  0.1599639E+01  0.7818608E-02  0.3353756E+00
         11   -1    0    0    0    0  0.00000000000E+00  0.00000000000E+00  0.39999999674E+01  0.40000000000E+01  0.51100000000E-03 0.  1.
    9000002   -1    0    0    0    0 -0.00000000000E+00 -0.00000000000E+00  0.00000000000E+00  0.93800000000E+00  0.93800000000E+00 0.  1.
         11    1    1    2    0    0 -0.34559300375E-01  0.18388170710E-01  0.61894685236E+00  0.62018379311E+00  0.51100000000E-03 0.  1.
    9000002    1    1    2    0    0  0.19586112501E+00 -0.14119319776E+00  0.38730476346E-01  0.96935089064E+00  0.93800000000E+00 0.  1.
         22    1    1    2    0    0 -0.16130182464E+00  0.12280502705E+00  0.33423226387E+01  0.33484653163E+01  0.00000000000E+00 0.  1.
</event>
<event>
 5    1  0.3269840E+002  0.1599666E+01  0.7818608E-02  0.3353726E+00
         11   -1    0    0    0    0  0.00000000000E+00  0.00000000000E+00  0.39999999674E+01  0.40000000000E+01  0.51100000000E-03 0.  1.
    9000002   -1    0    0    0    0 -0.00000000000E+00 -0.00000000000E+00  0.00000000000E+00  0.93800000000E+00  0.93800000000E+00 0.  1.
         11    1    1    2    0    0 -0.49363986551E-02  0.14229021151E-02  0.80840378717E-01  0.81005065485E-01  0.51100000000E-03 0.  1.
    9000002    1    1    2    0    0  0.28483373845E+00 -0.94313662713E-01  0.60066112150E-01  0.98664951394E+00  0.93800000000E+00 0.  1.
         22    1    1    2    0    0 -0.27989733980E+00  0.92890760598E-01  0.38590934765E+01  0.38703454206E+01  0.00000000000E+00 0.  1.
</event>
<event>
 5    1  0.3269840E+002  0.1599306E+01  0.7818608E-02  0.3354117E+00
         11   -1    0    0    0    0  0.00000000000E+00  0.00000000000E+00  0.39999999674E+01  0.40000000000E+01  0.51100000000E-03 0.  1.
    9000002   -1    0    0    0    0 -0.00000000000E+00 -0.00000000000E+00  0.00000000000E+00  0.93800000000E+00  0.93800000000E+00 0. -1.
         11    1    1    2    0    0 -0.57749600679E-01  0.35506821427E-01  0.91613940807E+00  0.91864434189E+00  0.51100000000E-03 0.  1.
    9000002    1    1    2    0    0  0.31981741755E+00 -0.19194053586E+00  0.93832867473E-01  0.10137913774E+01  0.93800000000E+00 0. -1.
         22    1    1    2    0    0 -0.26206781687E+00  0.15643371443E+00  0.29900276918E+01  0.30055642807E+01  0.00000000000E+00 0.  1.
</event>
<event>
 5    1  0.3269840E+002  0.1582496E+01  0.7818608E-02  0.3372583E+00
         11   -1    0    0    0    0  0.00000000000E+00  0.00000000000E+00  0.39999999674E+01  0.40000000000E+01  0.51100000000E-03 0.  1.
    9000002   -1    0    0    0    0 -0.00000000000E+00 -0.00000000000E+00  0.00000000000E+00  0.93800000000E+00  0.93800000000E+00 0.  1.
         11    1    1    2    0    0  0.42683453540E-01  0.38841487707E-01  0.18404847069E+00  0.19288504104E+00  0.51100000000E-03 0.  1.
    9000002    1    1    2    0    0  0.38986737851E+00 -0.21460672561E+00  0.14934893712E+00  0.10489050122E+01  0.93800000000E+00 0.  1.
         22    1    1    2    0    0 -0.43255083205E+00  0.17576523791E+00  0.36666025595E+01  0.36962099468E+01  0.00000000000E+00 0.  1.
</event>
<event>
 5    1  0.3269840E+002  0.1596614E+01  0.7818608E-02  0.3357046E+00
         11   -1    0    0    0    0  0.00000000000E+00  0.00000000000E+00  0.39999999674E+01  0.40000000000E+01  0.51100000000E-03 0. -1.
    9000002   -1    0    0    0    0 -0.00000000000E+00 -0.00000000000E+00  0.00000000000E+00  0.93800000000E+00  0.93800000000E+00 0. -1.
         11    1    1    2    0    0 -0.67084352972E-01  0.98334494518E-02  0.42103452972E+00  0.42645907597E+00  0.51100000000E-03 0. -1.
    9000002    1    1    2    0    0  0.26937817696E+00  0.51898696886E-01  0.52461624059E-01  0.97870031111E+00  0.93800000000E+00 0. -1.
         22    1    1    2    0    0 -0.20229382398E+00 -0.61732146338E-01  0.35265038136E+01  0.35328406129E+01  0.00000000000E+00 0. -1.
</event>
<event>
 5    1  0.3269840E+002  0.1593391E+01  0.7818608E-02  0.3360568E+00
         11   -1    0    0    0    0  0.00000000000E+00  0.00000000000E+00  0.39999999674E+01  0.40000000000E+01  0.51100000000E-03 0. -1.
    9000002   -1    0    0    0    0 -0.00000000000E+00 -0.00000000000E+00  0.00000000000E+00  0.93800000000E+00  0.93800000000E+00 0. -1.
         11    1    1    2    0    0 -0.20936172270E-01  0.41690049439E-01  0.81558884095E+00  0.81692215182E+00  0.51100000000E-03 0. -1.
    9000002    1    1    2    0    0 -0.24603410307E+00 -0.63104122746E-01  0.47697906723E-01  0.97295118094E+00  0.93800000000E+00 0. -1.
         22    1    1    2    0    0  0.26697027534E+00  0.21414073307E-01  0.31367132197E+01  0.31481266672E+01  0.00000000000E+00 0. -1.
</event>
<event>
 5    1  0.3269840E+002  0.1599554E+01  0.7818608E-02  0.3353848E+00
         11   -1    0    0    0    0  0.00000000000E+00  0.00000000000E+00  0.39999999674E+01  0.40000000000E+01  0.51100000000E-03 0.  1.
    9000002   -1    0    0    0    0 -0.00000000000E+00 -0.00000000000E+00  0.00000000000E+00  0.93800000000E+00  0.93800000000E+00 0.  1.
         11    1    1    2    0    0 -0.11414723236E+00  0.95913204679E-02  0.11433833076E+01  0.11491071461E+01  0.51100000000E-03 0.  1.
    9000002    1    1    2    0    0  0.35129883175E+00 -0.45826231587E-01  0.84295568830E-01  0.10062110393E+01  0.93800000000E+00 0.  1.
         22    1    1    2    0    0 -0.23715159939E+00  0.36234911119E-01  0.27723210910E+01  0.27826818146E+01  0.00000000000E+00 0.  1.
</event>
<event>
 5    1  0.3269840E+002  0.1599644E+01  0.7818608E-02  0.3353750E+00
         11   -1    0    0    0    0  0.00000000000E+00  0.00000000000E+00  0.39999999674E+01  0.40000000000E+01  0.51100000000E-03 0.  1.
    9000002   -1    0    0    0    0 -0.00000000000E+00 -0.00000000000E+00  0.00000000000E+00  0.93800000000E+00  0.93800000000E+00 0. -1.
         11    1    1    2    0    0  0.24591385820E-01  0.14771828582E-01  0.39488715686E+00  0.39592811336E+00  0.51100000000E-03 0.  1.
    9000002    1    1    2    0    0 -0.28296543939E+00 -0.13149763036E+00  0.65050836876E-01  0.99067485991E+00  0.93800000000E+00 0. -1.
         22    1    1    2    0    0  0.25837405357E+00  0.11672580178E+00  0.35400619736E+01  0.35513970267E+01  0.00000000000E+00 0.  1.
</event>
<event>
 5    1  0.3269840E+002  0.1586809E+01  0.7818608E-02  0.3367806E+00
         11   -1    0    0    0    0  0.00000000000E+00  0.00000000000E+00  0.39999999674E+01  0.40000000000E+01  0.51100000000E-03 0.  1.
    9000002   -1    0    0    0    0 -0.00000000000E+00 -0.00000000000E+00  0.00000000000E+00  0.93800000000E+00  0.93800000000E+00 0. -1.
         11    1    1    2    0    0 -0.22244639126E-01 -0.11127582473E+00  0.14484372660E+01  0.14528757372E+01  0.51100000000E-03 0.  1.
    9000002    1    1    2    0    0  0.18319472213E+00 -0.33803122725E-01  0.32616741776E-01  0.95687554529E+00  0.93800000000E+00 0. -1.
         22    1    1    2    0    0 -0.16095008300E+00  0.14507894746E+00  0.25189459596E+01  0.25282487175E+01  0.00000000000E+00 0.  1.
</event>
<event>
 5    1  0.3269840E+002  0.1599676E+01  0.7818608E-02  0.3353715E+00
         11   -1    0    0    0    0  0.00000000000E+00  0.00000000000E+00  0.39999999674E+01  0.40000000000E+01  0.51100000000E-03 0.  1.
    9000002   -1    0    0    0    0 -0.00000000000E+00 -0.00000000000E+00  0.00000000000E+00  0.93800000000E+00  0.93800000000E+00 0.  1.
         11    1    1    2    0    0 -0.67906494621E-01  0.67300831344E-01  0.96636466217E+00  0.97108270262E+00  0.51100000000E-03 0.  1.
    9000002    1    1    2    0    0  0.27686778018E+00 -0.27092192468E+00  0.10105420031E+00  0.10198580334E+01  0.93800000000E+00 0.  1.
         22    1    1    2    0    0 -0.20896128556E+00  0.20362109333E+00  0.29325811049E+01  0.29470592639E+01  0.00000000000E+00 0.  1.
</event>
<event>
 5    1  0.3269840E+002  0.1581219E+01  0.7818608E-02  0.3374004E+00
         11   -1    0    0    0    0  0.00000000000E+00  0.00000000000E+00  0.39999999674E+01  0.40000000000E+01  0.51100000000E-03 0.  1.
    9000002   -1    0    0    0    0 -0.00000000000E+00 -0.00000000000E+00  0.00000000000E+00  0.93800000000E+00  0.93800000000E+00 0.  1.
         11    1    1    2    0    0 -0.13971222458E+00 -0.28172606145E+00  0.79492771282E+00  0.85486806533E+00  0.51100000000E-03 0.  1.
    9000002    1    1    2    0    0  0.28544428147E+00  0.72083028596E+00  0.46257080355E+00  0.13018795978E+01  0.93800000000E+00 0.  1.
         22    1    1    2    0    0 -0.14573205689E+00 -0.43910422452E+00  0.27425014510E+01  0.27812523368E+01  0.00000000000E+00 0.  1.
</event>
<event>
 5    1  0.3269840E+002  0.1589986E+01  0.7818608E-02  0.3364304E+00
         11   -1    0    0    0    0  0.00000000000E+00  0.00000000000E+00  0.39999999674E+01  0.40000000000E+01  0.51100000000E-03 0. -1.
    9000002   -1    0    0    0    0 -0.00000000000E+00 -0.00000000000E+00  0.00000000000E+00  0.93800000000E+00  0.93800000000E+00 0. -1.
         11    1    1    2    0    0  0.56573030075E-02 -0.33238373377E-01  0.20947851914E+01  0.20950565754E+01  0.51100000000E-03 0. -1.
    9000002    1    1    2    0    0  0.21299192895E+00  0.52295236202E-01  0.39231836468E-01  0.96409724122E+00  0.93800000000E+00 0. -1.
         22    1    1    2    0    0 -0.21864923196E+00 -0.19056862825E-01  0.18659829394E+01  0.18788461834E+01  0.00000000000E+00 0.  1.
</event>
<event>
 5    1  0.3269840E+002  0.1599677E+01  0.7818608E-02  0.3353714E+00
         11   -1    0    0    0    0  0.00000000000E+00  0.00000000000E+00  0.39999999674E+01  0.40000000000E+01  0.51100000000E-03 0.  1.
    9000002   -1    0    0    0    0 -0.00000000000E+00 -0.00000000000E+00  0.00000000000E+00  0.93800000000E+00  0.93800000000E+00 0. -1.
         11    1    1    2    0    0 -0.53524728397E+00  0.41790982133E-01  0.24749159998E+01  0.25324781555E+01  0.51100000000E-03 0.  1.
    9000002    1    1    2    0    0  0.77089073394E+00 -0.59950192754E-01  0.43654306070E+00  0.12916192911E+01  0.93800000000E+00 0. -1.
         22    1    1    2    0    0 -0.23564344997E+00  0.18159210621E-01  0.10885409069E+01  0.11139025534E+01  0.00000000000E+00 0. -1.
</event>
<event>
 5    1  0.3269840E+002  0.1599676E+01  0.7818608E-02  0.3353715E+00
         11   -1    0    0    0    0  0.00000000000E+00  0.00000000000E+00  0.39999999674E+01  0.40000000000E+01  0.51100000000E-03 0. -1.
    9000002   -1    0    0    0    0 -0.00000000000E+00 -0.00000000000E+00  0.00000000000E+00  0.93800000000E+00  0.93800000000E+00 0. -1.
         11    1    1    2    0    0  0.13969192608E-01  0.16474226913E-01  0.34551344217E+00  0.34618829896E+00  0.51100000000E-03 0. -1.
    9000002    1    1    2    0    0 -0.15697085048E+00 -0.19266722075E+00  0.41022861920E-01  0.97122982916E+00  0.93800000000E+00 0. -1.
         22    1    1    2    0    0  0.14300165787E+00  0.17619299383E+00  0.36134636633E+01  0.36205818719E+01  0.00000000000E+00 0. -1.
</event>
<event>
 5    1  0.3269840E+002  0.1598217E+01  0.7818608E-02  0.3355301E+00
         11   -1    0    0    0    0  0.00000000000E+00  0.00000000000E+00  0.39999999674E+01  0.40000000000E+01  0.51100000000E-03 0. -1.
    9000002   -1    0    0    0    0 -0.00000000000E+00 -0.00000000000E+00  0.00000000000E+00  0.93800000000E+00  0.93800000000E+00 0. -1.
         11    1    1    2    0    0  0.22902971148E+00 -0.19296249133E-01  0.18595873505E+01  0.18737375294E+01  0.51100000000E-03 0. -1.
    9000002    1    1    2    0    0 -0.42897470451E+00 -0.42685477307E-01  0.12712137782E+00  0.10401178740E+01  0.93800000000E+00 0. -1.
         22    1    1    2    0    0  0.19994499302E+00  0.61981726439E-01  0.20132912391E+01  0.20241445966E+01  0.00000000000E+00 0.  1.
</event>
<event>
 5    1  0.3269840E+002  0.1598906E+01  0.7818608E-02  0.3354551E+00
         11   -1    0    0    0    0  0.00000000000E+00  0.00000000000E+00  0.39999999674E+01  0.40000000000E+01  0.51100000000E-03 0.  1.
    9000002   -1    0    0    0    0 -0.00000000000E+00 -0.00000000000E+00  0.00000000000E+00  0.93800000000E+00  0.93800000000E+00 0. -1.
         11    1    1    2    0    0 -0.27570505823E-01 -0.17721084963E+00  0.20993268888E+01  0.21069735322E+01  0.51100000000E-03 0.  1.
    9000002    1    1    2    0    0  0.83155607375E-01  0.38212829069E+00  0.10367991256E+00  0.10215333621E+01  0.93800000000E+00 0. -1.
         22    1    1    2    0    0 -0.55585101552E-01 -0.20491744107E+00  0.17969931660E+01  0.18094931057E+01  0.00000000000E+00 0.  1.
</event>
<event>
 5    1  0.3269840E+002  0.1548028E+01  0.7818608E-02  0.3411779E+00
         11   -1    0    0    0    0  0.00000000000E+00  0.00000000000E+00  0.39999999674E+01  0.40000000000E+01  0.51100000000E-03 0. -1.
    9000002   -1    0    0    0    0 -0.00000000000E+00 -0.00000000000E+00  0.00000000000E+00  0.93800000000E+00  0.93800000000E+00 0.  1.
         11    1    1    2    0    0  0.34550678766E-01 -0.22235304871E+00  0.22172504097E+01  0.22286395554E+01  0.51100000000E-03 0. -1.
    9000002    1    1    2    0    0 -0.19176608334E+00 -0.69192481831E-01  0.67333272604E-01  0.96225755381E+00  0.93800000000E+00 0.  1.
         22    1    1    2    0    0  0.15721540457E+00  0.29154553054E+00  0.17154162851E+01  0.17471028908E+01  0.00000000000E+00 0. -1.
</event>
<event>
 5    1  0.3269840E+002  0.1595932E+01  0.7818608E-02  0.3357791E+00
         11   -1    0    0    0    0  0.00000000000E+00  0.00000000000E+00  0.39999999674E+01  0.40000000000E+01  0.51100000000E-03 0.  1.
    9000002   -1    0    0    0    0 -0.00000000000E+00 -0.00000000000E+00  0.00000000000E+00  0.93800000000E+00  0.93800000000E+00 0. -1.
         11    1    1    2    0    0  0.20359009600E+00  0.21546678911E+00  0.26418162611E+01  0.26583958100E+01  0.51100000000E-03 0.  1.
    9000002    1    1    2    0    0 -0.39192364785E+00 -0.28837955192E+00  0.16506329827E+00  0.10695124142E+01  0.93800000000E+00 0. -1.
         22    1    1    2    0    0  0.18833355185E+00  0.72912762815E-01  0.11931204080E+01  0.12100917757E+01  0.00000000000E+00 0.  1.
</event>
<event>
 5    1  0.3269840E+002  0.1599671E+01  0.7818608E-02  0.3353721E+00
         11   -1    0    0    0    0  0.00000000000E+00  0.00000000000E+00  0.39999999674E+01  0.40000000000E+01  0.51100000000E-03 0. -1.
    9000002   -1    0    0    0    0 -0.00000000000E+00 -0.00000000000E+00  0.00000000000E+00  0.93800000000E+00  0.93800000000E+00 0.  1.
         11    1    1    2    0    0 -0.53482542472E-01  0.15416515268E+00  0.16191420481E+01  0.16273440047E+01  0.51100000000E-03 0. -1.
    9000002    1    1    2    0    0  0.13568941051E+00 -0.37169217972E+00  0.10555438121E+00  0.10235000830E+01  0.93800000000E+00 0.  1.
         22    1    1    2    0    0 -0.82206868041E-01  0.21752702704E+00  0.22753035380E+01  0.22871559122E+01  0.00000000000E+00 0. -1.
</event>
<event>
 5    1  0.3269840E+002  0.1599676E+01  0.7818608E-02  0.3353715E+00
         11   -1    0    0    0    0  0.00000000000E+00  0.00000000000E+00  0.39999999674E+01  0.40000000000E+01  0.51100000000E-03 0.  1.
    9000002   -1    0    0    0    0 -0.00000000000E+00 -0.00000000000E+00  0.00000000000E+00  0.93800000000E+00  0.93800000000E+00 0. -1.
         11    1    1    2    0    0 -0.16095342748E-01  0.96565375740E-02  0.33983421199E+00  0.34035255477E+00  0.51100000000E-03 0.  1.
    9000002    1    1    2    0    0  0.18421902923E+00 -0.11908409665E+00  0.31894962277E-01  0.96383554688E+00  0.93800000000E+00 0. -1.
         22    1    1    2    0    0 -0.16812368648E+00  0.10942755907E+00  0.36282707931E+01  0.36338118984E+01  0.00000000000E+00 0.  1.
</event>
<event>
 5    1  0.3269840E+002  0.1233854E+01  0.7818608E-02  0.3916873E+00
         11   -1    0    0    0    0  0.00000000000E+00  0.00000000000E+00  0.39999999674E+01  0.40000000000E+01  0.51100000000E-03 0. -1.
    9000002   -1    0    0    0    0 -0.00000000000E+00 -0.00000000000E+00  0.00000000000E+00  0.93800000000E+00  0.93800000000E+00 0. -1.
         11    1    1    2    0    0  0.30908951910E+00  0.37347336747E+00  0.22418337409E+01  0.22936515581E+01  0.51100000000E-03 0. -1.
    9000002    1    1    2    0    0 -0.55319630476E+00  0.40229347920E+00  0.99173466951E+00  0.15268424443E+01  0.93800000000E+00 0. -1.
         22    1    1    2    0    0  0.24410678566E+00 -0.77576684667E+00  0.76643155698E+00  0.11175059976E+01  0.00000000000E+00 0.  1.
</event>
<event>
 5    1  0.3269840E+002  0.1599655E+01  0.7818608E-02  0.3353738E+00
         11   -1    0    0    0    0  0.00000000000E+00  0.00000000000E+00  0.39999999674E+01  0.40000000000E+01  0.51100000000E-03 0.  1.
    9000002   -1    0    0    0    0 -0.00000000000E+00 -0.00000000000E+00  0.00000000000E+00  0.93800000000E+00  0.93800000000E+00 0. -1.
         11    1    1    2    0    0  0.23933741170E+00 -0.42032714699E-01  0.14772701995E+01  0.14971227903E+01  0.51100000000E-03 0.  1.
    9000002    1    1    2    0    0 -0.59305102185E+00  0.10867050021E+00  0.25380732874E+00  0.11435825078E+01  0.93800000000E+00 0. -1.
         22    1    1    2    0    0  0.35371361015E+00 -0.66637785507E-01  0.22689224392E+01  0.22972947019E+01  0.00000000000E+00 0.  1.
</event>
<event>
 5    1  0.3269840E+002  0.1583353E+01  0.7818608E-02  0.3371632E+00
         11   -1    0    0    0    0  0.00000000000E+00  0.00000000000E+00  0.39999999674E+01  0.40000000000E+01  0.51100000000E-03 0.  1.
    9000002   -1    0    0    0    0 -0.00000000000E+00 -0.00000000000E+00  0.00000000000E+00  0.93800000000E+00  0.93800000000E+00 0.  1.
         11    1    1    2    0    0  0.10740785166E+00  0.25134629061E-01  0.87953194918E+00  0.88642253296E+00  0.51100000000E-03 0.  1.
    9000002    1    1    2    0    0 -0.32700214820E-03  0.19939936170E+00  0.38652717031E-01  0.95973863365E+00  0.93800000000E+00 0.  1.
         22    1    1    2    0    0 -0.10708084951E+00 -0.22453399076E+00  0.30818153011E+01  0.30918388334E+01  0.00000000000E+00 0.  1.
</event>
<event>
 5    1  0.3269840E+002  0.1598723E+01  0.7818608E-02  0.3354750E+00
         11   -1    0    0    0    0  0.00000000000E+00  0.00000000000E+00  0.39999999674E+01  0.40000000000E+01  0.51100000000E-03 0. -1.
    9000002   -1    0    0    0    0 -0.00000000000E+00 -0.00000000000E+00  0.00000000000E+00  0.93800000000E+00  0.93800000000E+00 0.  1.
         11    1    1    2    0    0 -0.14194392256E-01  0.16032734545E+00  0.64121837100E+00  0.66111088245E+00  0.51100000000E-03 0. -1.
    9000002    1    1    2    0    0  0.18055162468E+00 -0.76380842445E+00  0.45268463987E+00  0.13041355687E+01  0.93800000000E+00 0.  1.
         22    1    1    2    0    0 -0.16635723242E+00  0.60348107900E+00  0.29060969565E+01  0.29727535488E+01  0.00000000000E+00 0. -1.
</event>
<event>
 5    1  0.5135641E+002  0.1540941E+01  0.7818608E-02  0.3420069E+00
         11   -1    0    0    0    0  0.00000000000E+00  0.00000000000E+00  0.39999999674E+01  0.40000000000E+01  0.51100000000E-03 0. -1.
    9000002   -1    0    0    0    0 -0.00000000000E+00 -0.00000000000E+00  0.00000000000E+00  0.93800000000E+00  0.93800000000E+00 0.  1.
         11    1    1    2    0    0 -0.79925501460E-01  0.61459904749E-01  0.10831913065E+00  0.14798209642E+00  0.51100000000E-03 0. -1.
    9000002    1    1    2    0    0 -0.12440749267E+00 -0.48344797430E-01  0.56240521936E-01  0.94911613619E+00  0.93800000000E+00 0.  1.
         22    1    1    2    0    0  0.20433299413E+00 -0.13115107318E-01  0.38354403148E+01  0.38409017674E+01  0.00000000000E+00 0. -1.
</event>
<event>
 5    1  0.3269840E+002  0.1544573E+01  0.7818608E-02  0.3415811E+00
         11   -1    0    0    0    0  0.00000000000E+00  0.00000000000E+00  0.39999999674E+01  0.40000000000E+01  0.51100000000E-03 0. -1.
    9000002   -1    0    0    0    0 -0.00000000000E+00 -0.00000000000E+00  0.00000000000E+00  0.93800000000E+00  0.93800000000E+00 0.  1.
         11    1    1    2    0    0 -0.46618580490E-01 -0.23926603177E+00  0.95222694333E+00  0.98293333382E+00  0.51100000000E-03 0. -1.
    9000002    1    1    2    0    0 -0.15245301711E+00  0.47256212616E-01  0.58771487099E-01  0.95329594552E+00  0.93800000000E+00 0.  1.
         22    1    1    2    0    0  0.19907159760E+00  0.19200981915E+00  0.29890015369E+01  0.30017707207E+01  0.00000000000E+00 0. -1.
</event>
<event>
 5    1  0.3269840E+002  0.1598736E+01  0.7818608E-02  0.3354736E+00
         11   -1    0    0    0    0  0.00000000000E+00  0.00000000000E+00  0.39999999674E+01  0.40000000000E+01  0.51100000000E-03 0. -1.
    9000002   -1    0    0    0    0 -0.00000000000E+00 -0.00000000000E+00  0.00000000000E+00  0.93800000000E+00  0.93800000000E+00 0. -1.
         11    1    1    2    0    0  0.59572884298E-02 -0.24119770709E-01  0.38270555454E+00  0.38351147990E+00  0.51100000000E-03 0. -1.
    9000002    1    1    2    0    0  0.14699619991E+00  0.16379830492E+00  0.32818297411E-01  0.96403257628E+00  0.93800000000E+00 0. -1.
         22    1    1    2    0    0 -0.15295348834E+00 -0.13967853421E+00  0.35844761154E+01  0.35904559438E+01  0.00000000000E+00 0.  1.
</event>
<event>
 5    1  0.3269840E+002  0.1598811E+01  0.7818608E-02  0.3354655E+00
         11   -1    0    0    0    0  0.00000000000E+00  0.00000000000E+00  0.39999999674E+01  0.40000000000E+01  0.51100000000E-03 0.  1.
    9000002   -1    0    0    0    0 -0.00000000000E+00 -0.00000000000E+00  0.00000000000E+00  0.93800000000E+00  0.93800000000E+00 0.  1.
         11    1    1    2    0    0  0.31334860932E-02 -0.11965948651E+00  0.10627065206E+01  0.10694267723E+01  0.51100000000E-03 0.  1.
    9000002    1    1    2    0    0  0.57148280371E-01  0.34704859417E+00  0.83662340982E-01  0.10052621747E+01  0.93800000000E+00 0.  1.
         22    1    1    2    0    0 -0.60281766464E-01 -0.22738910766E+00  0.28536311058E+01  0.28633110529E+01  0.00000000000E+00 0.  1.
</event>
<event>
 5    1  0.3269840E+002  0.1599629E+01  0.7818608E-02  0.3353766E+00
         11   -1    0    0    0    0  0.00000000000E+00  0.00000000000E+00  0.39999999674E+01  0.40000000000E+01  0.51100000000E-03 0.  1.
    9000002   -1    0    0    0    0 -0.00000000000E+00 -0.00000000000E+00  0.00000000000E+00  0.93800000000E+00  0.93800000000E+00 0. -1.
         11    1    1    2    0    0  0.12902476547E+00  0.11009797409E+00  0.14043525979E+01  0.14145583884E+01  0.51100000000E-03 0.  1.
    9000002    1    1    2    0    0 -0.34057962758E+00 -0.28627432647E+00  0.13438397950E+00  0.10468287953E+01  0.93800000000E+00 0. -1.
         22    1    1    2    0    0  0.21155486210E+00  0.17617635239E+00  0.24612633900E+01  0.24766128163E+01  0.00000000000E+00 0.  1.
</event>
<event>
 5    1  0.3269840E+002  0.1599677E+01  0.7818608E-02  0.3353714E+00
         11   -1    0    0    0    0  0.00000000000E+00  0.00000000000E+00  0.39999999674E+01  0.40000000000E+01  0.51100000000E-03 0.  1.
    9000002   -1    0    0    0    0 -0.00000000000E+00 -0.00000000000E+00  0.00000000000E+00  0.93800000000E+00  0.93800000000E+00 0. -1.
         11    1    1    2    0    0 -0.18236122843E+00 -0.18244072355E-02  0.17050912324E+01  0.17148164095E+01  0.51100000000E-03 0. -1.
    9000002    1    1    2    0    0  0.41518678320E+00  0.44151810805E-02  0.11651923212E+00  0.10323857274E+01  0.93800000000E+00 0. -1.
         22    1    1    2    0    0 -0.23282555477E+00 -0.25907738450E-02  0.21783895028E+01  0.21907978631E+01  0.00000000000E+00 0.  1.
</event>
<event>
 5    1  0.3269840E+002  0.1598621E+01  0.7818608E-02  0.3354862E+00
         11   -1    0    0    0    0  0.00000000000E+00  0.00000000000E+00  0.39999999674E+01  0.40000000000E+01  0.51100000000E-03 0. -1.
    9000002   -1    0    0    0    0 -0.00000000000E+00 -0.00000000000E+00  0.00000000000E+00  0.93800000000E+00  0.93800000000E+00 0. -1.
         11    1    1    2    0    0  0.65599971283E+00 -0.36013354726E+00  0.24405299174E+01  0.25526884522E+01  0.51100000000E-03 0. -1.
    9000002    1    1    2    0    0 -0.83299783277E+00  0.49996535490E+00  0.74943718479E+00  0.15444581054E+01  0.93800000000E+00 0. -1.
         22    1    1    2    0    0  0.17699811994E+00 -0.13983180765E+00  0.81003286513E+00  0.84085344233E+00  0.00000000000E+00 0.  1.
</event>
<event>
 5    1  0.3269840E+002  0.1599675E+01  0.7818608E-02  0.3353716E+00
         11   -1    0    0    0    0  0.00000000000E+00  0.00000000000E+00  0.39999999674E+01  0.40000000000E+01  0.51100000000E-03 0. -1.
    9000002   -1    0    0    0    0 -0.00000000000E+00 -0.00000000000E+00  0.00000000000E+00  0.93800000000E+00  0.93800000000E+00 0.  1.
         11    1    1    2    0    0  0.78175858198E-01 -0.19999881564E+00  0.13171449748E+01  0.13345344270E+01  0.51100000000E-03 0. -1.
    9000002    1    1    2    0    0 -0.22566420369E+00  0.56628824862E+00  0.25980931186E+00  0.11484561776E+01  0.93800000000E+00 0.  1.
         22    1    1    2    0    0  0.14748834549E+00 -0.36628943298E+00  0.24230456807E+01  0.24550093954E+01  0.00000000000E+00 0. -1.
</event>
<event>
 5    1  0.3269840E+002  0.1594852E+01  0.7818608E-02  0.3358970E+00
         11   -1    0    0    0    0  0.00000000000E+00  0.00000000000E+00  0.39999999674E+01  0.40000000000E+01  0.51100000000E-03 0. -1.
    9000002   -1    0    0    0    0 -0.00000000000E+00 -0.00000000000E+00  0.00000000000E+00  0.93800000000E+00  0.93800000000E+00 0.  1.
         11    1    1    2    0    0  0.53641279603E-01 -0.25946448265E+00  0.13971657682E+01  0.14220659794E+01  0.51100000000E-03 0. -1.
    9000002    1    1    2    0    0 -0.28419866275E+00  0.52957080935E+00  0.25689032683E+00  0.11432632077E+01  0.93800000000E+00 0.  1.
         22    1    1    2    0    0  0.23055738314E+00 -0.27010632671E+00  0.23459438723E+01  0.23726708129E+01  0.00000000000E+00 0.  1.
</event>
<event>
 5    1  0.3269840E+002  0.1599677E+01  0.7818608E-02  0.3353715E+00
         11   -1    0    0    0    0  0.00000000000E+00  0.00000000000E+00  0.39999999674E+01  0.40000000000E+01  0.51100000000E-03 0.  1.
    9000002   -1    0    0    0    0 -0.00000000000E+00 -0.00000000000E+00  0.00000000000E+00  0.93800000000E+00  0.93800000000E+00 0. -1.
         11    1    1    2    0    0 -0.15021036696E+00  0.55045858719E-01  0.15465413847E+01  0.15547937859E+01  0.51100000000E-03 0.  1.
    9000002    1    1    2    0    0  0.37708010158E+00 -0.14040634379E+00  0.10924082323E+00  0.10264896014E+01  0.93800000000E+00 0. -1.
         22    1    1    2    0    0 -0.22686973463E+00  0.85360485073E-01  0.23442177594E+01  0.23567166127E+01  0.00000000000E+00 0.  1.
</event>
<event>
 5    1  0.3269840E+002  0.1599677E+01  0.7818608E-02  0.3353714E+00
         11   -1    0    0    0    0  0.00000000000E+00  0.00000000000E+00  0.39999999674E+01  0.40000000000E+01  0.51100000000E-03 0. -1.
    9000002   -1    0    0    0    0 -0.00000000000E+00 -0.00000000000E+00  0.00000000000E+00  0.93800000000E+00  0.93800000000E+00 0. -1.
         11    1    1    2    0    0 -0.46695154969E-01  0.90975005439E-01  0.10167224363E+01  0.10218520747E+01  0.51100000000E-03 0.  1.
    9000002    1    1    2    0    0  0.17907715240E+00 -0.34862173838E+00  0.10350411305E+00  0.10218428668E+01  0.93800000000E+00 0. -1.
         22    1    1    2    0    0 -0.13238199743E+00  0.25764673294E+00  0.28797734180E+01  0.28943050585E+01  0.00000000000E+00 0. -1.
</event>
<event>
 5    1  0.3269840E+002  0.1599677E+01  0.7818608E-02  0.3353714E+00
         11   -1    0    0    0    0  0.00000000000E+00  0.00000000000E+00  0.39999999674E+01  0.40000000000E+01  0.51100000000E-03 0. -1.
    9000002   -1    0    0    0    0 -0.00000000000E+00 -0.00000000000E+00  0.00000000000E+00  0.93800000000E+00  0.93800000000E+00 0. -1.
         11    1    1    2    0    0 -0.35433859515E-01  0.52162645611E-03  0.55578332261E+00  0.55691219533E+00  0.51100000000E-03 0.  1.
    9000002    1    1    2    0    0  0.25309079172E+00 -0.55586021632E-02  0.42582178706E-01  0.97249323332E+00  0.93800000000E+00 0. -1.
         22    1    1    2    0    0 -0.21765693220E+00  0.50369757071E-02  0.34016344660E+01  0.34085945713E+01  0.00000000000E+00 0. -1.
</event>
<event>
 5    1  0.3269840E+002  0.1583385E+01  0.7818608E-02  0.3371597E+00
         11   -1    0    0    0    0  0.00000000000E+00  0.00000000000E+00  0.39999999674E+01  0.40000000000E+01  0.51100000000E-03 0.  1.
    9000002   -1    0    0    0    0 -0.00000000000E+00 -0.00000000000E+00  0.00000000000E+00  0.93800000000E+00  0.93800000000E+00 0.  1.
         11    1    1    2    0    0 -0.10106286472E+00 -0.30357294295E+00  0.10601752459E+01  0.11074032903E+01  0.51100000000E-03 0.  1.
    9000002    1    1    2    0    0  0.30525303907E+00  0.56585854007E+00  0.30841760918E+00  0.11782787136E+01  0.93800000000E+00 0.  1.
         22    1    1    2    0    0 -0.20419017435E+00 -0.26228559712E+00  0.26314071123E+01  0.26523179961E+01  0.00000000000E+00 0.  1.
</event>
<event>
 5    1  0.3269840E+002  0.1599676E+01  0.7818608E-02  0.3353715E+00
         11   -1    0    0    0    0  0.00000000000E+00  0.00000000000E+00  0.39999999674E+01  0.40000000000E+01  0.51100000000E-03 0.  1.
    9000002   -1    0    0    0    0 -0.00000000000E+00 -0.00000000000E+00  0.00000000000E+00  0.93800000000E+00  0.93800000000E+00 0.  1.
         11    1    1    2    0    0 -0.79054342377E-01 -0.22640879949E+00  0.18265564288E+01  0.18422321195E+01  0.51100000000E-03 0.  1.
    9000002    1    1    2    0    0  0.16675252949E+00  0.47600621016E+00  0.17427218610E+00  0.10791677873E+01  0.93800000000E+00 0.  1.
         22    1    1    2    0    0 -0.87698187108E-01 -0.24959741067E+00  0.19991713525E+01  0.20166000932E+01  0.00000000000E+00 0.  1.
</event>
<event>
 5    1  0.3269840E+002  0.1599661E+01  0.7818608E-02  0.3353732E+00
         11   -1    0    0    0    0  0.00000000000E+00  0.00000000000E+00  0.39999999674E+01  0.40000000000E+01  0.51100000000E-03 0.  1.
    9000002   -1    0    0    0    0 -0.00000000000E+00 -0.00000000000E+00  0.00000000000E+00  0.93800000000E+00  0.93800000000E+00 0. -1.
         11    1    1    2    0    0 -0.11328374556E-01 -0.26508849130E-01  0.39816076904E+00  0.39920334452E+00  0.51100000000E-03 0.  1.
    9000002    1    1    2    0    0  0.83863141210E-01  0.26549283746E+00  0.51626937513E-01  0.97981060102E+00  0.93800000000E+00 0. -1.
         22    1    1    2    0    0 -0.72534766654E-01 -0.23898398833E+00  0.35502122608E+01  0.35589860545E+01  0.00000000000E+00 0.  1.
</event>
<event>
 5    1  0.3269840E+002  0.1598360E+01  0.7818608E-02  0.3355146E+00
         11   -1    0    0    0    0  0.00000000000E+00  0.00000000000E+00  0.39999999674E+01  0.40000000000E+01  0.51100000000E-03 0. -1.
    9000002   -1    0    0    0    0 -0.00000000000E+00 -0.00000000000E+00  0.00000000000E+00  0.93800000000E+00  0.93800000000E+00 0. -1.
         11    1    1    2    0    0  0.10109799186E-01  0.58502194851E-01  0.51651134331E+00  0.51991243853E+00  0.51100000000E-03 0. -1.
    9000002    1    1    2    0    0 -0.12570957401E+00 -0.22718569175E+00  0.45829298302E-01  0.97435135352E+00  0.93800000000E+00 0. -1.
         22    1    1    2    0    0  0.11559977482E+00  0.16868349690E+00  0.34376593257E+01  0.34437362080E+01  0.00000000000E+00 0. -1.
</event>
<event>
 5    1  0.3269840E+002  0.1599638E+01  0.7818608E-02  0.3353756E+00
         11   -1    0    0    0    0  0.00000000000E+00  0.00000000000E+00  0.39999999674E+01  0.40000000000E+01  0.51100000000E-03 0.  1.
    9000002   -1    0    0    0    0 -0.00000000000E+00 -0.00000000000E+00  0.00000000000E+00  0.93800000000E+00  0.93800000000E+00 0.  1.
         11    1    1    2    0    0 -0.46835574107E-02  0.11602958894E-01  0.26880668396E+00  0.26909823267E+00  0.51100000000E-03 0.  1.
    9000002    1    1    2    0    0  0.11042311731E+00 -0.20763703612E+00  0.36728538986E-01  0.96772898540E+00  0.93800000000E+00 0.  1.
         22    1    1    2    0    0 -0.10573955990E+00  0.19603407723E+00  0.36944647444E+01  0.37011727819E+01  0.00000000000E+00 0.  1.
</event>
<event>
 5    1  0.3269840E+002  0.1599674E+01  0.7818608E-02  0.3353718E+00
         11   -1    0    0    0    0  0.00000000000E+00  0.00000000000E+00  0.39999999674E+01  0.40000000000E+01  0.51100000000E-03 0. -1.
    9000002   -1    0    0    0    0 -0.00000000000E+00 -0.00000000000E+00  0.00000000000E+00  0.93800000000E+00  0.93800000000E+00 0. -1.
         11    1    1    2    0    0  0.10163949244E+00 -0.16762733419E+00  0.17172366092E+01  0.17283898122E+01  0.51100000000E-03 0. -1.
    9000002    1    1    2    0    0 -0.23109604426E+00  0.38164565112E+00  0.13512430942E+00  0.10474547072E+01  0.93800000000E+00 0. -1.
         22    1    1    2    0    0  0.12945655182E+00 -0.21401831693E+00  0.21476390487E+01  0.21621554806E+01  0.00000000000E+00 0. -1.
</event>
<event>
 5    1  0.3269840E+002  0.1578180E+01  0.7818608E-02  0.3377392E+00
         11   -1    0    0    0    0  0.00000000000E+00  0.00000000000E+00  0.39999999674E+01  0.40000000000E+01  0.51100000000E-03 0.  1.
    9000002   -1    0    0    0    0 -0.00000000000E+00 -0.00000000000E+00  0.00000000000E+00  0.93800000000E+00  0.93800000000E+00 0.  1.
         11    1    1    2    0    0 -0.25632918644E-01  0.78015623907E-01  0.18467112362E+00  0.20210682599E+00  0.51100000000E-03 0.  1.
    9000002    1    1    2    0    0  0.41829017277E+00 -0.28179993051E-01  0.13722025969E+00  0.10365491693E+01  0.93800000000E+00 0.  1.
         22    1    1    2    0    0 -0.39265725413E+00 -0.49835630856E-01  0.36781085841E+01  0.36993440047E+01  0.00000000000E+00 0.  1.
</event>
<event>
 5    1  0.3269840E+002  0.1578432E+01  0.7818608E-02  0.3377110E+00
         11   -1    0    0    0    0  0.00000000000E+00  0.00000000000E+00  0.39999999674E+01  0.40000000000E+01  0.51100000000E-03 0. -1.
    9000002   -1    0    0    0    0 -0.00000000000E+00 -0.00000000000E+00  0.00000000000E+00  0.93800000000E+00  0.93800000000E+00 0.  1.
         11    1    1    2    0    0 -0.30512570702E-01  0.16288376234E+00  0.26940995946E+01  0.26991915500E+01  0.51100000000E-03 0. -1.
    9000002    1    1    2    0    0 -0.17131733812E+00 -0.32948175347E+00  0.11024027114E+00  0.10148422407E+01  0.93800000000E+00 0.  1.
         22    1    1    2    0    0  0.20182990882E+00  0.16659799113E+00  0.11956601016E+01  0.12239662092E+01  0.00000000000E+00 0. -1.
</event>
<event>
 5    1  0.3269840E+002  0.1599677E+01  0.7818608E-02  0.3353714E+00
         11   -1    0    0    0    0  0.00000000000E+00  0.00000000000E+00  0.39999999674E+01  0.40000000000E+01  0.51100000000E-03 0. -1.
    9000002   -1    0    0    0    0 -0.00000000000E+00 -0.00000000000E+00  0.00000000000E+00  0.93800000000E+00  0.93800000000E+00 0.  1.
         11    1    1    2    0    0 -0.18534768231E+00  0.46483876876E-01  0.18214790016E+01  0.18314749599E+01  0.51100000000E-03 0. -1.
    9000002    1    1    2    0    0  0.39686427671E+00 -0.10017049496E+00  0.11314325998E+00  0.10296508046E+01  0.93800000000E+00 0.  1.
         22    1    1    2    0    0 -0.21151659440E+00  0.53686618084E-01  0.20653777058E+01  0.20768742355E+01  0.00000000000E+00 0. -1.
</event>
<event>
 5    1  0.3269840E+002  0.1503987E+01  0.7818608E-02  0.3464653E+00
         11   -1    0    0    0    0  0.00000000000E+00  0.00000000000E+00  0.39999999674E+01  0.40000000000E+01  0.51100000000E-03 0. -1.
    9000002   -1    0    0    0    0 -0.00000000000E+00 -0.00000000000E+00  0.00000000000E+00  0.93800000000E+00  0.93800000000E+00 0. -1.
         11    1    1    2    0    0  0.91232929947E-01  0.18894998337E+00  0.18095599981E+00  0.27707558303E+00  0.51100000000E-03 0. -1.
    9000002    1    1    2    0    0 -0.16510693856E+00 -0.50454494747E+00  0.28879648722E+00  0.11158285335E+01  0.93800000000E+00 0. -1.
         22    1    1    2    0    0  0.73874008609E-01  0.31559496410E+00  0.35302474803E+01  0.35450958835E+01  0.00000000000E+00 0. -1.
</event>
<event>
 5    1  0.3269840E+002  0.1599675E+01  0.7818608E-02  0.3353716E+00
         11   -1    0    0    0    0  0.00000000000E+00  0.00000000000E+00  0.39999999674E+01  0.40000000000E+01  0.51100000000E-03 0. -1.
    9000002   -1    0    0    0    0 -0.00000000000E+00 -0.00000000000E+00  0.00000000000E+00  0.93800000000E+00  0.93800000000E+00 0. -1.
         11    1    1    2    0    0 -0.13349567727E-01 -0.19334960913E-01  0.31455086308E+00  0.31542758006E+00  0.51100000000E-03 0.  1.
    9000002    1    1    2    0    0  0.15987496106E+00  0.23828684265E+00  0.54866513125E-01  0.98244336061E+00  0.93800000000E+00 0. -1.
         22    1    1    2    0    0 -0.14652539333E+00 -0.21895188174E+00  0.36305825912E+01  0.36401290593E+01  0.00000000000E+00 0. -1.
</event>
<event>
 5    1  0.3269840E+002  0.1598121E+01  0.7818608E-02  0.3355405E+00
         11   -1    0    0    0    0  0.00000000000E+00  0.00000000000E+00  0.39999999674E+01  0.40000000000E+01  0.51100000000E-03 0. -1.
    9000002   -1    0    0    0    0 -0.00000000000E+00 -0.00000000000E+00  0.00000000000E+00  0.93800000000E+00  0.93800000000E+00 0.  1.
         11    1    1    2    0    0 -0.45825281901E-02  0.17066372531E-01  0.10634736625E+00  0.10780669768E+00  0.51100000000E-03 0. -1.
    9000002    1    1    2    0    0 -0.23150588449E+00 -0.22499611511E+00  0.70913183754E-01  0.99453049526E+00  0.93800000000E+00 0.  1.
         22    1    1    2    0    0  0.23608841268E+00  0.20792974258E+00  0.38227394174E+01  0.38356628071E+01  0.00000000000E+00 0. -1.
</event>
<event>
 5    1  0.3269840E+002  0.1559027E+01  0.7818608E-02  0.3399071E+00
         11   -1    0    0    0    0  0.00000000000E+00  0.00000000000E+00  0.39999999674E+01  0.40000000000E+01  0.51100000000E-03 0.  1.
    9000002   -1    0    0    0    0 -0.00000000000E+00 -0.00000000000E+00  0.00000000000E+00  0.93800000000E+00  0.93800000000E+00 0. -1.
         11    1    1    2    0    0  0.72418850573E-01  0.14571775978E+00  0.10940990244E+01  0.11061333969E+01  0.51100000000E-03 0.  1.
    9000002    1    1    2    0    0  0.12377640116E+00  0.15675692572E+00  0.57513061014E-01  0.96075235281E+00  0.93800000000E+00 0. -1.
         22    1    1    2    0    0 -0.19619525173E+00 -0.30247468550E+00  0.28483878819E+01  0.28711142503E+01  0.00000000000E+00 0.  1.
</event>
<event>
 5    1  0.3269840E+002  0.1599677E+01  0.7818608E-02  0.3353714E+00
         11   -1    0    0    0    0  0.00000000000E+00  0.00000000000E+00  0.39999999674E+01  0.40000000000E+01  0.51100000000E-03 0.  1.
    9000002   -1    0    0    0    0 -0.00000000000E+00 -0.00000000000E+00  0.00000000000E+00  0.93800000000E+00  0.93800000000E+00 0.  1.
         11    1    1    2    0    0  0.12621694581E+00 -0.96450446763E-01  0.12450932393E+01  0.12551855806E+01  0.51100000000E-03 0.  1.
    9000002    1    1    2    0    0 -0.38712672494E+00  0.29810676165E+00  0.16311974781E+00  0.10701340078E+01  0.93800000000E+00 0.  1.
         22    1    1    2    0    0  0.26090977913E+00 -0.20165631488E+00  0.25917869802E+01  0.26126804116E+01  0.00000000000E+00 0.  1.
</event>
<event>
 5    1  0.3269840E+002  0.1599673E+01  0.7818608E-02  0.3353718E+00
         11   -1    0    0    0    0  0.00000000000E+00  0.00000000000E+00  0.39999999674E+01  0.40000000000E+01  0.51100000000E-03 0.  1.
    9000002   -1    0    0    0    0 -0.00000000000E+00 -0.00000000000E+00  0.00000000000E+00  0.93800000000E+00  0.93800000000E+00 0. -1.
         11    1    1    2    0    0  0.10064457427E+00 -0.12749475951E+00  0.16555612786E+01  0.16635106409E+01  0.51100000000E-03 0.  1.
    9000002    1    1    2    0    0 -0.23241949613E+00  0.30358488097E+00  0.98388852038E-01  0.10176968941E+01  0.93800000000E+00 0. -1.
         22    1    1    2    0    0  0.13177492186E+00 -0.17609012146E+00  0.22460498368E+01  0.22567924650E+01  0.00000000000E+00 0. -1.
</event>
<event>
 5    1  0.3269840E+002  0.1593161E+01  0.7818608E-02  0.3360820E+00
         11   -1    0    0    0    0  0.00000000000E+00  0.00000000000E+00  0.39999999674E+01  0.40000000000E+01  0.51100000000E-03 0. -1.
    9000002   -1    0    0    0    0 -0.00000000000E+00 -0.00000000000E+00  0.00000000000E+00  0.93800000000E+00  0.93800000000E+00 0.  1.
         11    1    1    2    0    0  0.10414907199E+00  0.95974262331E-01  0.10229960316E+01  0.10327532280E+01  0.51100000000E-03 0. -1.
    9000002    1    1    2    0    0 -0.36231866176E+00 -0.41857842989E-01  0.94658697629E-01  0.10108566470E+01  0.93800000000E+00 0.  1.
         22    1    1    2    0    0  0.25816958977E+00 -0.54116419342E-01  0.28823452381E+01  0.28943901250E+01  0.00000000000E+00 0. -1.
</event>
<event>
 5    1  0.3269840E+002  0.1599465E+01  0.7818608E-02  0.3353945E+00
         11   -1    0    0    0    0  0.00000000000E+00  0.00000000000E+00  0.39999999674E+01  0.40000000000E+01  0.51100000000E-03 0. -1.
    9000002   -1    0    0    0    0 -0.00000000000E+00 -0.00000000000E+00  0.00000000000E+00  0.93800000000E+00  0.93800000000E+00 0. -1.
         11    1    1    2    0    0  0.51947704616E-01 -0.13785376784E+00  0.15354070845E+01  0.15424582334E+01  0.51100000000E-03 0. -1.
    9000002    1    1    2    0    0 -0.88910988693E-01  0.34738976584E+00  0.86472259457E-01  0.10079217554E+01  0.93800000000E+00 0. -1.
         22    1    1    2    0    0  0.36963284077E-01 -0.20953599800E+00  0.23781206234E+01  0.23876200113E+01  0.00000000000E+00 0.  1.
</event>
<event>
 5    1  0.3269840E+002  0.1599526E+01  0.7818608E-02  0.3353878E+00
         11   -1    0    0    0    0  0.00000000000E+00  0.00000000000E+00  0.39999999674E+01  0.40000000000E+01  0.51100000000E-03 0.  1.
    9000002   -1    0    0    0    0 -0.00000000000E+00 -0.00000000000E+00  0.00000000000E+00  0.93800000000E+00  0.93800000000E+00 0. -1.
         11    1    1    2    0    0 -0.14362719494E-01 -0.53032098444E-01  0.70334179286E+00  0.70548467728E+00  0.51100000000E-03 0.  1.
    9000002    1    1    2    0    0  0.10398216976E+00  0.23890546922E+00  0.45250729200E-01  0.97456643865E+00  0.93800000000E+00 0. -1.
         22    1    1    2    0    0 -0.89619450268E-01 -0.18587337078E+00  0.32514074453E+01  0.32579488841E+01  0.00000000000E+00 0.  1.
</event>
<event>
 5    1  0.3269840E+002  0.1599677E+01  0.7818608E-02  0.3353714E+00
         11   -1    0    0    0    0  0.00000000000E+00  0.00000000000E+00  0.39999999674E+01  0.40000000000E+01  0.51100000000E-03 0. -1.
    9000002   -1    0    0    0    0 -0.00000000000E+00 -0.00000000000E+00  0.00000000000E+00  0.93800000000E+00  0.93800000000E+00 0. -1.
         11    1    1    2    0    0  0.51494048864E-01  0.84434776868E-01  0.98614515669E+00  0.99109202388E+00  0.51100000000E-03 0. -1.
    9000002    1    1    2    0    0 -0.20539471058E+00 -0.33376594703E+00  0.10349114640E+00  0.10218322328E+01  0.93800000000E+00 0. -1.
         22    1    1    2    0    0  0.15390066171E+00  0.24933117017E+00  0.29103636643E+01  0.29250757434E+01  0.00000000000E+00 0. -1.
</event>
<event>
 5    1  0.3269840E+002  0.1599658E+01  0.7818608E-02  0.3353735E+00
         11   -1    0    0    0    0  0.00000000000E+00  0.00000000000E+00  0.39999999674E+01  0.40000000000E+01  0.51100000000E-03 0. -1.
    9000002   -1    0    0    0    0 -0.00000000000E+00 -0.00000000000E+00  0.00000000000E+00  0.93800000000E+00  0.93800000000E+00 0. -1.
         11    1    1    2    0    0  0.14718030330E-01  0.20178104708E-01  0.28853362513E+00  0.28961300088E+00  0.51100000000E-03 0. -1.
    9000002    1    1    2    0    0 -0.22517095105E+00 -0.24715983226E+00  0.74845617028E-01  0.99861694671E+00  0.93800000000E+00 0. -1.
         22    1    1    2    0    0  0.21045292072E+00  0.22698172755E+00  0.36366207252E+01  0.36497700524E+01  0.00000000000E+00 0. -1.
</event>
<event>
 5    1  0.3269840E+002  0.1579472E+01  0.7818608E-02  0.3375950E+00
         11   -1    0    0    0    0  0.00000000000E+00  0.00000000000E+00  0.39999999674E+01  0.40000000000E+01  0.51100000000E-03 0.  1.
    9000002   -1    0    0    0    0 -0.00000000000E+00 -0.00000000000E+00  0.00000000000E+00  0.93800000000E+00  0.93800000000E+00 0. -1.
         11    1    1    2    0    0 -0.28798140290E-01  0.82953156646E-01  0.16088268341E+00  0.18328681901E+00  0.51100000000E-03 0.  1.
    9000002    1    1    2    0    0 -0.20209290685E+00 -0.50478016763E+00  0.22316987845E+00  0.11069296975E+01  0.93800000000E+00 0. -1.
         22    1    1    2    0    0  0.23089104714E+00  0.42182701098E+00  0.36159474055E+01  0.36477834835E+01  0.00000000000E+00 0.  1.
</event>
<event>
 5    1  0.3269840E+002  0.1598426E+01  0.7818608E-02  0.3355073E+00
         11   -1    0    0    0    0  0.00000000000E+00  0.00000000000E+00  0.39999999674E+01  0.40000000000E+01  0.51100000000E-03 0.  1.
    9000002   -1    0    0    0    0 -0.00000000000E+00 -0.00000000000E+00  0.00000000000E+00  0.93800000000E+00  0.93800000000E+00 0.  1.
         11    1    1    2    0    0 -0.17856102058E-03 -0.20489654393E-03 -0.27882843340E-03  0.64244293681E-03  0.51100000000E-03 0.  1.
    9000002    1    1    2    0    0 -0.99195990301E-01  0.22988007063E+00  0.42598594733E-01  0.97177329230E+00  0.93800000000E+00 0.  1.
         22    1    1    2    0    0  0.99374551321E-01 -0.22967517408E+00  0.39576802011E+01  0.39655842648E+01  0.00000000000E+00 0.  1.
</event>
<event>
 5    1  0.3269840E+002  0.1467865E+01  0.7818608E-02  0.3510575E+00
         11   -1    0    0    0    0  0.00000000000E+00  0.00000000000E+00  0.39999999674E+01  0.40000000000E+01  0.51100000000E-03 0. -1.
    9000002   -1    0    0    0    0 -0.00000000000E+00 -0.00000000000E+00  0.00000000000E+00  0.93800000000E+00  0.93800000000E+00 0. -1.
         11    1    1    2    0    0  0.12222663691E+00 -0.35980584756E+00  0.70281689102E+00  0.79896898697E+00  0.51100000000E-03 0. -1.
    9000002    1    1    2    0    0 -0.88670072749E-01 -0.98450160987E-01  0.15075726925E+00  0.95923228169E+00  0.93800000000E+00 0. -1.
         22    1    1    2    0    0 -0.33556564163E-01  0.45825600855E+00  0.31464258071E+01  0.31797987313E+01  0.00000000000E+00 0. -1.
</event>
<event>
 5    1  0.3269840E+002  0.1405974E+01  0.7818608E-02  0.3597346E+00
         11   -1    0    0    0    0  0.00000000000E+00  0.00000000000E+00  0.39999999674E+01  0.40000000000E+01  0.51100000000E-03 0. -1.
    9000002   -1    0    0    0    0 -0.00000000000E+00 -0.00000000000E+00  0.00000000000E+00  0.93800000000E+00  0.93800000000E+00 0.  1.
         11    1    1    2    0    0  0.13748387555E+00 -0.72265503959E+00  0.33421519405E+01  0.34221501978E+01  0.51100000000E-03 0. -1.
    9000002    1    1    2    0    0 -0.20794721980E-01  0.48254232954E+00  0.35741907167E+00  0.11139443043E+01  0.93800000000E+00 0.  1.
         22    1    1    2    0    0 -0.11668915357E+00  0.24011271005E+00  0.30042895524E+00  0.40190549789E+00  0.00000000000E+00 0.  1.
</event>
<event>
 5    1  0.3269840E+002  0.1599613E+01  0.7818608E-02  0.3353784E+00
         11   -1    0    0    0    0  0.00000000000E+00  0.00000000000E+00  0.39999999674E+01  0.40000000000E+01  0.51100000000E-03 0.  1.
    9000002   -1    0    0    0    0 -0.00000000000E+00 -0.00000000000E+00  0.00000000000E+00  0.93800000000E+00  0.93800000000E+00 0. -1.
         11    1    1    2    0    0  0.24529411328E+00 -0.22518239434E+00  0.22716779057E+01  0.22959523255E+01  0.51100000000E-03 0.  1.
    9000002    1    1    2    0    0 -0.42283572764E+00  0.36862776455E+00  0.21786724307E+00  0.11144445329E+01  0.93800000000E+00 0. -1.
         22    1    1    2    0    0  0.17754161436E+00 -0.14344537021E+00  0.15104548186E+01  0.15276031416E+01  0.00000000000E+00 0.  1.
</event>
<event>
 5    1  0.3269840E+002  0.1499230E+01  0.7818608E-02  0.3470564E+00
         11   -1    0    0    0    0  0.00000000000E+00  0.00000000000E+00  0.39999999674E+01  0.40000000000E+01  0.51100000000E-03 0. -1.
    9000002   -1    0    0    0    0 -0.00000000000E+00 -0.00000000000E+00  0.00000000000E+00  0.93800000000E+00  0.93800000000E+00 0. -1.
         11    1    1    2    0    0  0.80099630201E-01 -0.17614081719E+00  0.30189244541E+01  0.30251192801E+01  0.51100000000E-03 0. -1.
    9000002    1    1    2    0    0  0.13793706658E+00 -0.11358570949E+00  0.99977559037E-01  0.96008742313E+00  0.93800000000E+00 0. -1.
         22    1    1    2    0    0 -0.21803669679E+00  0.28972652668E+00  0.88109795421E+00  0.95279329675E+00  0.00000000000E+00 0.  1.
</event>
<event>
 5    1  0.3269840E+002  0.1599527E+01  0.7818608E-02  0.3353877E+00
         11   -1    0    0    0    0  0.00000000000E+00  0.00000000000E+00  0.39999999674E+01  0.40000000000E+01  0.51100000000E-03 0. -1.
    9000002   -1    0    0    0    0 -0.00000000000E+00 -0.00000000000E+00  0.00000000000E+00  0.93800000000E+00  0.93800000000E+00 0.  1.
         11    1    1    2    0    0 -0.30612894916E+00  0.40699257279E-01  0.16613023689E+01  0.16897624641E+01  0.51100000000E-03 0. -1.
    9000002    1    1    2    0    0  0.66559373451E+00 -0.60331930594E-01  0.31676128711E+00  0.11945026891E+01  0.93800000000E+00 0.  1.
         22    1    1    2    0    0 -0.35946478535E+00  0.19632673315E-01  0.20219363114E+01  0.20537348468E+01  0.00000000000E+00 0. -1.
</event>
<event>
 5    1  0.3269840E+002  0.1599673E+01  0.7818608E-02  0.3353719E+00
         11   -1    0    0    0    0  0.00000000000E+00  0.00000000000E+00  0.39999999674E+01  0.40000000000E+01  0.51100000000E-03 0.  1.
    9000002   -1    0    0    0    0 -0.00000000000E+00 -0.00000000000E+00  0.00000000000E+00  0.93800000000E+00  0.93800000000E+00 0. -1.
         11    1    1    2    0    0  0.32985692516E+00 -0.75986828511E-01  0.20748639003E+01  0.21022939982E+01  0.51100000000E-03 0.  1.
    9000002    1    1    2    0    0 -0.59821188653E+00  0.13821893386E+00  0.26380955852E+00  0.11516950195E+01  0.93800000000E+00 0. -1.
         22    1    1    2    0    0  0.26835496137E+00 -0.62232105350E-01  0.16613265086E+01  0.16840109822E+01  0.00000000000E+00 0.  1.
</event>
<event>
 5    1  0.3269840E+002  0.1599677E+01  0.7818608E-02  0.3353714E+00
         11   -1    0    0    0    0  0.00000000000E+00  0.00000000000E+00  0.39999999674E+01  0.40000000000E+01  0.51100000000E-03 0.  1.
    9000002   -1    0    0    0    0 -0.00000000000E+00 -0.00000000000E+00  0.00000000000E+00  0.93800000000E+00  0.93800000000E+00 0.  1.
         11    1    1    2    0    0  0.62157425358E-01  0.22173533013E-01  0.89568141158E+00  0.89810949403E+00  0.51100000000E-03 0. -1.
    9000002    1    1    2    0    0 -0.27256854251E+00 -0.98653532779E-01  0.56003137034E-01  0.98336487697E+00  0.93800000000E+00 0.  1.
         22    1    1    2    0    0  0.21041111716E+00  0.76479999766E-01  0.30483154187E+01  0.30565256290E+01  0.00000000000E+00 0.  1.
</event>
<event>
 5    1  0.3269840E+002  0.1486248E+01  0.7818608E-02  0.3486904E+00
         11   -1    0    0    0    0  0.00000000000E+00  0.00000000000E+00  0.39999999674E+01  0.40000000000E+01  0.51100000000E-03 0.  1.
    9000002   -1    0    0    0    0 -0.00000000000E+00 -0.00000000000E+00  0.00000000000E+00  0.93800000000E+00  0.93800000000E+00 0.  1.
         11    1    1    2    0    0  0.56893269761E-01 -0.26426827270E+00  0.48617184041E+00  0.55627141184E+00  0.51100000000E-03 0.  1.
    9000002    1    1    2    0    0 -0.10065899406E+00 -0.50447410659E-01  0.96487511348E-01  0.94964783692E+00  0.93800000000E+00 0.  1.
         22    1    1    2    0    0  0.43765724296E-01  0.31471568336E+00  0.34173406156E+01  0.34320807512E+01  0.00000000000E+00 0.  1.
</event>
<event>
 5    1  0.3269840E+002  0.1599650E+01  0.7818608E-02  0.3353744E+00
         11   -1    0    0    0    0  0.00000000000E+00  0.00000000000E+00  0.39999999674E+01  0.40000000000E+01  0.51100000000E-03 0.  1.
    9000002   -1    0    0    0    0 -0.00000000000E+00 -0.00000000000E+00  0.00000000000E+00  0.93800000000E+00  0.93800000000E+00 0. -1.
         11    1    1    2    0    0 -0.15674451472E+00  0.19906764333E+00  0.19490235643E+01  0.19654235892E+01  0.51100000000E-03 0.  1.
    9000002    1    1    2    0    0  0.30049223752E+00 -0.40091212978E+00  0.17189567815E+00  0.10772271092E+01  0.93800000000E+00 0. -1.
         22    1    1    2    0    0 -0.14374772279E+00  0.20184448644E+00  0.18790807249E+01  0.18953493016E+01  0.00000000000E+00 0.  1.
</event>
<event>
 5    1  0.3269840E+002  0.1595140E+01  0.7818608E-02  0.3358655E+00
         11   -1    0    0    0    0  0.00000000000E+00  0.00000000000E+00  0.39999999674E+01  0.40000000000E+01  0.51100000000E-03 0. -1.
    9000002   -1    0    0    0    0 -0.00000000000E+00 -0.00000000000E+00  0.00000000000E+00  0.93800000000E+00  0.93800000000E+00 0.  1.
         11    1    1    2    0    0  0.75740095819E-01  0.24334322622E+00  0.27629970756E+01  0.27747262187E+01  0.51100000000E-03 0. -1.
    9000002    1    1    2    0    0 -0.16090767037E+00 -0.42625961792E+00  0.14505523620E+00  0.10528407106E+01  0.93800000000E+00 0.  1.
         22    1    1    2    0    0  0.85167574551E-01  0.18291639170E+00  0.10919476556E+01  0.11104330708E+01  0.00000000000E+00 0. -1.
</event>
<event>
 5    1  0.3269840E+002  0.1599446E+01  0.7818608E-02  0.3353965E+00
         11   -1    0    0    0    0  0.00000000000E+00  0.00000000000E+00  0.39999999674E+01  0.40000000000E+01  0.51100000000E-03 0. -1.
    9000002   -1    0    0    0    0 -0.00000000000E+00 -0.00000000000E+00  0.00000000000E+00  0.93800000000E+00  0.93800000000E+00 0. -1.
         11    1    1    2    0    0  0.34133417407E-02  0.33737706872E-02  0.27676647548E-01  0.28094326314E-01  0.51100000000E-03 0. -1.
    9000002    1    1    2    0    0 -0.64178819114E-01 -0.37629053134E+00  0.98252200393E-01  0.10174531830E+01  0.93800000000E+00 0. -1.
         22    1    1    2    0    0  0.60765477374E-01  0.37291676065E+00  0.38740711194E+01  0.38924524906E+01  0.00000000000E+00 0. -1.
</event>
<event>
 5    1  0.3269840E+002  0.1599282E+01  0.7818608E-02  0.3354143E+00
         11   -1    0    0    0    0  0.00000000000E+00  0.00000000000E+00  0.39999999674E+01  0.40000000000E+01  0.51100000000E-03 0. -1.
    9000002   -1    0    0    0    0 -0.00000000000E+00 -0.00000000000E+00  0.00000000000E+00  0.93800000000E+00  0.93800000000E+00 0.  1.
         11    1    1    2    0    0 -0.15217962455E+00  0.11994600162E+00  0.14693636911E+01  0.14820848826E+01  0.51100000000E-03 0. -1.
    9000002    1    1    2    0    0  0.40141152848E+00 -0.25309892732E+00  0.15386673160E+00  0.10624072916E+01  0.93800000000E+00 0.  1.
         22    1    1    2    0    0 -0.24923190392E+00  0.13315292571E+00  0.23767695446E+01  0.23935078257E+01  0.00000000000E+00 0. -1.
</event>
<event>
 5    1  0.3269840E+002  0.1580516E+01  0.7818608E-02  0.3374786E+00
         11   -1    0    0    0    0  0.00000000000E+00  0.00000000000E+00  0.39999999674E+01  0.40000000000E+01  0.51100000000E-03 0. -1.
    9000002   -1    0    0    0    0 -0.00000000000E+00 -0.00000000000E+00  0.00000000000E+00  0.93800000000E+00  0.93800000000E+00 0. -1.
         11    1    1    2    0    0 -0.93774398990E-01  0.38218389099E-01  0.27856756871E+00  0.29640248755E+00  0.51100000000E-03 0. -1.
    9000002    1    1    2    0    0  0.32368962369E+00  0.18272970703E+00  0.10868059654E+00  0.10148007639E+01  0.93800000000E+00 0. -1.
         22    1    1    2    0    0 -0.22991522470E+00 -0.22094809613E+00  0.36127518021E+01  0.36267967486E+01  0.00000000000E+00 0. -1.
</event>
<event>
 5    1  0.3269840E+002  0.1599016E+01  0.7818608E-02  0.3354432E+00
         11   -1    0    0    0    0  0.00000000000E+00  0.00000000000E+00  0.39999999674E+01  0.40000000000E+01  0.51100000000E-03 0. -1.
    9000002   -1    0    0    0    0 -0.00000000000E+00 -0.00000000000E+00  0.00000000000E+00  0.93800000000E+00  0.93800000000E+00 0.  1.
         11    1    1    2    0    0  0.92826386767E-01 -0.30533911080E-01  0.92525744667E+00  0.93040349395E+00  0.51100000000E-03 0. -1.
    9000002    1    1    2    0    0 -0.28301712702E+00  0.13842357456E+00  0.66834681722E-01  0.99175130696E+00  0.93800000000E+00 0.  1.
         22    1    1    2    0    0  0.19019074025E+00 -0.10788966348E+00  0.30079078390E+01  0.30158451991E+01  0.00000000000E+00 0. -1.
</event>
<event>
 5    1  0.3269840E+002  0.1598877E+01  0.7818608E-02  0.3354583E+00
         11   -1    0    0    0    0  0.00000000000E+00  0.00000000000E+00  0.39999999674E+01  0.40000000000E+01  0.51100000000E-03 0. -1.
    9000002   -1    0    0    0    0 -0.00000000000E+00 -0.00000000000E+00  0.00000000000E+00  0.93800000000E+00  0.93800000000E+00 0.  1.
         11    1    1    2    0    0 -0.41624886152E-01  0.13262299794E+00  0.17760175141E+01  0.17814488380E+01  0.51100000000E-03 0. -1.
    9000002    1    1    2    0    0  0.37644213970E-01 -0.34430596358E+00  0.81047964997E-01  0.10031831618E+01  0.93800000000E+00 0.  1.
         22    1    1    2    0    0  0.39806721826E-02  0.21168296564E+00  0.21429344882E+01  0.21533680002E+01  0.00000000000E+00 0. -1.
</event>
<event>
 5    1  0.3269840E+002  0.1595584E+01  0.7818608E-02  0.3358171E+00
         11   -1    0    0    0    0  0.00000000000E+00  0.00000000000E+00  0.39999999674E+01  0.40000000000E+01  0.51100000000E-03 0.  1.
    9000002   -1    0    0    0    0 -0.00000000000E+00 -0.00000000000E+00  0.00000000000E+00  0.93800000000E+00  0.93800000000E+00 0.  1.
         11    1    1    2    0    0 -0.28621836841E-01  0.67356649350E-01  0.79542072927E+00  0.79878064913E+00  0.51100000000E-03 0.  1.
    9000002    1    1    2    0    0 -0.13563705328E+00 -0.20484839698E+00  0.43212441833E-01  0.97060372506E+00  0.93800000000E+00 0.  1.
         22    1    1    2    0    0  0.16425889012E+00  0.13749174763E+00  0.31613667963E+01  0.31686156258E+01  0.00000000000E+00 0. -1.
</event>
<event>
 5    1  0.3269840E+002  0.1599364E+01  0.7818608E-02  0.3354054E+00
         11   -1    0    0    0    0  0.00000000000E+00  0.00000000000E+00  0.39999999674E+01  0.40000000000E+01  0.51100000000E-03 0. -1.
    9000002   -1    0    0    0    0 -0.00000000000E+00 -0.00000000000E+00  0.00000000000E+00  0.93800000000E+00  0.93800000000E+00 0. -1.
         11    1    1    2    0    0  0.96117708893E-01  0.77055199857E-01  0.15375364968E+01  0.15424638919E+01  0.51100000000E-03 0. -1.
    9000002    1    1    2    0    0 -0.22286311411E+00 -0.24480018601E+00  0.73584899483E-01  0.99742359915E+00  0.93800000000E+00 0. -1.
         22    1    1    2    0    0  0.12674540522E+00  0.16774498615E+00  0.23888785711E+01  0.23981125090E+01  0.00000000000E+00 0. -1.
</event>
<event>
 5    1  0.3269840E+002  0.1599677E+01  0.7818608E-02  0.3353714E+00
         11   -1    0    0    0    0  0.00000000000E+00  0.00000000000E+00  0.39999999674E+01  0.40000000000E+01  0.51100000000E-03 0. -1.
    9000002   -1    0    0    0    0 -0.00000000000E+00 -0.00000000000E+00  0.00000000000E+00  0.93800000000E+00  0.93800000000E+00 0.  1.
         11    1    1    2    0    0 -0.22131560452E+00  0.43334112517E+00  0.22509585668E+01  0.23029502509E+01  0.51100000000E-03 0.  1.
    9000002    1    1    2    0    0  0.35050007095E+00 -0.68634381276E+00  0.43330814921E+00  0.12889988678E+01  0.93800000000E+00 0.  1.
         22    1    1    2    0    0 -0.12918446644E+00  0.25300268759E+00  0.13157332513E+01  0.13460508812E+01  0.00000000000E+00 0. -1.
</event>
<event>
 5    1  0.3269840E+002  0.1564626E+01  0.7818608E-02  0.3392676E+00
         11   -1    0    0    0    0  0.00000000000E+00  0.00000000000E+00  0.39999999674E+01  0.40000000000E+01  0.51100000000E-03 0.  1.
    9000002   -1    0    0    0    0 -0.00000000000E+00 -0.00000000000E+00  0.00000000000E+00  0.93800000000E+00  0.93800000000E+00 0.  1.
         11    1    1    2    0    0  0.17959017523E+00  0.41484369339E-01  0.14006778825E+01  0.14127534730E+01  0.51100000000E-03 0.  1.
    9000002    1    1    2    0    0  0.98317589875E-01 -0.57617843415E-01  0.34672052226E-01  0.94553282099E+00  0.93800000000E+00 0.  1.
         22    1    1    2    0    0 -0.27790776511E+00  0.16133474076E-01  0.25646500327E+01  0.25797137060E+01  0.00000000000E+00 0.  1.
</event>
<event>
 5    1  0.3269840E+002  0.1599391E+01  0.7818608E-02  0.3354024E+00
         11   -1    0    0    0    0  0.00000000000E+00  0.00000000000E+00  0.39999999674E+01  0.40000000000E+01  0.51100000000E-03 0. -1.
    9000002   -1    0    0    0    0 -0.00000000000E+00 -0.00000000000E+00  0.00000000000E+00  0.93800000000E+00  0.93800000000E+00 0. -1.
         11    1    1    2    0    0 -0.63946305797E-01  0.39939538976E-01  0.67203891929E+00  0.67625503101E+00  0.51100000000E-03 0. -1.
    9000002    1    1    2    0    0  0.44122572956E+00 -0.18212230269E+00  0.15565185269E+00  0.10639173731E+01  0.93800000000E+00 0. -1.
         22    1    1    2    0    0 -0.37727942377E+00  0.14218276371E+00  0.31723091954E+01  0.31978275959E+01  0.00000000000E+00 0. -1.
</event>
<event>
 5    1  0.3269840E+002  0.1530970E+01  0.7818608E-02  0.3431871E+00
         11   -1    0    0    0    0  0.00000000000E+00  0.00000000000E+00  0.39999999674E+01  0.40000000000E+01  0.51100000000E-03 0. -1.
    9000002   -1    0    0    0    0 -0.00000000000E+00 -0.00000000000E+00  0.00000000000E+00  0.93800000000E+00  0.93800000000E+00 0.  1.
         11    1    1    2    0    0  0.18884680838E+00  0.14385985405E+00  0.16737114183E+01  0.16904641220E+01  0.51100000000E-03 0. -1.
    9000002    1    1    2    0    0  0.15578567442E+00  0.83431439099E-01  0.73604826689E-01  0.95733570491E+00  0.93800000000E+00 0.  1.
         22    1    1    2    0    0 -0.34463248279E+00 -0.22729129314E+00  0.22526837223E+01  0.22902001731E+01  0.00000000000E+00 0. -1.
</event>
<event>
 5    1  0.3269840E+002  0.1556144E+01  0.7818608E-02  0.3402383E+00
         11   -1    0    0    0    0  0.00000000000E+00  0.00000000000E+00  0.39999999674E+01  0.40000000000E+01  0.51100000000E-03 0.  1.
    9000002   -1    0    0    0    0 -0.00000000000E+00 -0.00000000000E+00  0.00000000000E+00  0.93800000000E+00  0.93800000000E+00 0. -1.
         11    1    1    2    0    0 -0.10118067714E+00 -0.81518966009E-01  0.16774972367E+01  0.16825219498E+01  0.51100000000E-03 0.  1.
    9000002    1    1    2    0    0  0.34280837841E+00 -0.36983537742E+00  0.21469386391E+00  0.10863854039E+01  0.93800000000E+00 0. -1.
         22    1    1    2    0    0 -0.24162770127E+00  0.45135434343E+00  0.21078088668E+01  0.21690926463E+01  0.00000000000E+00 0.  1.
</event>
<event>
 5    1  0.3269840E+002  0.1517332E+01  0.7818608E-02  0.3448285E+00
         11   -1    0    0    0    0  0.00000000000E+00  0.00000000000E+00  0.39999999674E+01  0.40000000000E+01  0.51100000000E-03 0.  1.
    9000002   -1    0    0    0    0 -0.00000000000E+00 -0.00000000000E+00  0.00000000000E+00  0.93800000000E+00  0.93800000000E+00 0.  1.
         11    1    1    2    0    0  0.39434080564E-01  0.26097288362E+00  0.14379004410E+01  0.14619233332E+01  0.51100000000E-03 0.  1.
    9000002    1    1    2    0    0  0.64287285726E-01  0.17940529346E+00  0.88280664250E-01  0.96122660705E+00  0.93800000000E+00 0.  1.
         22    1    1    2    0    0 -0.10372136629E+00 -0.44037817708E+00  0.24738188621E+01  0.25148500598E+01  0.00000000000E+00 0.  1.
</event>
<event>
 5    1  0.4873338E+002  0.1586864E+01  0.7818608E-02  0.3367745E+00
         11   -1    0    0    0    0  0.00000000000E+00  0.00000000000E+00  0.39999999674E+01  0.40000000000E+01  0.51100000000E-03 0. -1.
    9000002   -1    0    0    0    0 -0.00000000000E+00 -0.00000000000E+00  0.00000000000E+00  0.93800000000E+00  0.93800000000E+00 0.  1.
         11    1    1    2    0    0  0.22951457145E-01 -0.73368573829E-01  0.12123405693E+01  0.12147755489E+01  0.51100000000E-03 0. -1.
    9000002    1    1    2    0    0  0.51155993317E-01 -0.15073513204E+00  0.26278096628E-01  0.95177337326E+00  0.93800000000E+00 0.  1.
         22    1    1    2    0    0 -0.74107450462E-01  0.22410370587E+00  0.27613813014E+01  0.27714510779E+01  0.00000000000E+00 0.  1.
</event>
<event>
 5    1  0.3269840E+002  0.1493403E+01  0.7818608E-02  0.3477861E+00
         11   -1    0    0    0    0  0.00000000000E+00  0.00000000000E+00  0.39999999674E+01  0.40000000000E+01  0.51100000000E-03 0.  1.
    9000002   -1    0    0    0    0 -0.00000000000E+00 -0.00000000000E+00  0.00000000000E+00  0.93800000000E+00  0.93800000000E+00 0. -1.
         11    1    1    2    0    0 -0.42917805208E+00  0.91497493387E-01  0.26611451042E+01  0.26970834467E+01  0.51100000000E-03 0.  1.
    9000002    1    1    2    0    0  0.15907670015E+00  0.12273935808E+00  0.11111476050E+00  0.96569189525E+00  0.93800000000E+00 0. -1.
         22    1    1    2    0    0  0.27010135193E+00 -0.21423685146E+00  0.12277401027E+01  0.12752246581E+01  0.00000000000E+00 0.  1.
</event>
<event>
 5    1  0.3269840E+002  0.1598890E+01  0.7818608E-02  0.3354569E+00
         11   -1    0    0    0    0  0.00000000000E+00  0.00000000000E+00  0.39999999674E+01  0.40000000000E+01  0.51100000000E-03 0. -1.
    9000002   -1    0    0    0    0 -0.00000000000E+00 -0.00000000000E+00  0.00000000000E+00  0.93800000000E+00  0.93800000000E+00 0.  1.
         11    1    1    2    0    0  0.86543354755E-02 -0.96334977861E-03  0.21835350044E+00  0.21852765921E+00  0.51100000000E-03 0. -1.
    9000002    1    1    2    0    0  0.49180907144E-01  0.20625575295E+00  0.30379644317E-01  0.96214714054E+00  0.93800000000E+00 0.  1.
         22    1    1    2    0    0 -0.57835242620E-01 -0.20529240317E+00  0.37512668226E+01  0.37573252003E+01  0.00000000000E+00 0. -1.
</event>
<event>
 5    1  0.3269840E+002  0.1599677E+01  0.7818608E-02  0.3353714E+00
         11   -1    0    0    0    0  0.00000000000E+00  0.00000000000E+00  0.39999999674E+01  0.40000000000E+01  0.51100000000E-03 0. -1.
    9000002   -1    0    0    0    0 -0.00000000000E+00 -0.00000000000E+00  0.00000000000E+00  0.93800000000E+00  0.93800000000E+00 0.  1.
         11    1    1    2    0    0  0.48985091132E-01 -0.11891882350E+00  0.14855846494E+01  0.14911415886E+01  0.51100000000E-03 0. -1.
    9000002    1    1    2    0    0 -0.12898180277E+00  0.31310744505E+00  0.76794643744E-01  0.10002069760E+01  0.93800000000E+00 0.  1.
         22    1    1    2    0    0  0.79996711638E-01 -0.19418862154E+00  0.24376206743E+01  0.24466514354E+01  0.00000000000E+00 0. -1.
</event>
<event>
 5    1  0.3269840E+002  0.1599670E+01  0.7818608E-02  0.3353722E+00
         11   -1    0    0    0    0  0.00000000000E+00  0.00000000000E+00  0.39999999674E+01  0.40000000000E+01  0.51100000000E-03 0.  1.
    9000002   -1    0    0    0    0 -0.00000000000E+00 -0.00000000000E+00  0.00000000000E+00  0.93800000000E+00  0.93800000000E+00 0.  1.
         11    1    1    2    0    0 -0.11316055867E+00 -0.20448244687E-01  0.11392353534E+01  0.11450244077E+01  0.51100000000E-03 0.  1.
    9000002    1    1    2    0    0  0.39586550487E+00  0.73182092500E-01  0.10935831704E+00  0.10265809068E+01  0.93800000000E+00 0.  1.
         22    1    1    2    0    0 -0.28270494620E+00 -0.52733847812E-01  0.27514062969E+01  0.27663946855E+01  0.00000000000E+00 0.  1.
</event>
<event>
 5    1  0.3269840E+002  0.1515628E+01  0.7818608E-02  0.3450358E+00
         11   -1    0    0    0    0  0.00000000000E+00  0.00000000000E+00  0.39999999674E+01  0.40000000000E+01  0.51100000000E-03 0.  1.
    9000002   -1    0    0    0    0 -0.00000000000E+00 -0.00000000000E+00  0.00000000000E+00  0.93800000000E+00  0.93800000000E+00 0.  1.
         11    1    1    2    0    0 -0.52501752570E+00 -0.21027074407E+00  0.13003596018E+01  0.14180241688E+01  0.51100000000E-03 0.  1.
    9000002    1    1    2    0    0  0.79076638137E+00 -0.13317751152E+00  0.59317547556E+00  0.13692146889E+01  0.93800000000E+00 0.  1.
         22    1    1    2    0    0 -0.26574885568E+00  0.34344825559E+00  0.21064648900E+01  0.21507611423E+01  0.00000000000E+00 0.  1.
</event>
<event>
 5    1  0.3269840E+002  0.1599147E+01  0.7818608E-02  0.3354290E+00
         11   -1    0    0    0    0  0.00000000000E+00  0.00000000000E+00  0.39999999674E+01  0.40000000000E+01  0.51100000000E-03 0. -1.
    9000002   -1    0    0    0    0 -0.00000000000E+00 -0.00000000000E+00  0.00000000000E+00  0.93800000000E+00  0.93800000000E+00 0. -1.
         11    1    1    2    0    0  0.25024176522E-01  0.19701015803E-01  0.31218491785E+00  0.31380570977E+00  0.51100000000E-03 0. -1.
    9000002    1    1    2    0    0 -0.21419255125E+00 -0.90987166456E-01  0.36332371621E-01  0.96712003117E+00  0.93800000000E+00 0. -1.
         22    1    1    2    0    0  0.18916837473E+00  0.71286150653E-01  0.36514826779E+01  0.36570742591E+01  0.00000000000E+00 0. -1.
</event>
<event>
 5    1  0.3269840E+002  0.1599669E+01  0.7818608E-02  0.3353723E+00
         11   -1    0    0    0    0  0.00000000000E+00  0.00000000000E+00  0.39999999674E+01  0.40000000000E+01  0.51100000000E-03 0.  1.
    9000002   -1    0    0    0    0 -0.00000000000E+00 -0.00000000000E+00  0.00000000000E+00  0.93800000000E+00  0.93800000000E+00 0. -1.
         11    1    1    2    0    0 -0.69362791552E-02  0.26780892922E-01  0.42257008325E+00  0.42347498696E+00  0.51100000000E-03 0.  1.
    9000002    1    1    2    0    0  0.52927889635E-01 -0.23615352492E+00  0.38889967973E-01  0.96949795175E+00  0.93800000000E+00 0. -1.
         22    1    1    2    0    0 -0.45991610480E-01  0.20937263200E+00  0.35385399161E+01  0.35450270613E+01  0.00000000000E+00 0.  1.
</event>
<event>
 5    1  0.3269840E+002  0.1599639E+01  0.7818608E-02  0.3353756E+00
         11   -1    0    0    0    0  0.00000000000E+00  0.00000000000E+00  0.39999999674E+01  0.40000000000E+01  0.51100000000E-03 0.  1.
    9000002   -1    0    0    0    0 -0.00000000000E+00 -0.00000000000E+00  0.00000000000E+00  0.93800000000E+00  0.93800000000E+00 0.  1.
         11    1    1    2    0    0 -0.12192648544E-01  0.60321912598E-01  0.85727152122E+00  0.85947781591E+00  0.51100000000E-03 0.  1.
    9000002    1    1    2    0    0  0.40256235897E-01 -0.30056787872E+00  0.61397386964E-01  0.98771213082E+00  0.93800000000E+00 0.  1.
         22    1    1    2    0    0 -0.28063587353E-01  0.24024596612E+00  0.30813310592E+01  0.30908100533E+01  0.00000000000E+00 0. -1.
</event>
<event>
 5    1  0.3269840E+002  0.1463522E+01  0.7818608E-02  0.3516262E+00
         11   -1    0    0    0    0  0.00000000000E+00  0.00000000000E+00  0.39999999674E+01  0.40000000000E+01  0.51100000000E-03 0. -1.
    9000002   -1    0    0    0    0 -0.00000000000E+00 -0.00000000000E+00  0.00000000000E+00  0.93800000000E+00  0.93800000000E+00 0. -1.
         11    1    1    2    0    0 -0.21662321075E+00  0.26452484492E+00  0.65294393160E+00  0.73704480729E+00  0.51100000000E-03 0. -1.
    9000002    1    1    2    0    0  0.52478882132E-01  0.29015150673E+00  0.20282145288E+00  0.10039534211E+01  0.93800000000E+00 0. -1.
         22    1    1    2    0    0  0.16414432862E+00 -0.55467635166E+00  0.31442345829E+01  0.31970017716E+01  0.00000000000E+00 0. -1.
</event>
<event>
 5    1  0.3269840E+002  0.1599677E+01  0.7818608E-02  0.3353714E+00
         11   -1    0    0    0    0  0.00000000000E+00  0.00000000000E+00  0.39999999674E+01  0.40000000000E+01  0.51100000000E-03 0. -1.
    9000002   -1    0    0    0    0 -0.00000000000E+00 -0.00000000000E+00  0.00000000000E+00  0.93800000000E+00  0.93800000000E+00 0.  1.
         11    1    1    2    0    0  0.24223578777E+00  0.55070587474E-01  0.18029266830E+01  0.18199603929E+01  0.51100000000E-03 0. -1.
    9000002    1    1    2    0    0 -0.51179775878E+00 -0.11748044691E+00  0.18958161930E+00  0.10915694168E+01  0.93800000000E+00 0.  1.
         22    1    1    2    0    0  0.26956197100E+00  0.62409859436E-01  0.20074916651E+01  0.20264701903E+01  0.00000000000E+00 0. -1.
</event>
<event>
 5    1  0.3269840E+002  0.1599675E+01  0.7818608E-02  0.3353716E+00
         11   -1    0    0    0    0  0.00000000000E+00  0.00000000000E+00  0.39999999674E+01  0.40000000000E+01  0.51100000000E-03 0.  1.
    9000002   -1    0    0    0    0 -0.00000000000E+00 -0.00000000000E+00  0.00000000000E+00  0.93800000000E+00  0.93800000000E+00 0. -1.
         11    1    1    2    0    0  0.15276394891E-01 -0.80029900508E-02  0.30717146701E+00  0.30765563112E+00  0.51100000000E-03 0. -1.
    9000002    1    1    2    0    0 -0.20209944842E+00  0.11246155140E+00  0.35486716417E-01  0.96674458604E+00  0.93800000000E+00 0. -1.
         22    1    1    2    0    0  0.18682305353E+00 -0.10445856134E+00  0.36573417839E+01  0.36635997828E+01  0.00000000000E+00 0.  1.
</event>
<event>
 5    1  0.5474396E+002  0.1585311E+01  0.7818608E-02  0.3369462E+00
         11   -1    0    0    0    0  0.00000000000E+00  0.00000000000E+00  0.39999999674E+01  0.40000000000E+01  0.51100000000E-03 0.  1.
    9000002   -1    0    0    0    0 -0.00000000000E+00 -0.00000000000E+00  0.00000000000E+00  0.93800000000E+00  0.93800000000E+00 0.  1.
         11    1    1    2    0    0 -0.69327643901E-02 -0.54641109443E-01  0.19260783066E+00  0.20032910825E+00  0.51100000000E-03 0.  1.
    9000002    1    1    2    0    0 -0.18939131118E-01 -0.14860288848E+00  0.25496188620E-01  0.95022921697E+00  0.93800000000E+00 0.  1.
         22    1    1    2    0    0  0.25871895508E-01  0.20324399793E+00  0.37818959481E+01  0.37874416748E+01  0.00000000000E+00 0.  1.
</event>
<event>
 5    1  0.3269840E+002  0.1599663E+01  0.7818608E-02  0.3353729E+00
         11   -1    0    0    0    0  0.00000000000E+00  0.00000000000E+00  0.39999999674E+01  0.40000000000E+01  0.51100000000E-03 0.  1.
    9000002   -1    0    0    0    0 -0.00000000000E+00 -0.00000000000E+00  0.00000000000E+00  0.93800000000E+00  0.93800000000E+00 0.  1.
         11    1    1    2    0    0 -0.68823189484E-01 -0.45223235760E+00  0.19502478904E+01  0.20031769347E+01  0.51100000000E-03 0.  1.
    9000002    1    1    2    0    0  0.12557969665E+00  0.81747856870E+00  0.50869609976E+00  0.13500582182E+01  0.93800000000E+00 0.  1.
         22    1    1    2    0    0 -0.56756507169E-01 -0.36524621109E+00  0.15410559772E+01  0.15847648472E+01  0.00000000000E+00 0.  1.
</event>
<event>
 5    1  0.3269840E+002  0.1599220E+01  0.7818608E-02  0.3354211E+00
         11   -1    0    0    0    0  0.00000000000E+00  0.00000000000E+00  0.39999999674E+01  0.40000000000E+01  0.51100000000E-03 0.  1.
    9000002   -1    0    0    0    0 -0.00000000000E+00 -0.00000000000E+00  0.00000000000E+00  0.93800000000E+00  0.93800000000E+00 0.  1.
         11    1    1    2    0    0  0.37834262347E-03  0.22954961507E-02  0.86026985281E-02  0.89263648079E-02  0.51100000000E-03 0.  1.
    9000002    1    1    2    0    0 -0.19885175475E+00  0.28452819337E-01  0.27057653021E-01  0.95964977981E+00  0.93800000000E+00 0.  1.
         22    1    1    2    0    0  0.19847341212E+00 -0.30748315488E-01  0.39643396158E+01  0.39694238554E+01  0.00000000000E+00 0.  1.
</event>
<event>
 5    1  0.3269840E+002  0.1518428E+01  0.7818608E-02  0.3446953E+00
         11   -1    0    0    0    0  0.00000000000E+00  0.00000000000E+00  0.39999999674E+01  0.40000000000E+01  0.51100000000E-03 0.  1.
    9000002   -1    0    0    0    0 -0.00000000000E+00 -0.00000000000E+00  0.00000000000E+00  0.93800000000E+00  0.93800000000E+00 0.  1.
         11    1    1    2    0    0  0.24862410341E+00  0.20387327757E+00  0.13135420100E+01  0.13523206466E+01  0.51100000000E-03 0.  1.
    9000002    1    1    2    0    0 -0.18468485059E+00  0.18414197056E+00  0.11044823461E+00  0.97982629679E+00  0.93800000000E+00 0.  1.
         22    1    1    2    0    0 -0.63939252814E-01 -0.38801524814E+00  0.25760097227E+01  0.26058530566E+01  0.00000000000E+00 0.  1.
</event>
<event>
 5    1  0.3269840E+002  0.1599666E+01  0.7818608E-02  0.3353726E+00
         11   -1    0    0    0    0  0.00000000000E+00  0.00000000000E+00  0.39999999674E+01  0.40000000000E+01  0.51100000000E-03 0. -1.
    9000002   -1    0    0    0    0 -0.00000000000E+00 -0.00000000000E+00  0.00000000000E+00  0.93800000000E+00  0.93800000000E+00 0. -1.
         11    1    1    2    0    0 -0.35662566973E-02  0.11234295326E+00  0.11338416010E+01  0.11393992692E+01  0.51100000000E-03 0. -1.
    9000002    1    1    2    0    0  0.72266170509E-02 -0.37560005999E+00  0.94915765693E-01  0.10148796144E+01  0.93800000000E+00 0. -1.
         22    1    1    2    0    0 -0.36603603536E-02  0.26325710673E+00  0.27712426007E+01  0.27837211165E+01  0.00000000000E+00 0. -1.
</event>
<event>
 5    1  0.3269840E+002  0.1599113E+01  0.7818608E-02  0.3354327E+00
         11   -1    0    0    0    0  0.00000000000E+00  0.00000000000E+00  0.39999999674E+01  0.40000000000E+01  0.51100000000E-03 0.  1.
    9000002   -1    0    0    0    0 -0.00000000000E+00 -0.00000000000E+00  0.00000000000E+00  0.93800000000E+00  0.93800000000E+00 0.  1.
         11    1    1    2    0    0  0.14332203585E+00  0.34775860894E+00  0.14231775161E+01  0.14720433960E+01  0.51100000000E-03 0.  1.
    9000002    1    1    2    0    0 -0.30863324117E+00 -0.78821341552E+00  0.53747332707E+00  0.13730464097E+01  0.93800000000E+00 0.  1.
         22    1    1    2    0    0  0.16531120531E+00  0.44045480658E+00  0.20393491241E+01  0.20929101943E+01  0.00000000000E+00 0.  1.
</event>
<event>
 5    1  0.3269840E+002  0.1599675E+01  0.7818608E-02  0.3353716E+00
         11   -1    0    0    0    0  0.00000000000E+00  0.00000000000E+00  0.39999999674E+01  0.40000000000E+01  0.51100000000E-03 0.  1.
    9000002   -1    0    0    0    0 -0.00000000000E+00 -0.00000000000E+00  0.00000000000E+00  0.93800000000E+00  0.93800000000E+00 0. -1.
         11    1    1    2    0    0 -0.55108045518E-02 -0.20549584795E-02  0.10362423519E+00  0.10379226879E+00  0.51100000000E-03 0. -1.
    9000002    1    1    2    0    0  0.20419478126E+00  0.88552054986E-01  0.32843567526E-01  0.96460337707E+00  0.93800000000E+00 0. -1.
         22    1    1    2    0    0 -0.19868397670E+00 -0.86497096507E-01  0.38635321646E+01  0.38696043541E+01  0.00000000000E+00 0.  1.
</event>
<event>
 5    1  0.3269840E+002  0.1599642E+01  0.7818608E-02  0.3353752E+00
         11   -1    0    0    0    0  0.00000000000E+00  0.00000000000E+00  0.39999999674E+01  0.40000000000E+01  0.51100000000E-03 0.  1.
    9000002   -1    0    0    0    0 -0.00000000000E+00 -0.00000000000E+00  0.00000000000E+00  0.93800000000E+00  0.93800000000E+00 0. -1.
         11    1    1    2    0    0  0.89226607884E-01  0.50830885674E-03  0.10565799140E+01  0.10603409931E+01  0.51100000000E-03 0.  1.
    9000002    1    1    2    0    0 -0.30936688961E+00  0.29959430140E-02  0.63938081952E-01  0.98977215883E+00  0.93800000000E+00 0. -1.
         22    1    1    2    0    0  0.22014028173E+00 -0.35042518708E-02  0.28794819715E+01  0.28878868481E+01  0.00000000000E+00 0.  1.
</event>
<event>
 5    1  0.3269840E+002  0.1599674E+01  0.7818608E-02  0.3353717E+00
         11   -1    0    0    0    0  0.00000000000E+00  0.00000000000E+00  0.39999999674E+01  0.40000000000E+01  0.51100000000E-03 0.  1.
    9000002   -1    0    0    0    0 -0.00000000000E+00 -0.00000000000E+00  0.00000000000E+00  0.93800000000E+00  0.93800000000E+00 0. -1.
         11    1    1    2    0    0  0.31297939556E+00 -0.14982893237E-01  0.22162199071E+01  0.22382608263E+01  0.51100000000E-03 0.  1.
    9000002    1    1    2    0    0 -0.53547773108E+00  0.28937525369E-01  0.19812122157E+00  0.10984852294E+01  0.93800000000E+00 0. -1.
         22    1    1    2    0    0  0.22249833552E+00 -0.13954632132E-01  0.15856588387E+01  0.16012539442E+01  0.00000000000E+00 0.  1.
</event>
<event>
 5    1  0.3269840E+002  0.1583851E+01  0.7818608E-02  0.3371079E+00
         11   -1    0    0    0    0  0.00000000000E+00  0.00000000000E+00  0.39999999674E+01  0.40000000000E+01  0.51100000000E-03 0.  1.
    9000002   -1    0    0    0    0 -0.00000000000E+00 -0.00000000000E+00  0.00000000000E+00  0.93800000000E+00  0.93800000000E+00 0.  1.
         11    1    1    2    0    0 -0.27151024074E+00 -0.10343068884E+00  0.19304875474E+01  0.19522290209E+01  0.51100000000E-03 0.  1.
    9000002    1    1    2    0    0  0.27139105960E+00  0.34088205604E+00  0.14232308311E+00  0.10440084020E+01  0.93800000000E+00 0.  1.
         22    1    1    2    0    0  0.11918113839E-03 -0.23745136720E+00  0.19271893368E+01  0.19417625771E+01  0.00000000000E+00 0. -1.
</event>
<event>
 5    1  0.3269840E+002  0.1599676E+01  0.7818608E-02  0.3353715E+00
         11   -1    0    0    0    0  0.00000000000E+00  0.00000000000E+00  0.39999999674E+01  0.40000000000E+01  0.51100000000E-03 0.  1.
    9000002   -1    0    0    0    0 -0.00000000000E+00 -0.00000000000E+00  0.00000000000E+00  0.93800000000E+00  0.93800000000E+00 0.  1.
         11    1    1    2    0    0  0.10002007012E+00 -0.99631523799E-01  0.14606871508E+01  0.14674936690E+01  0.51100000000E-03 0.  1.
    9000002    1    1    2    0    0 -0.26465182345E+00  0.26690170656E+00  0.95010357236E-01  0.10149621060E+01  0.93800000000E+00 0.  1.
         22    1    1    2    0    0  0.16463175333E+00 -0.16727018276E+00  0.24443024594E+01  0.24555442250E+01  0.00000000000E+00 0.  1.
</event>
<event>
 5    1  0.3269840E+002  0.1599112E+01  0.7818608E-02  0.3354327E+00
         11   -1    0    0    0    0  0.00000000000E+00  0.00000000000E+00  0.39999999674E+01  0.40000000000E+01  0.51100000000E-03 0.  1.
    9000002   -1    0    0    0    0 -0.00000000000E+00 -0.00000000000E+00  0.00000000000E+00  0.93800000000E+00  0.93800000000E+00 0.  1.
         11    1    1    2    0    0 -0.29041039297E-01  0.27298151759E-01  0.77781767271E+00  0.77883834276E+00  0.51100000000E-03 0.  1.
    9000002    1    1    2    0    0  0.24066750942E+00 -0.70034444487E-01  0.42168191457E-01  0.97182705760E+00  0.93800000000E+00 0.  1.
         22    1    1    2    0    0 -0.21162647012E+00  0.42736292727E-01  0.31800141032E+01  0.31873345996E+01  0.00000000000E+00 0.  1.
</event>
<event>
 5    1  0.3269840E+002  0.1599667E+01  0.7818608E-02  0.3353725E+00
         11   -1    0    0    0    0  0.00000000000E+00  0.00000000000E+00  0.39999999674E+01  0.40000000000E+01  0.51100000000E-03 0.  1.
    9000002   -1    0    0    0    0 -0.00000000000E+00 -0.00000000000E+00  0.00000000000E+00  0.93800000000E+00  0.93800000000E+00 0. -1.
         11    1    1    2    0    0 -0.36274198741E-01 -0.21314074491E+00  0.18486549058E+01  0.18612549574E+01  0.51100000000E-03 0.  1.
    9000002    1    1    2    0    0  0.71723646112E-01  0.45180030111E+00  0.14229825697E+00  0.10532618798E+01  0.93800000000E+00 0. -1.
         22    1    1    2    0    0 -0.35449447371E-01 -0.23865955619E+00  0.20090468046E+01  0.20234831628E+01  0.00000000000E+00 0. -1.
</event>
<event>
 5    1  0.3269840E+002  0.1599655E+01  0.7818608E-02  0.3353738E+00
         11   -1    0    0    0    0  0.00000000000E+00  0.00000000000E+00  0.39999999674E+01  0.40000000000E+01  0.51100000000E-03 0. -1.
    9000002   -1    0    0    0    0 -0.00000000000E+00 -0.00000000000E+00  0.00000000000E+00  0.93800000000E+00  0.93800000000E+00 0. -1.
         11    1    1    2    0    0  0.77903078935E-02 -0.75244011807E-01  0.95757524164E+00  0.96055866804E+00  0.51100000000E-03 0. -1.
    9000002    1    1    2    0    0 -0.50986361730E-01  0.31494293531E+00  0.68046559208E-01  0.99310774632E+00  0.93800000000E+00 0. -1.
         22    1    1    2    0    0  0.43196053836E-01 -0.23969892350E+00  0.29743781665E+01  0.29843335856E+01  0.00000000000E+00 0. -1.
</event>
<event>
 5    1  0.3269840E+002  0.1599505E+01  0.7818608E-02  0.3353900E+00
         11   -1    0    0    0    0  0.00000000000E+00  0.00000000000E+00  0.39999999674E+01  0.40000000000E+01  0.51100000000E-03 0.  1.
    9000002   -1    0    0    0    0 -0.00000000000E+00 -0.00000000000E+00  0.00000000000E+00  0.93800000000E+00  0.93800000000E+00 0.  1.
         11    1    1    2    0    0 -0.29052021177E+00  0.89492946341E-01  0.21057979467E+01  0.21276269021E+01  0.51100000000E-03 0.  1.
    9000002    1    1    2    0    0  0.49806683785E+00 -0.15576523265E+00  0.18728946184E+00  0.10896121903E+01  0.93800000000E+00 0.  1.
         22    1    1    2    0    0 -0.20754662608E+00  0.66272286314E-01  0.17069125588E+01  0.17207609077E+01  0.00000000000E+00 0. -1.
</event>
<event>
 5    1  0.3269840E+002  0.1599677E+01  0.7818608E-02  0.3353714E+00
         11   -1    0    0    0    0  0.00000000000E+00  0.00000000000E+00  0.39999999674E+01  0.40000000000E+01  0.51100000000E-03 0.  1.
    9000002   -1    0    0    0    0 -0.00000000000E+00 -0.00000000000E+00  0.00000000000E+00  0.93800000000E+00  0.93800000000E+00 0. -1.
         11    1    1    2    0    0 -0.19766897065E-01  0.13424564717E-01  0.37765070277E+00  0.37840621504E+00  0.51100000000E-03 0. -1.
    9000002    1    1    2    0    0  0.20620951596E+00 -0.13916716813E+00  0.41109300335E-01  0.97130007708E+00  0.93800000000E+00 0. -1.
         22    1    1    2    0    0 -0.18644261889E+00  0.12574260341E+00  0.35812399643E+01  0.35882937079E+01  0.00000000000E+00 0.  1.
</event>
<event>
 5    1  0.3269840E+002  0.1599672E+01  0.7818608E-02  0.3353720E+00
         11   -1    0    0    0    0  0.00000000000E+00  0.00000000000E+00  0.39999999674E+01  0.40000000000E+01  0.51100000000E-03 0. -1.
    9000002   -1    0    0    0    0 -0.00000000000E+00 -0.00000000000E+00  0.00000000000E+00  0.93800000000E+00  0.93800000000E+00 0.  1.
         11    1    1    2    0    0 -0.39479707857E-01  0.71465561278E-02  0.40155132288E+00  0.40355104587E+00  0.51100000000E-03 0. -1.
    9000002    1    1    2    0    0  0.39839292663E+00 -0.69453221412E-01  0.11037864974E+00  0.10274084486E+01  0.93800000000E+00 0.  1.
         22    1    1    2    0    0 -0.35891321877E+00  0.62306665284E-01  0.34880699947E+01  0.35070405055E+01  0.00000000000E+00 0. -1.
</event>
<event>
 5    1  0.3269840E+002  0.1599676E+01  0.7818608E-02  0.3353715E+00
         11   -1    0    0    0    0  0.00000000000E+00  0.00000000000E+00  0.39999999674E+01  0.40000000000E+01  0.51100000000E-03 0.  1.
    9000002   -1    0    0    0    0 -0.00000000000E+00 -0.00000000000E+00  0.00000000000E+00  0.93800000000E+00  0.93800000000E+00 0. -1.
         11    1    1    2    0    0  0.20223400337E-01  0.45758429365E-02  0.32565807265E+00  0.32631789050E+00  0.51100000000E-03 0.  1.
    9000002    1    1    2    0    0 -0.24707354667E+00 -0.48117009222E-01  0.42096369473E-01  0.97209911447E+00  0.93800000000E+00 0. -1.
         22    1    1    2    0    0  0.22685014633E+00  0.43541166286E-01  0.36322455252E+01  0.36395829950E+01  0.00000000000E+00 0.  1.
</event>
<event>
 5    1  0.3269840E+002  0.1599676E+01  0.7818608E-02  0.3353716E+00
         11   -1    0    0    0    0  0.00000000000E+00  0.00000000000E+00  0.39999999674E+01  0.40000000000E+01  0.51100000000E-03 0. -1.
    9000002   -1    0    0    0    0 -0.00000000000E+00 -0.00000000000E+00  0.00000000000E+00  0.93800000000E+00  0.93800000000E+00 0.  1.
         11    1    1    2    0    0 -0.29671873281E-01  0.33146964360E-01  0.49428692777E+00  0.49628516943E+00  0.51100000000E-03 0. -1.
    9000002    1    1    2    0    0  0.23275449723E+00 -0.25626921507E+00  0.80327341099E-01  0.10030678184E+01  0.93800000000E+00 0.  1.
         22    1    1    2    0    0 -0.20308262395E+00  0.22312225071E+00  0.34253856985E+01  0.34386470122E+01  0.00000000000E+00 0. -1.
</event>
<event>
 5    1  0.3269840E+002  0.1599421E+01  0.7818608E-02  0.3353992E+00
         11   -1    0    0    0    0  0.00000000000E+00  0.00000000000E+00  0.39999999674E+01  0.40000000000E+01  0.51100000000E-03 0. -1.
    9000002   -1    0    0    0    0 -0.00000000000E+00 -0.00000000000E+00  0.00000000000E+00  0.93800000000E+00  0.93800000000E+00 0. -1.
         11    1    1    2    0    0  0.10395356493E-01 -0.95032877021E-02  0.13909032490E+00  0.13980255904E+00  0.51100000000E-03 0. -1.
    9000002    1    1    2    0    0 -0.39503627072E+00  0.95793402122E-01  0.11175851825E+00  0.10283793062E+01  0.93800000000E+00 0. -1.
         22    1    1    2    0    0  0.38464091423E+00 -0.86290114420E-01  0.37491511242E+01  0.37698181347E+01  0.00000000000E+00 0. -1.
</event>
<event>
 5    1  0.3269840E+002  0.1599677E+01  0.7818608E-02  0.3353714E+00
         11   -1    0    0    0    0  0.00000000000E+00  0.00000000000E+00  0.39999999674E+01  0.40000000000E+01  0.51100000000E-03 0.  1.
    9000002   -1    0    0    0    0 -0.00000000000E+00 -0.00000000000E+00  0.00000000000E+00  0.93800000000E+00  0.93800000000E+00 0.  1.
         11    1    1    2    0    0 -0.57297703288E-01  0.43808703474E+00  0.14986306111E+01  0.15624011157E+01  0.51100000000E-03 0.  1.
    9000002    1    1    2    0    0  0.12529564844E+00 -0.95493000907E+00  0.73145166264E+00  0.15305083654E+01  0.93800000000E+00 0.  1.
         22    1    1    2    0    0 -0.67997945150E-01  0.51684297433E+00  0.17699176936E+01  0.18450905189E+01  0.00000000000E+00 0.  1.
</event>
<event>
 5    1  0.3269840E+002  0.1599669E+01  0.7818608E-02  0.3353723E+00
         11   -1    0    0    0    0  0.00000000000E+00  0.00000000000E+00  0.39999999674E+01  0.40000000000E+01  0.51100000000E-03 0.  1.
    9000002   -1    0    0    0    0 -0.00000000000E+00 -0.00000000000E+00  0.00000000000E+00  0.93800000000E+00  0.93800000000E+00 0.  1.
         11    1    1    2    0    0  0.14976473649E+00  0.76942088394E-01  0.16227513944E+01  0.16314631195E+01  0.51100000000E-03 0.  1.
    9000002    1    1    2    0    0 -0.36535522314E+00 -0.17967533939E+00  0.11192390923E+00  0.10286586548E+01  0.93800000000E+00 0.  1.
         22    1    1    2    0    0  0.21559048665E+00  0.10273325100E+00  0.22653246637E+01  0.22778782256E+01  0.00000000000E+00 0. -1.
</event>
<event>
 5    1  0.3269840E+002  0.1594025E+01  0.7818608E-02  0.3359874E+00
         11   -1    0    0    0    0  0.00000000000E+00  0.00000000000E+00  0.39999999674E+01  0.40000000000E+01  0.51100000000E-03 0. -1.
    9000002   -1    0    0    0    0 -0.00000000000E+00 -0.00000000000E+00  0.00000000000E+00  0.93800000000E+00  0.93800000000E+00 0. -1.
         11    1    1    2    0    0 -0.48156219552E-01 -0.46843381169E-01  0.12076669571E+01  0.12095342344E+01  0.51100000000E-03 0. -1.
    9000002    1    1    2    0    0  0.41462896232E+00  0.21242934799E+00  0.15272604331E+00  0.10584009867E+01  0.93800000000E+00 0. -1.
         22    1    1    2    0    0 -0.36647274277E+00 -0.16558596683E+00  0.26396069669E+01  0.26700647789E+01  0.00000000000E+00 0. -1.
</event>
<event>
 5    1  0.3269840E+002  0.1599669E+01  0.7818608E-02  0.3353723E+00
         11   -1    0    0    0    0  0.00000000000E+00  0.00000000000E+00  0.39999999674E+01  0.40000000000E+01  0.51100000000E-03 0.  1.
    9000002   -1    0    0    0    0 -0.00000000000E+00 -0.00000000000E+00  0.00000000000E+00  0.93800000000E+00  0.93800000000E+00 0.  1.
         11    1    1    2    0    0 -0.11098734748E+00  0.50936751716E-01  0.14290484556E+01  0.14342567739E+01  0.51100000000E-03 0.  1.
    9000002    1    1    2    0    0  0.31368915731E+00 -0.13990464301E+00  0.79053230184E-01  0.10020317409E+01  0.93800000000E+00 0.  1.
         22    1    1    2    0    0 -0.20270180982E+00  0.88967891290E-01  0.24918982816E+01  0.25017114852E+01  0.00000000000E+00 0.  1.
</event>
<event>
 5    1  0.3269840E+002  0.1599202E+01  0.7818608E-02  0.3354230E+00
         11   -1    0    0    0    0  0.00000000000E+00  0.00000000000E+00  0.39999999674E+01  0.40000000000E+01  0.51100000000E-03 0.  1.
    9000002   -1    0    0    0    0 -0.00000000000E+00 -0.00000000000E+00  0.00000000000E+00  0.93800000000E+00  0.93800000000E+00 0. -1.
         11    1    1    2    0    0 -0.55175445593E-01 -0.18845739725E-01  0.88336342375E+00  0.88528565516E+00  0.51100000000E-03 0.  1.
    9000002    1    1    2    0    0  0.27056341797E+00 -0.10544490917E-01  0.49150679712E-01  0.97753544117E+00  0.93800000000E+00 0. -1.
         22    1    1    2    0    0 -0.21538797238E+00  0.29390230642E-01  0.30674858639E+01  0.30751789037E+01  0.00000000000E+00 0.  1.
</event>
<event>
 5    1  0.3269840E+002  0.1598173E+01  0.7818608E-02  0.3355349E+00
         11   -1    0    0    0    0  0.00000000000E+00  0.00000000000E+00  0.39999999674E+01  0.40000000000E+01  0.51100000000E-03 0.  1.
    9000002   -1    0    0    0    0 -0.00000000000E+00 -0.00000000000E+00  0.00000000000E+00  0.93800000000E+00  0.93800000000E+00 0. -1.
         11    1    1    2    0    0 -0.32217751912E-01  0.46372829727E-02  0.96154564862E+00  0.96209655619E+00  0.51100000000E-03 0.  1.
    9000002    1    1    2    0    0  0.14392107369E+00 -0.18371092477E+00  0.37277072190E-01  0.96731409555E+00  0.93800000000E+00 0. -1.
         22    1    1    2    0    0 -0.11170332178E+00  0.17907364179E+00  0.30011772466E+01  0.30085893483E+01  0.00000000000E+00 0.  1.
</event>
<event>
 5    1  0.3269840E+002  0.1589359E+01  0.7818608E-02  0.3364994E+00
         11   -1    0    0    0    0  0.00000000000E+00  0.00000000000E+00  0.39999999674E+01  0.40000000000E+01  0.51100000000E-03 0. -1.
    9000002   -1    0    0    0    0 -0.00000000000E+00 -0.00000000000E+00  0.00000000000E+00  0.93800000000E+00  0.93800000000E+00 0.  1.
         11    1    1    2    0    0  0.67488131810E-01  0.17252929727E+00  0.18969959351E+01  0.19060206833E+01  0.51100000000E-03 0. -1.
    9000002    1    1    2    0    0 -0.28509969690E+00 -0.15030654401E+00  0.77664609306E-01  0.99486164158E+00  0.93800000000E+00 0.  1.
         22    1    1    2    0    0  0.21761156509E+00 -0.22222753258E-01  0.20253394230E+01  0.20371176751E+01  0.00000000000E+00 0. -1.
</event>
<event>
 5    1  0.3269840E+002  0.1598868E+01  0.7818608E-02  0.3354593E+00
         11   -1    0    0    0    0  0.00000000000E+00  0.00000000000E+00  0.39999999674E+01  0.40000000000E+01  0.51100000000E-03 0. -1.
    9000002   -1    0    0    0    0 -0.00000000000E+00 -0.00000000000E+00  0.00000000000E+00  0.93800000000E+00  0.93800000000E+00 0. -1.
         11    1    1    2    0    0  0.65738478188E-02 -0.27240152655E-01  0.64703395515E+00  0.64764067324E+00  0.51100000000E-03 0. -1.
    9000002    1    1    2    0    0 -0.19491305916E+00  0.15873935483E+00  0.42599502069E-01  0.97203292176E+00  0.93800000000E+00 0. -1.
         22    1    1    2    0    0  0.18833921134E+00 -0.13149920218E+00  0.33103665101E+01  0.33183264050E+01  0.00000000000E+00 0. -1.
</event>
<event>
 5    1  0.3269840E+002  0.1599032E+01  0.7818608E-02  0.3354414E+00
         11   -1    0    0    0    0  0.00000000000E+00  0.00000000000E+00  0.39999999674E+01  0.40000000000E+01  0.51100000000E-03 0. -1.
    9000002   -1    0    0    0    0 -0.00000000000E+00 -0.00000000000E+00  0.00000000000E+00  0.93800000000E+00  0.93800000000E+00 0.  1.
         11    1    1    2    0    0 -0.26260923832E-01  0.39944612630E-02  0.15407008192E+00  0.15634398967E+00  0.51100000000E-03 0. -1.
    9000002    1    1    2    0    0  0.38523571436E+00 -0.22661116643E+00  0.13616804639E+00  0.10479240971E+01  0.93800000000E+00 0.  1.
         22    1    1    2    0    0 -0.35897479052E+00  0.22261670517E+00  0.37097618390E+01  0.37337319133E+01  0.00000000000E+00 0. -1.
</event>
<event>
 5    1  0.3269840E+002  0.1590357E+01  0.7818608E-02  0.3363897E+00
         11   -1    0    0    0    0  0.00000000000E+00  0.00000000000E+00  0.39999999674E+01  0.40000000000E+01  0.51100000000E-03 0.  1.
    9000002   -1    0    0    0    0 -0.00000000000E+00 -0.00000000000E+00  0.00000000000E+00  0.93800000000E+00  0.93800000000E+00 0.  1.
         11    1    1    2    0    0 -0.93462644889E-01 -0.17064806651E+00  0.83282450533E+00  0.85525022443E+00  0.51100000000E-03 0.  1.
    9000002    1    1    2    0    0  0.23611472967E+00  0.38672126172E+00  0.14761723916E+00  0.10521113768E+01  0.93800000000E+00 0.  1.
         22    1    1    2    0    0 -0.14265208478E+00 -0.21607319521E+00  0.30195582229E+01  0.30306383988E+01  0.00000000000E+00 0.  1.
</event>
<event>
 5    1  0.3269840E+002  0.1478184E+01  0.7818608E-02  0.3497209E+00
         11   -1    0    0    0    0  0.00000000000E+00  0.00000000000E+00  0.39999999674E+01  0.40000000000E+01  0.51100000000E-03 0. -1.
    9000002   -1    0    0    0    0 -0.00000000000E+00 -0.00000000000E+00  0.00000000000E+00  0.93800000000E+00  0.93800000000E+00 0. -1.
         11    1    1    2    0    0  0.11827021017E+00 -0.63681092704E-01  0.33611374677E+01  0.33638205157E+01  0.51100000000E-03 0. -1.
    9000002    1    1    2    0    0 -0.19846137494E+00 -0.24988968101E+00  0.17125884357E+00  0.10054876238E+01  0.93800000000E+00 0. -1.
         22    1    1    2    0    0  0.80191164769E-01  0.31357077371E+00  0.46760365613E+00  0.56869186055E+00  0.00000000000E+00 0.  1.
</event>
<event>
 5    1  0.3269840E+002  0.1599677E+01  0.7818608E-02  0.3353714E+00
         11   -1    0    0    0    0  0.00000000000E+00  0.00000000000E+00  0.39999999674E+01  0.40000000000E+01  0.51100000000E-03 0.  1.
    9000002   -1    0    0    0    0 -0.00000000000E+00 -0.00000000000E+00  0.00000000000E+00  0.93800000000E+00  0.93800000000E+00 0. -1.
         11    1    1    2    0    0 -0.47289140027E-01 -0.87845842536E-01  0.10100346254E+01  0.10149499300E+01  0.51100000000E-03 0. -1.
    9000002    1    1    2    0    0  0.18204802039E+00  0.33768342618E+00  0.99066881609E-01  0.10182484103E+01  0.93800000000E+00 0. -1.
         22    1    1    2    0    0 -0.13475888036E+00 -0.24983758365E+00  0.28908984603E+01  0.29048016597E+01  0.00000000000E+00 0.  1.
</event>
<event>
 5    1  0.3269840E+002  0.1599618E+01  0.7818608E-02  0.3353778E+00
         11   -1    0    0    0    0  0.00000000000E+00  0.00000000000E+00  0.39999999674E+01  0.40000000000E+01  0.51100000000E-03 0. -1.
    9000002   -1    0    0    0    0 -0.00000000000E+00 -0.00000000000E+00  0.00000000000E+00  0.93800000000E+00  0.93800000000E+00 0. -1.
         11    1    1    2    0    0  0.17290157978E+00 -0.19649208930E+00  0.21167677427E+01  0.21328877221E+01  0.51100000000E-03 0. -1.
    9000002    1    1    2    0    0 -0.29915948051E+00  0.35170708756E+00  0.14510440770E+00  0.10555063047E+01  0.93800000000E+00 0. -1.
         22    1    1    2    0    0  0.12625790073E+00 -0.15521499827E+00  0.17381278170E+01  0.17496059731E+01  0.00000000000E+00 0.  1.
</event>
<event>
 5    1  0.3269840E+002  0.1599673E+01  0.7818608E-02  0.3353718E+00
         11   -1    0    0    0    0  0.00000000000E+00  0.00000000000E+00  0.39999999674E+01  0.40000000000E+01  0.51100000000E-03 0. -1.
    9000002   -1    0    0    0    0 -0.00000000000E+00 -0.00000000000E+00  0.00000000000E+00  0.93800000000E+00  0.93800000000E+00 0. -1.
         11    1    1    2    0    0  0.90990644156E-01  0.76687839507E-01  0.90269629929E+00  0.91050600873E+00  0.51100000000E-03 0. -1.
    9000002    1    1    2    0    0 -0.39383695703E+00 -0.32522945546E+00  0.17891937115E+00  0.10829302327E+01  0.93800000000E+00 0. -1.
         22    1    1    2    0    0  0.30284631288E+00  0.24854161595E+00  0.29183842969E+01  0.29445637586E+01  0.00000000000E+00 0. -1.
</event>
<event>
 5    1  0.3269840E+002  0.1599655E+01  0.7818608E-02  0.3353738E+00
         11   -1    0    0    0    0  0.00000000000E+00  0.00000000000E+00  0.39999999674E+01  0.40000000000E+01  0.51100000000E-03 0. -1.
    9000002   -1    0    0    0    0 -0.00000000000E+00 -0.00000000000E+00  0.00000000000E+00  0.93800000000E+00  0.93800000000E+00 0.  1.
         11    1    1    2    0    0 -0.70626337933E-01 -0.53544668357E-01  0.59709969296E+00  0.60364179409E+00  0.51100000000E-03 0. -1.
    9000002    1    1    2    0    0  0.45254072813E+00  0.31431583580E+00  0.20974812818E+00  0.11078925185E+01  0.93800000000E+00 0.  1.
         22    1    1    2    0    0 -0.38191439020E+00 -0.26077116744E+00  0.31931521462E+01  0.32264656874E+01  0.00000000000E+00 0. -1.
</event>
<event>
 5    1  0.3269840E+002  0.1599672E+01  0.7818608E-02  0.3353720E+00
         11   -1    0    0    0    0  0.00000000000E+00  0.00000000000E+00  0.39999999674E+01  0.40000000000E+01  0.51100000000E-03 0. -1.
    9000002   -1    0    0    0    0 -0.00000000000E+00 -0.00000000000E+00  0.00000000000E+00  0.93800000000E+00  0.93800000000E+00 0.  1.
         11    1    1    2    0    0 -0.17980835811E+00 -0.15528939807E+00  0.19658903547E+01  0.19801946850E+01  0.51100000000E-03 0. -1.
    9000002    1    1    2    0    0  0.34724387647E+00  0.30374335823E+00  0.14480671362E+00  0.10552967932E+01  0.93800000000E+00 0.  1.
         22    1    1    2    0    0 -0.16743551837E+00 -0.14845396016E+00  0.18893028990E+01  0.19025085218E+01  0.00000000000E+00 0. -1.
</event>
<event>
 5    1  0.3269840E+002  0.1599655E+01  0.7818608E-02  0.3353737E+00
         11   -1    0    0    0    0  0.00000000000E+00  0.00000000000E+00  0.39999999674E+01  0.40000000000E+01  0.51100000000E-03 0. -1.
    9000002   -1    0    0    0    0 -0.00000000000E+00 -0.00000000000E+00  0.00000000000E+00  0.93800000000E+00  0.93800000000E+00 0.  1.
         11    1    1    2    0    0  0.33499324266E+00  0.29319990076E+00  0.24552983432E+01  0.24953310141E+01  0.51100000000E-03 0. -1.
    9000002    1    1    2    0    0 -0.49602618718E+00 -0.44413601093E+00  0.31404684273E+00  0.11923792157E+01  0.93800000000E+00 0.  1.
         22    1    1    2    0    0  0.16103294452E+00  0.15093611017E+00  0.12306547814E+01  0.12502897702E+01  0.00000000000E+00 0. -1.
</event>
<event>
 5    1  0.3269840E+002  0.1598923E+01  0.7818608E-02  0.3354533E+00
         11   -1    0    0    0    0  0.00000000000E+00  0.00000000000E+00  0.39999999674E+01  0.40000000000E+01  0.51100000000E-03 0. -1.
    9000002   -1    0    0    0    0 -0.00000000000E+00 -0.00000000000E+00  0.00000000000E+00  0.93800000000E+00  0.93800000000E+00 0. -1.
         11    1    1    2    0    0 -0.32944414864E-02 -0.12350720064E-01  0.45967311622E+00  0.45985109386E+00  0.51100000000E-03 0. -1.
    9000002    1    1    2    0    0  0.20548023431E+00  0.62077479830E-01  0.31099003609E-01  0.96274964982E+00  0.93800000000E+00 0. -1.
         22    1    1    2    0    0 -0.20218579282E+00 -0.49726759766E-01  0.35092278475E+01  0.35153992563E+01  0.00000000000E+00 0. -1.
</event>
<event>
 5    1  0.3269840E+002  0.1599676E+01  0.7818608E-02  0.3353715E+00
         11   -1    0    0    0    0  0.00000000000E+00  0.00000000000E+00  0.39999999674E+01  0.40000000000E+01  0.51100000000E-03 0.  1.
    9000002   -1    0    0    0    0 -0.00000000000E+00 -0.00000000000E+00  0.00000000000E+00  0.93800000000E+00  0.93800000000E+00 0.  1.
         11    1    1    2    0    0  0.52276902515E+00  0.66281661524E+00  0.23086586513E+01  0.24581534428E+01  0.51100000000E-03 0.  1.
    9000002    1    1    2    0    0 -0.67464718936E+00 -0.85658524086E+00  0.10158160817E+01  0.17608558762E+01  0.93800000000E+00 0.  1.
         22    1    1    2    0    0  0.15187816421E+00  0.19376862561E+00  0.67552523437E+00  0.71899068096E+00  0.00000000000E+00 0.  1.
</event>
<event>
 5    1  0.3269840E+002  0.1598972E+01  0.7818608E-02  0.3354480E+00
         11   -1    0    0    0    0  0.00000000000E+00  0.00000000000E+00  0.39999999674E+01  0.40000000000E+01  0.51100000000E-03 0. -1.
    9000002   -1    0    0    0    0 -0.00000000000E+00 -0.00000000000E+00  0.00000000000E+00  0.93800000000E+00  0.93800000000E+00 0.  1.
         11    1    1    2    0    0 -0.52800599780E-01  0.79913852711E-01  0.97401975444E+00  0.97871797284E+00  0.51100000000E-03 0. -1.
    9000002    1    1    2    0    0  0.23168415525E+00 -0.21271475304E+00  0.66642182812E-01  0.99156961152E+00  0.93800000000E+00 0.  1.
         22    1    1    2    0    0 -0.17888355547E+00  0.13280090033E+00  0.29593380301E+01  0.29677124156E+01  0.00000000000E+00 0. -1.
</event>
<event>
 5    1  0.3269840E+002  0.1599349E+01  0.7818608E-02  0.3354070E+00
         11   -1    0    0    0    0  0.00000000000E+00  0.00000000000E+00  0.39999999674E+01  0.40000000000E+01  0.51100000000E-03 0. -1.
    9000002   -1    0    0    0    0 -0.00000000000E+00 -0.00000000000E+00  0.00000000000E+00  0.93800000000E+00  0.93800000000E+00 0. -1.
         11    1    1    2    0    0  0.13329633949E-01 -0.13800889222E+00  0.17167433892E+01  0.17223333762E+01  0.51100000000E-03 0. -1.
    9000002    1    1    2    0    0 -0.12468071588E-01  0.36062532227E+00  0.87676806503E-01  0.10088296676E+01  0.93800000000E+00 0. -1.
         22    1    1    2    0    0 -0.86156236141E-03 -0.22261643005E+00  0.21955797717E+01  0.22068369561E+01  0.00000000000E+00 0. -1.
</event>
<event>
 5    1  0.3269840E+002  0.1599657E+01  0.7818608E-02  0.3353736E+00
         11   -1    0    0    0    0  0.00000000000E+00  0.00000000000E+00  0.39999999674E+01  0.40000000000E+01  0.51100000000E-03 0. -1.
    9000002   -1    0    0    0    0 -0.00000000000E+00 -0.00000000000E+00  0.00000000000E+00  0.93800000000E+00  0.93800000000E+00 0. -1.
         11    1    1    2    0    0  0.18686988224E-01 -0.36108051321E-01  0.63283918047E+00  0.63414405647E+00  0.51100000000E-03 0. -1.
    9000002    1    1    2    0    0 -0.92550928588E-01  0.23018632709E+00  0.40897523769E-01  0.97111689668E+00  0.93800000000E+00 0. -1.
         22    1    1    2    0    0  0.73863940364E-01 -0.19407827577E+00  0.33262632631E+01  0.33327390469E+01  0.00000000000E+00 0. -1.
</event>
<event>
 5    1  0.3459923E+002  0.1576525E+01  0.7818608E-02  0.3379243E+00
         11   -1    0    0    0    0  0.00000000000E+00  0.00000000000E+00  0.39999999674E+01  0.40000000000E+01  0.51100000000E-03 0.  1.
    9000002   -1    0    0    0    0 -0.00000000000E+00 -0.00000000000E+00  0.00000000000E+00  0.93800000000E+00  0.93800000000E+00 0.  1.
         11    1    1    2    0    0 -0.17473352346E+00  0.32776710437E-01  0.15789828916E+01  0.15889598327E+01  0.51100000000E-03 0.  1.
    9000002    1    1    2    0    0 -0.47695561024E-02 -0.15899148631E+00  0.34041939188E-01  0.95199994486E+00  0.93800000000E+00 0.  1.
         22    1    1    2    0    0  0.17950307956E+00  0.12621477587E+00  0.23869751366E+01  0.23970402224E+01  0.00000000000E+00 0.  1.
</event>
<event>
 5    1  0.3269840E+002  0.1548642E+01  0.7818608E-02  0.3411064E+00
         11   -1    0    0    0    0  0.00000000000E+00  0.00000000000E+00  0.39999999674E+01  0.40000000000E+01  0.51100000000E-03 0. -1.
    9000002   -1    0    0    0    0 -0.00000000000E+00 -0.00000000000E+00  0.00000000000E+00  0.93800000000E+00  0.93800000000E+00 0. -1.
         11    1    1    2    0    0  0.79296293815E-01 -0.20447797732E+00  0.65971892572E+00  0.69521828766E+00  0.51100000000E-03 0. -1.
    9000002    1    1    2    0    0 -0.27038906756E+00  0.10764589807E-01  0.89184945221E-01  0.98031835579E+00  0.93800000000E+00 0. -1.
         22    1    1    2    0    0  0.19109277374E+00  0.19371338751E+00  0.32510960964E+01  0.32624633565E+01  0.00000000000E+00 0. -1.
</event>
<event>
 5    1  0.3269840E+002  0.1597452E+01  0.7818608E-02  0.3356134E+00
         11   -1    0    0    0    0  0.00000000000E+00  0.00000000000E+00  0.39999999674E+01  0.40000000000E+01  0.51100000000E-03 0.  1.
    9000002   -1    0    0    0    0 -0.00000000000E+00 -0.00000000000E+00  0.00000000000E+00  0.93800000000E+00  0.93800000000E+00 0.  1.
         11    1    1    2    0    0  0.32890336914E-01 -0.38019913898E-01  0.42053028167E+00  0.42352481278E+00  0.51100000000E-03 0.  1.
    9000002    1    1    2    0    0 -0.25775710073E+00  0.31955992912E-01  0.46557007173E-01  0.97440826319E+00  0.93800000000E+00 0.  1.
         22    1    1    2    0    0  0.22486676381E+00  0.60639209865E-02  0.35329126785E+01  0.35400669240E+01  0.00000000000E+00 0.  1.
</event>
<event>
 5    1  0.3269840E+002  0.1599624E+01  0.7818608E-02  0.3353771E+00
         11   -1    0    0    0    0  0.00000000000E+00  0.00000000000E+00  0.39999999674E+01  0.40000000000E+01  0.51100000000E-03 0. -1.
    9000002   -1    0    0    0    0 -0.00000000000E+00 -0.00000000000E+00  0.00000000000E+00  0.93800000000E+00  0.93800000000E+00 0.  1.
         11    1    1    2    0    0  0.35224654028E-01  0.12803923944E-01  0.31714144943E+00  0.31934883245E+00  0.51100000000E-03 0. -1.
    9000002    1    1    2    0    0 -0.37703528535E+00 -0.17899951561E+00  0.11781231287E+00  0.10334022325E+01  0.93800000000E+00 0.  1.
         22    1    1    2    0    0  0.34181063132E+00  0.16619559167E+00  0.35650462051E+01  0.35852489351E+01  0.00000000000E+00 0. -1.
</event>
<event>
 5    1  0.3269840E+002  0.1599461E+01  0.7818608E-02  0.3353948E+00
         11   -1    0    0    0    0  0.00000000000E+00  0.00000000000E+00  0.39999999674E+01  0.40000000000E+01  0.51100000000E-03 0. -1.
    9000002   -1    0    0    0    0 -0.00000000000E+00 -0.00000000000E+00  0.00000000000E+00  0.93800000000E+00  0.93800000000E+00 0.  1.
         11    1    1    2    0    0  0.14339986192E+00  0.16848160011E-01  0.15743145468E+01  0.15809218621E+01  0.51100000000E-03 0. -1.
    9000002    1    1    2    0    0 -0.36543919978E+00 -0.83743248110E-01  0.94692400441E-01  0.10145784302E+01  0.93800000000E+00 0.  1.
         22    1    1    2    0    0  0.22203933787E+00  0.66895088099E-01  0.23309930202E+01  0.23424997077E+01  0.00000000000E+00 0.  1.
</event>
<event>
 5    1  0.3269840E+002  0.1599677E+01  0.7818608E-02  0.3353714E+00
         11   -1    0    0    0    0  0.00000000000E+00  0.00000000000E+00  0.39999999674E+01  0.40000000000E+01  0.51100000000E-03 0.  1.
    9000002   -1    0    0    0    0 -0.00000000000E+00 -0.00000000000E+00  0.00000000000E+00  0.93800000000E+00  0.93800000000E+00 0.  1.
         11    1    1    2    0    0  0.12133978639E+00  0.45258220164E+00  0.21805943873E+01  0.22303690583E+01  0.51100000000E-03 0.  1.
    9000002    1    1    2    0    0 -0.19824497421E+00 -0.74139916992E+00  0.42926563860E+00  0.12857242268E+01  0.93800000000E+00 0.  1.
         22    1    1    2    0    0  0.76905187815E-01  0.28881696828E+00  0.13901399414E+01  0.14219067149E+01  0.00000000000E+00 0.  1.
</event>
<event>
 5    1  0.3269840E+002  0.1599677E+01  0.7818608E-02  0.3353714E+00
         11   -1    0    0    0    0  0.00000000000E+00  0.00000000000E+00  0.39999999674E+01  0.40000000000E+01  0.51100000000E-03 0.  1.
    9000002   -1    0    0    0    0 -0.00000000000E+00 -0.00000000000E+00  0.00000000000E+00  0.93800000000E+00  0.93800000000E+00 0.  1.
         11    1    1    2    0    0 -0.24551595536E+00 -0.93270448529E-02  0.18449707272E+01  0.18612582635E+01  0.51100000000E-03 0.  1.
    9000002    1    1    2    0    0  0.51015932720E+00  0.19695201886E-01  0.17875045054E+00  0.10827955318E+01  0.93800000000E+00 0.  1.
         22    1    1    2    0    0 -0.26464337185E+00 -0.10368157033E-01  0.19762787896E+01  0.19939462047E+01  0.00000000000E+00 0.  1.
</event>
<event>
 5    1  0.3269840E+002  0.1597997E+01  0.7818608E-02  0.3355540E+00
         11   -1    0    0    0    0  0.00000000000E+00  0.00000000000E+00  0.39999999674E+01  0.40000000000E+01  0.51100000000E-03 0.  1.
    9000002   -1    0    0    0    0 -0.00000000000E+00 -0.00000000000E+00  0.00000000000E+00  0.93800000000E+00  0.93800000000E+00 0. -1.
         11    1    1    2    0    0  0.21218858079E+00  0.28330836500E-01  0.21893205364E+01  0.21997616467E+01  0.51100000000E-03 0.  1.
    9000002    1    1    2    0    0 -0.38747233745E+00 -0.13647457687E+00  0.11540221690E+00  0.10304958972E+01  0.93800000000E+00 0. -1.
         22    1    1    2    0    0  0.17528375666E+00  0.10814374037E+00  0.16952772141E+01  0.17077424561E+01  0.00000000000E+00 0.  1.
</event>
<event>
 5    1  0.3269840E+002  0.1591355E+01  0.7818608E-02  0.3362800E+00
         11   -1    0    0    0    0  0.00000000000E+00  0.00000000000E+00  0.39999999674E+01  0.40000000000E+01  0.51100000000E-03 0.  1.
    9000002   -1    0    0    0    0 -0.00000000000E+00 -0.00000000000E+00  0.00000000000E+00  0.93800000000E+00  0.93800000000E+00 0.  1.
         11    1    1    2    0    0 -0.17015794822E+00 -0.70236189487E-01  0.12072256057E+01  0.12211800743E+01  0.51100000000E-03 0.  1.
    9000002    1    1    2    0    0  0.23395848701E+00  0.31983150029E+00  0.11280728721E+00  0.10244990221E+01  0.93800000000E+00 0.  1.
         22    1    1    2    0    0 -0.63800538796E-01 -0.24959531081E+00  0.26799670744E+01  0.26923209036E+01  0.00000000000E+00 0.  1.
</event>
<event>
 5    1  0.3269840E+002  0.1599611E+01  0.7818608E-02  0.3353786E+00
         11   -1    0    0    0    0  0.00000000000E+00  0.00000000000E+00  0.39999999674E+01  0.40000000000E+01  0.51100000000E-03 0.  1.
    9000002   -1    0    0    0    0 -0.00000000000E+00 -0.00000000000E+00  0.00000000000E+00  0.93800000000E+00  0.93800000000E+00 0.  1.
         11    1    1    2    0    0 -0.21685445229E+00 -0.10501676860E+00  0.14724464545E+01  0.14920298917E+01  0.51100000000E-03 0.  1.
    9000002    1    1    2    0    0  0.52942246945E+00  0.26176552945E+00  0.24294594398E+00  0.11347581572E+01  0.93800000000E+00 0.  1.
         22    1    1    2    0    0 -0.31256801716E+00 -0.15674876084E+00  0.22846075689E+01  0.23112119512E+01  0.00000000000E+00 0.  1.
</event>
<event>
 5    1  0.3269840E+002  0.1599676E+01  0.7818608E-02  0.3353715E+00
         11   -1    0    0    0    0  0.00000000000E+00  0.00000000000E+00  0.39999999674E+01  0.40000000000E+01  0.51100000000E-03 0. -1.
    9000002   -1    0    0    0    0 -0.00000000000E+00 -0.00000000000E+00  0.00000000000E+00  0.93800000000E+00  0.93800000000E+00 0. -1.
         11    1    1    2    0    0  0.95026736176E-01  0.79629663760E-01  0.11618587462E+01  0.11684549505E+01  0.51100000000E-03 0. -1.
    9000002    1    1    2    0    0 -0.32031939528E+00 -0.26432696700E+00  0.11657112038E+00  0.10324272791E+01  0.93800000000E+00 0. -1.
         22    1    1    2    0    0  0.22529265911E+00  0.18469730324E+00  0.27215701007E+01  0.27371177704E+01  0.00000000000E+00 0. -1.
</event>
<event>
 5    1  0.3269840E+002  0.1597802E+01  0.7818608E-02  0.3355753E+00
         11   -1    0    0    0    0  0.00000000000E+00  0.00000000000E+00  0.39999999674E+01  0.40000000000E+01  0.51100000000E-03 0. -1.
    9000002   -1    0    0    0    0 -0.00000000000E+00 -0.00000000000E+00  0.00000000000E+00  0.93800000000E+00  0.93800000000E+00 0.  1.
         11    1    1    2    0    0  0.58958048353E-02 -0.46835116453E-01  0.25564018834E+00  0.25996241202E+00  0.51100000000E-03 0. -1.
    9000002    1    1    2    0    0  0.99757630444E-01  0.36696735627E+00  0.98848061443E-01  0.10169717620E+01  0.93800000000E+00 0.  1.
         22    1    1    2    0    0 -0.10565343528E+00 -0.32013223982E+00  0.36455117176E+01  0.36610658260E+01  0.00000000000E+00 0. -1.
</event>
<event>
 5    1  0.3269840E+002  0.1580919E+01  0.7818608E-02  0.3374338E+00
         11   -1    0    0    0    0  0.00000000000E+00  0.00000000000E+00  0.39999999674E+01  0.40000000000E+01  0.51100000000E-03 0.  1.
    9000002   -1    0    0    0    0 -0.00000000000E+00 -0.00000000000E+00  0.00000000000E+00  0.93800000000E+00  0.93800000000E+00 0. -1.
         11    1    1    2    0    0 -0.88744141875E-01  0.41732324226E+00  0.13591497509E+01  0.14245429154E+01  0.51100000000E-03 0.  1.
    9000002    1    1    2    0    0  0.18217868664E-03 -0.73963873119E+00  0.41791116284E+00  0.12655272521E+01  0.93800000000E+00 0. -1.
         22    1    1    2    0    0  0.88561963188E-01  0.32231548893E+00  0.22229390536E+01  0.22479298324E+01  0.00000000000E+00 0.  1.
</event>
<event>
 5    1  0.3269840E+002  0.1597231E+01  0.7818608E-02  0.3356374E+00
         11   -1    0    0    0    0  0.00000000000E+00  0.00000000000E+00  0.39999999674E+01  0.40000000000E+01  0.51100000000E-03 0.  1.
    9000002   -1    0    0    0    0 -0.00000000000E+00 -0.00000000000E+00  0.00000000000E+00  0.93800000000E+00  0.93800000000E+00 0.  1.
         11    1    1    2    0    0 -0.16445876531E+00 -0.28311969709E-01  0.78335835353E+00  0.80093621736E+00  0.51100000000E-03 0.  1.
    9000002    1    1    2    0    0  0.57378071621E+00  0.45063495281E-01  0.23231798430E+00  0.11247536062E+01  0.93800000000E+00 0.  1.
         22    1    1    2    0    0 -0.40932195090E+00 -0.16751525572E-01  0.29843236295E+01  0.30123101764E+01  0.00000000000E+00 0.  1.
</event>
<event>
 5    1  0.3269840E+002  0.1596407E+01  0.7818608E-02  0.3357272E+00
         11   -1    0    0    0    0  0.00000000000E+00  0.00000000000E+00  0.39999999674E+01  0.40000000000E+01  0.51100000000E-03 0. -1.
    9000002   -1    0    0    0    0 -0.00000000000E+00 -0.00000000000E+00  0.00000000000E+00  0.93800000000E+00  0.93800000000E+00 0. -1.
         11    1    1    2    0    0 -0.10775433057E-01  0.11303313830E+00  0.72543749641E+00  0.73426999301E+00  0.51100000000E-03 0. -1.
    9000002    1    1    2    0    0  0.23890894076E+00 -0.37970263191E+00  0.13948497146E+00  0.10490717935E+01  0.93800000000E+00 0. -1.
         22    1    1    2    0    0 -0.22813350771E+00  0.26666949362E+00  0.31350774995E+01  0.31546582135E+01  0.00000000000E+00 0. -1.
</event>
<event>
 5    1  0.3269840E+002  0.1499105E+01  0.7818608E-02  0.3470721E+00
         11   -1    0    0    0    0  0.00000000000E+00  0.00000000000E+00  0.39999999674E+01  0.40000000000E+01  0.51100000000E-03 0.  1.
    9000002   -1    0    0    0    0 -0.00000000000E+00 -0.00000000000E+00  0.00000000000E+00  0.93800000000E+00  0.93800000000E+00 0. -1.
         11    1    1    2    0    0 -0.45110162769E+00 -0.18932071293E+00  0.14204691251E+01  0.15023540885E+01  0.51100000000E-03 0.  1.
    9000002    1    1    2    0    0  0.22743324402E+00  0.33046280386E+00  0.19768415733E+00  0.10391605128E+01  0.93800000000E+00 0. -1.
         22    1    1    2    0    0  0.22366838367E+00 -0.14114209093E+00  0.23818466850E+01  0.23964853987E+01  0.00000000000E+00 0.  1.
</event>
<event>
 5    1  0.3269840E+002  0.1530348E+01  0.7818608E-02  0.3432613E+00
         11   -1    0    0    0    0  0.00000000000E+00  0.00000000000E+00  0.39999999674E+01  0.40000000000E+01  0.51100000000E-03 0. -1.
    9000002   -1    0    0    0    0 -0.00000000000E+00 -0.00000000000E+00  0.00000000000E+00  0.93800000000E+00  0.93800000000E+00 0. -1.
         11    1    1    2    0    0 -0.83878008953E-02 -0.24926722276E+00  0.14322635422E+01  0.14538169138E+01  0.51100000000E-03 0. -1.
    9000002    1    1    2    0    0 -0.55451247227E-01 -0.14910818919E+00  0.69885328815E-01  0.95395809766E+00  0.93800000000E+00 0. -1.
         22    1    1    2    0    0  0.63839048123E-01  0.39837541195E+00  0.24978510964E+01  0.25302249885E+01  0.00000000000E+00 0. -1.
</event>
<event>
 5    1  0.3269840E+002  0.1599606E+01  0.7818608E-02  0.3353791E+00
         11   -1    0    0    0    0  0.00000000000E+00  0.00000000000E+00  0.39999999674E+01  0.40000000000E+01  0.51100000000E-03 0. -1.
    9000002   -1    0    0    0    0 -0.00000000000E+00 -0.00000000000E+00  0.00000000000E+00  0.93800000000E+00  0.93800000000E+00 0. -1.
         11    1    1    2    0    0 -0.61128943143E-01 -0.96042387304E-01  0.14323277278E+01  0.14368451095E+01  0.51100000000E-03 0. -1.
    9000002    1    1    2    0    0  0.19179485777E+00  0.27462869871E+00  0.75170605022E-01  0.99884974320E+00  0.93800000000E+00 0. -1.
         22    1    1    2    0    0 -0.13066591463E+00 -0.17858631141E+00  0.24925016346E+01  0.25023051473E+01  0.00000000000E+00 0. -1.
</event>
<event>
 5    1  0.3269840E+002  0.1597991E+01  0.7818608E-02  0.3355546E+00
         11   -1    0    0    0    0  0.00000000000E+00  0.00000000000E+00  0.39999999674E+01  0.40000000000E+01  0.51100000000E-03 0.  1.
    9000002   -1    0    0    0    0 -0.00000000000E+00 -0.00000000000E+00  0.00000000000E+00  0.93800000000E+00  0.93800000000E+00 0. -1.
         11    1    1    2    0    0 -0.20476237848E-01 -0.12843037086E+00  0.83680862762E+00  0.84685451930E+00  0.51100000000E-03 0.  1.
    9000002    1    1    2    0    0 -0.77256067678E-01  0.50992556964E+00  0.18411994489E+00  0.10861568674E+01  0.93800000000E+00 0. -1.
         22    1    1    2    0    0  0.97732305526E-01 -0.38149519878E+00  0.29790713948E+01  0.30049886133E+01  0.00000000000E+00 0.  1.
</event>
<event>
 5    1  0.3269840E+002  0.1599677E+01  0.7818608E-02  0.3353714E+00
         11   -1    0    0    0    0  0.00000000000E+00  0.00000000000E+00  0.39999999674E+01  0.40000000000E+01  0.51100000000E-03 0.  1.
    9000002   -1    0    0    0    0 -0.00000000000E+00 -0.00000000000E+00  0.00000000000E+00  0.93800000000E+00  0.93800000000E+00 0. -1.
         11    1    1    2    0    0  0.61583584027E-01 -0.13889283103E+00  0.16718949018E+01  0.16787842566E+01  0.51100000000E-03 0. -1.
    9000002    1    1    2    0    0 -0.14430446901E+00  0.32514103476E+00  0.84900768012E-01  0.10067733671E+01  0.93800000000E+00 0. -1.
         22    1    1    2    0    0  0.82720884987E-01 -0.18624820373E+00  0.22432042975E+01  0.22524423763E+01  0.00000000000E+00 0.  1.
</event>
<event>
 5    1  0.3269840E+002  0.1599598E+01  0.7818608E-02  0.3353800E+00
         11   -1    0    0    0    0  0.00000000000E+00  0.00000000000E+00  0.39999999674E+01  0.40000000000E+01  0.51100000000E-03 0. -1.
    9000002   -1    0    0    0    0 -0.00000000000E+00 -0.00000000000E+00  0.00000000000E+00  0.93800000000E+00  0.93800000000E+00 0. -1.
         11    1    1    2    0    0  0.16480719113E+00  0.58116043947E+00  0.25862600157E+01  0.26558708546E+01  0.51100000000E-03 0. -1.
    9000002    1    1    2    0    0 -0.21160230910E+00 -0.79222424331E+00  0.49885607378E+00  0.13420492432E+01  0.93800000000E+00 0. -1.
         22    1    1    2    0    0  0.46795117968E-01  0.21106380385E+00  0.91488387789E+00  0.94007990213E+00  0.00000000000E+00 0. -1.
</event>
<event>
 5    1  0.3269840E+002  0.1599677E+01  0.7818608E-02  0.3353714E+00
         11   -1    0    0    0    0  0.00000000000E+00  0.00000000000E+00  0.39999999674E+01  0.40000000000E+01  0.51100000000E-03 0.  1.
    9000002   -1    0    0    0    0 -0.00000000000E+00 -0.00000000000E+00  0.00000000000E+00  0.93800000000E+00  0.93800000000E+00 0.  1.
         11    1    1    2    0    0 -0.18154013567E+00 -0.67151064963E-01  0.17061493362E+01  0.17170940292E+01  0.51100000000E-03 0.  1.
    9000002    1    1    2    0    0  0.41079139561E+00  0.15216951338E+00  0.13011354194E+00  0.10433976544E+01  0.93800000000E+00 0.  1.
         22    1    1    2    0    0 -0.22925125994E+00 -0.85018448420E-01  0.21637370892E+01  0.21775083164E+01  0.00000000000E+00 0.  1.
</event>
<event>
 5    1  0.3269840E+002  0.1591566E+01  0.7818608E-02  0.3362569E+00
         11   -1    0    0    0    0  0.00000000000E+00  0.00000000000E+00  0.39999999674E+01  0.40000000000E+01  0.51100000000E-03 0. -1.
    9000002   -1    0    0    0    0 -0.00000000000E+00 -0.00000000000E+00  0.00000000000E+00  0.93800000000E+00  0.93800000000E+00 0. -1.
         11    1    1    2    0    0  0.44534951414E-01 -0.35307013699E-01  0.10038960501E+01  0.10055035990E+01  0.51100000000E-03 0. -1.
    9000002    1    1    2    0    0  0.19619988773E+00  0.13523140620E+00  0.43880066214E-01  0.96878861956E+00  0.93800000000E+00 0. -1.
         22    1    1    2    0    0 -0.24073483915E+00 -0.99924392500E-01  0.29522238511E+01  0.29637077814E+01  0.00000000000E+00 0. -1.
</event>
<event>
 5    1  0.3269840E+002  0.1513925E+01  0.7818608E-02  0.3452434E+00
         11   -1    0    0    0    0  0.00000000000E+00  0.00000000000E+00  0.39999999674E+01  0.40000000000E+01  0.51100000000E-03 0.  1.
    9000002   -1    0    0    0    0 -0.00000000000E+00 -0.00000000000E+00  0.00000000000E+00  0.93800000000E+00  0.93800000000E+00 0. -1.
         11    1    1    2    0    0 -0.89748107313E-01  0.25598651395E+00  0.85885875215E+00  0.90067887472E+00  0.51100000000E-03 0.  1.
    9000002    1    1    2    0    0 -0.55280064404E-03  0.10278827179E+00  0.72432260534E-01  0.94639112780E+00  0.93800000000E+00 0. -1.
         22    1    1    2    0    0  0.90300907957E-01 -0.35877478575E+00  0.30687089547E+01  0.30909299975E+01  0.00000000000E+00 0.  1.
</event>
<event>
 5    1  0.3269840E+002  0.1599675E+01  0.7818608E-02  0.3353716E+00
         11   -1    0    0    0    0  0.00000000000E+00  0.00000000000E+00  0.39999999674E+01  0.40000000000E+01  0.51100000000E-03 0. -1.
    9000002   -1    0    0    0    0 -0.00000000000E+00 -0.00000000000E+00  0.00000000000E+00  0.93800000000E+00  0.93800000000E+00 0.  1.
         11    1    1    2    0    0 -0.10285072443E-01  0.85289045236E-02  0.23159162402E+00  0.23197729709E+00  0.51100000000E-03 0.  1.
    9000002    1    1    2    0    0  0.18427648204E+00 -0.15483750773E+00  0.38458799056E-01  0.96915197717E+00  0.93800000000E+00 0.  1.
         22    1    1    2    0    0 -0.17399140959E+00  0.14630860320E+00  0.37299495443E+01  0.37368707257E+01  0.00000000000E+00 0. -1.
</event>
<event>
 5    1  0.3269840E+002  0.1599639E+01  0.7818608E-02  0.3353755E+00
         11   -1    0    0    0    0  0.00000000000E+00  0.00000000000E+00  0.39999999674E+01  0.40000000000E+01  0.51100000000E-03 0.  1.
    9000002   -1    0    0    0    0 -0.00000000000E+00 -0.00000000000E+00  0.00000000000E+00  0.93800000000E+00  0.93800000000E+00 0. -1.
         11    1    1    2    0    0  0.13821734973E+00 -0.14007110539E+00  0.15398260517E+01  0.15523493424E+01  0.51100000000E-03 0.  1.
    9000002    1    1    2    0    0 -0.34635799664E+00  0.33147390280E+00  0.15684217500E+00  0.10650268907E+01  0.93800000000E+00 0. -1.
         22    1    1    2    0    0  0.20814064692E+00 -0.19140279741E+00  0.23033317406E+01  0.23206237668E+01  0.00000000000E+00 0.  1.
</event>
<event>
 5    1  0.3269840E+002  0.1599676E+01  0.7818608E-02  0.3353715E+00
         11   -1    0    0    0    0  0.00000000000E+00  0.00000000000E+00  0.39999999674E+01  0.40000000000E+01  0.51100000000E-03 0. -1.
    9000002   -1    0    0    0    0 -0.00000000000E+00 -0.00000000000E+00  0.00000000000E+00  0.93800000000E+00  0.93800000000E+00 0. -1.
         11    1    1    2    0    0 -0.17780279872E+00  0.20979829656E+00  0.19714708231E+01  0.19905593757E+01  0.51100000000E-03 0. -1.
    9000002    1    1    2    0    0  0.34187859821E+00 -0.40642421942E+00  0.19413854436E+00  0.10952604240E+01  0.93800000000E+00 0. -1.
         22    1    1    2    0    0 -0.16407579949E+00  0.19662592286E+00  0.18343905999E+01  0.18521802003E+01  0.00000000000E+00 0.  1.
</event>
<event>
 5    1  0.3269840E+002  0.1592695E+01  0.7818608E-02  0.3361330E+00
         11   -1    0    0    0    0  0.00000000000E+00  0.00000000000E+00  0.39999999674E+01  0.40000000000E+01  0.51100000000E-03 0. -1.
    9000002   -1    0    0    0    0 -0.00000000000E+00 -0.00000000000E+00  0.00000000000E+00  0.93800000000E+00  0.93800000000E+00 0.  1.
         11    1    1    2    0    0 -0.64666272200E-01 -0.18103638163E-02  0.35921608178E+00  0.36499514888E+00  0.51100000000E-03 0. -1.
    9000002    1    1    2    0    0  0.14113318242E+00  0.30988790646E+00  0.83275424442E-01  0.10013630141E+01  0.93800000000E+00 0.  1.
         22    1    1    2    0    0 -0.76466910224E-01 -0.30807754265E+00  0.35575084611E+01  0.35716418370E+01  0.00000000000E+00 0. -1.
</event>
<event>
 5    1  0.3269840E+002  0.1599383E+01  0.7818608E-02  0.3354033E+00
         11   -1    0    0    0    0  0.00000000000E+00  0.00000000000E+00  0.39999999674E+01  0.40000000000E+01  0.51100000000E-03 0.  1.
    9000002   -1    0    0    0    0 -0.00000000000E+00 -0.00000000000E+00  0.00000000000E+00  0.93800000000E+00  0.93800000000E+00 0.  1.
         11    1    1    2    0    0  0.31202341439E-01 -0.44952111196E-01  0.63496862873E+00  0.63732228817E+00  0.51100000000E-03 0.  1.
    9000002    1    1    2    0    0 -0.23113937360E+00  0.19260940969E+00  0.60624411365E-01  0.98693622589E+00  0.93800000000E+00 0.  1.
         22    1    1    2    0    0  0.19993703216E+00 -0.14765729849E+00  0.33044069273E+01  0.33137414859E+01  0.00000000000E+00 0.  1.
</event>
<event>
 5    1  0.3269840E+002  0.1599675E+01  0.7818608E-02  0.3353716E+00
         11   -1    0    0    0    0  0.00000000000E+00  0.00000000000E+00  0.39999999674E+01  0.40000000000E+01  0.51100000000E-03 0. -1.
    9000002   -1    0    0    0    0 -0.00000000000E+00 -0.00000000000E+00  0.00000000000E+00  0.93800000000E+00  0.93800000000E+00 0. -1.
         11    1    1    2    0    0 -0.13968121462E+00  0.58844607834E-01  0.12298491850E+01  0.12391540697E+01  0.51100000000E-03 0. -1.
    9000002    1    1    2    0    0  0.43436150272E+00 -0.17994627671E+00  0.15059513311E+00  0.10599874866E+01  0.93800000000E+00 0. -1.
         22    1    1    2    0    0 -0.29468028809E+00  0.12110166888E+00  0.26195556493E+01  0.26388584437E+01  0.00000000000E+00 0. -1.
</event>
<event>
 5    1  0.3269840E+002  0.1599655E+01  0.7818608E-02  0.3353738E+00
         11   -1    0    0    0    0  0.00000000000E+00  0.00000000000E+00  0.39999999674E+01  0.40000000000E+01  0.51100000000E-03 0.  1.
    9000002   -1    0    0    0    0 -0.00000000000E+00 -0.00000000000E+00  0.00000000000E+00  0.93800000000E+00  0.93800000000E+00 0.  1.
         11    1    1    2    0    0  0.14559003265E-01  0.93982596802E-02  0.15969448534E+00  0.16063275391E+00  0.51100000000E-03 0.  1.
    9000002    1    1    2    0    0 -0.38073655033E+00 -0.27079205502E+00  0.14866293875E+00  0.10584107554E+01  0.93800000000E+00 0.  1.
         22    1    1    2    0    0  0.36617754707E+00  0.26139379534E+00  0.36916425433E+01  0.37189564907E+01  0.00000000000E+00 0.  1.
</event>
<event>
 5    1  0.3269840E+002  0.1598572E+01  0.7818608E-02  0.3354915E+00
         11   -1    0    0    0    0  0.00000000000E+00  0.00000000000E+00  0.39999999674E+01  0.40000000000E+01  0.51100000000E-03 0.  1.
    9000002   -1    0    0    0    0 -0.00000000000E+00 -0.00000000000E+00  0.00000000000E+00  0.93800000000E+00  0.93800000000E+00 0. -1.
         11    1    1    2    0    0 -0.26978366846E-01  0.12330490103E-01  0.37389422111E+00  0.37506935754E+00  0.51100000000E-03 0.  1.
    9000002    1    1    2    0    0  0.82303413466E-01 -0.27206297675E+00  0.54679049839E-01  0.98164449455E+00  0.93800000000E+00 0. -1.
         22    1    1    2    0    0 -0.55325046620E-01  0.25973248665E+00  0.35714266964E+01  0.35812861479E+01  0.00000000000E+00 0.  1.
</event>
<event>
 5    1  0.3269840E+002  0.1596370E+01  0.7818608E-02  0.3357313E+00
         11   -1    0    0    0    0  0.00000000000E+00  0.00000000000E+00  0.39999999674E+01  0.40000000000E+01  0.51100000000E-03 0. -1.
    9000002   -1    0    0    0    0 -0.00000000000E+00 -0.00000000000E+00  0.00000000000E+00  0.93800000000E+00  0.93800000000E+00 0. -1.
         11    1    1    2    0    0  0.94421240547E-02  0.34877579160E-01  0.16870221641E+00  0.17252912270E+00  0.51100000000E-03 0. -1.
    9000002    1    1    2    0    0  0.13446973522E+00 -0.25981428524E+00  0.59639147711E-01  0.98437106847E+00  0.93800000000E+00 0. -1.
         22    1    1    2    0    0 -0.14391185928E+00  0.22493670608E+00  0.37716586032E+01  0.37810998088E+01  0.00000000000E+00 0. -1.
</event>
<event>
 5    1  0.3269840E+002  0.1599365E+01  0.7818608E-02  0.3354052E+00
         11   -1    0    0    0    0  0.00000000000E+00  0.00000000000E+00  0.39999999674E+01  0.40000000000E+01  0.51100000000E-03 0. -1.
    9000002   -1    0    0    0    0 -0.00000000000E+00 -0.00000000000E+00  0.00000000000E+00  0.93800000000E+00  0.93800000000E+00 0. -1.
         11    1    1    2    0    0 -0.90301472152E-03  0.24670268748E-01  0.30606013940E+00  0.30705456786E+00  0.51100000000E-03 0. -1.
    9000002    1    1    2    0    0 -0.97024267676E-01 -0.22065841029E+00  0.38809119711E-01  0.96925434759E+00  0.93800000000E+00 0. -1.
         22    1    1    2    0    0  0.97927282397E-01  0.19598814154E+00  0.36551307083E+01  0.36616910846E+01  0.00000000000E+00 0. -1.
</event>
<event>
 5    1  0.3269840E+002  0.1599677E+01  0.7818608E-02  0.3353714E+00
         11   -1    0    0    0    0  0.00000000000E+00  0.00000000000E+00  0.39999999674E+01  0.40000000000E+01  0.51100000000E-03 0.  1.
    9000002   -1    0    0    0    0 -0.00000000000E+00 -0.00000000000E+00  0.00000000000E+00  0.93800000000E+00  0.93800000000E+00 0. -1.
         11    1    1    2    0    0  0.52014449808E+00  0.11792140247E+00  0.23554363074E+01  0.24150644330E+01  0.51100000000E-03 0. -1.
    9000002    1    1    2    0    0 -0.77956569577E+00 -0.17670369773E+00  0.47055674768E+00  0.13191719083E+01  0.93800000000E+00 0. -1.
         22    1    1    2    0    0  0.25942119770E+00  0.58782295260E-01  0.11740069123E+01  0.12037636587E+01  0.00000000000E+00 0.  1.
</event>
<event>
 5    1  0.3269840E+002  0.1599673E+01  0.7818608E-02  0.3353718E+00
         11   -1    0    0    0    0  0.00000000000E+00  0.00000000000E+00  0.39999999674E+01  0.40000000000E+01  0.51100000000E-03 0. -1.
    9000002   -1    0    0    0    0 -0.00000000000E+00 -0.00000000000E+00  0.00000000000E+00  0.93800000000E+00  0.93800000000E+00 0. -1.
         11    1    1    2    0    0  0.17641042793E+00 -0.24490538755E+00  0.20381479711E+01  0.20603753787E+01  0.51100000000E-03 0. -1.
    9000002    1    1    2    0    0 -0.32893240881E+00  0.45062176618E+00  0.21531464825E+00  0.11124122003E+01  0.93800000000E+00 0. -1.
         22    1    1    2    0    0  0.15252198088E+00 -0.20571637864E+00  0.17465373480E+01  0.17652124209E+01  0.00000000000E+00 0. -1.
</event>
<event>
 5    1  0.3269840E+002  0.1513950E+01  0.7818608E-02  0.3452404E+00
         11   -1    0    0    0    0  0.00000000000E+00  0.00000000000E+00  0.39999999674E+01  0.40000000000E+01  0.51100000000E-03 0.  1.
    9000002   -1    0    0    0    0 -0.00000000000E+00 -0.00000000000E+00  0.00000000000E+00  0.93800000000E+00  0.93800000000E+00 0.  1.
         11    1    1    2    0    0  0.10042494289E+00 -0.16775593900E+00  0.30339122934E+00  0.36093451399E+00  0.51100000000E-03 0.  1.
    9000002    1    1    2    0    0  0.86077762564E-01  0.56848836257E-01  0.72466908905E-01  0.94643363438E+00  0.93800000000E+00 0.  1.
         22    1    1    2    0    0 -0.18650270545E+00  0.11090710275E+00  0.36241418291E+01  0.36306318516E+01  0.00000000000E+00 0.  1.
</event>
<event>
 5    1  0.3269840E+002  0.1599627E+01  0.7818608E-02  0.3353769E+00
         11   -1    0    0    0    0  0.00000000000E+00  0.00000000000E+00  0.39999999674E+01  0.40000000000E+01  0.51100000000E-03 0. -1.
    9000002   -1    0    0    0    0 -0.00000000000E+00 -0.00000000000E+00  0.00000000000E+00  0.93800000000E+00  0.93800000000E+00 0. -1.
         11    1    1    2    0    0 -0.13648881846E-01 -0.18650498713E+00  0.16158990110E+01  0.16266838282E+01  0.51100000000E-03 0. -1.
    9000002    1    1    2    0    0  0.49206598050E-01  0.43502269235E+00  0.12998939143E+00  0.10432675946E+01  0.93800000000E+00 0. -1.
         22    1    1    2    0    0 -0.35557716204E-01 -0.24851770522E+00  0.22541115649E+01  0.22680485771E+01  0.00000000000E+00 0. -1.
</event>
<event>
 5    1  0.3269840E+002  0.1594994E+01  0.7818608E-02  0.3358814E+00
         11   -1    0    0    0    0  0.00000000000E+00  0.00000000000E+00  0.39999999674E+01  0.40000000000E+01  0.51100000000E-03 0. -1.
    9000002   -1    0    0    0    0 -0.00000000000E+00 -0.00000000000E+00  0.00000000000E+00  0.93800000000E+00  0.93800000000E+00 0.  1.
         11    1    1    2    0    0  0.84971564429E-01  0.38269131579E-01  0.20799466654E+01  0.20820334015E+01  0.51100000000E-03 0. -1.
    9000002    1    1    2    0    0 -0.31595317903E+00 -0.77064403268E-01  0.74455751611E-01  0.99556666906E+00  0.93800000000E+00 0.  1.
         22    1    1    2    0    0  0.23098161460E+00  0.38795271689E-01  0.18455975504E+01  0.18603999294E+01  0.00000000000E+00 0. -1.
</event>
<event>
 5    1  0.3269840E+002  0.1599677E+01  0.7818608E-02  0.3353714E+00
         11   -1    0    0    0    0  0.00000000000E+00  0.00000000000E+00  0.39999999674E+01  0.40000000000E+01  0.51100000000E-03 0. -1.
    9000002   -1    0    0    0    0 -0.00000000000E+00 -0.00000000000E+00  0.00000000000E+00  0.93800000000E+00  0.93800000000E+00 0. -1.
         11    1    1    2    0    0  0.31977799398E+00 -0.49180592022E+00  0.26287695639E+01  0.26934291729E+01  0.51100000000E-03 0. -1.
    9000002    1    1    2    0    0 -0.43058326240E+00  0.66214723055E+00  0.45797271268E+00  0.13089781917E+01  0.93800000000E+00 0. -1.
         22    1    1    2    0    0  0.11080526842E+00 -0.17034131033E+00  0.91325769082E+00  0.93559263537E+00  0.00000000000E+00 0.  1.
</event>
<event>
 5    1  0.3269840E+002  0.1599677E+01  0.7818608E-02  0.3353714E+00
         11   -1    0    0    0    0  0.00000000000E+00  0.00000000000E+00  0.39999999674E+01  0.40000000000E+01  0.51100000000E-03 0.  1.
    9000002   -1    0    0    0    0 -0.00000000000E+00 -0.00000000000E+00  0.00000000000E+00  0.93800000000E+00  0.93800000000E+00 0.  1.
         11    1    1    2    0    0 -0.23398308778E-01  0.57014406401E-01  0.89990415945E+00  0.90201212892E+00  0.51100000000E-03 0. -1.
    9000002    1    1    2    0    0  0.10157287646E+00 -0.24957741546E+00  0.48306428279E-01  0.97713020962E+00  0.93800000000E+00 0.  1.
         22    1    1    2    0    0 -0.78174567678E-01  0.19256300905E+00  0.30517893796E+01  0.30588576615E+01  0.00000000000E+00 0.  1.
</event>
<event>
 5    1  0.3269840E+002  0.1599648E+01  0.7818608E-02  0.3353745E+00
         11   -1    0    0    0    0  0.00000000000E+00  0.00000000000E+00  0.39999999674E+01  0.40000000000E+01  0.51100000000E-03 0.  1.
    9000002   -1    0    0    0    0 -0.00000000000E+00 -0.00000000000E+00  0.00000000000E+00  0.93800000000E+00  0.93800000000E+00 0.  1.
         11    1    1    2    0    0 -0.35672851994E-01 -0.17504807209E-01  0.57546904130E+00  0.57683953511E+00  0.51100000000E-03 0.  1.
    9000002    1    1    2    0    0  0.21419533186E+00  0.12293420351E+00  0.40529439216E-01  0.97081362476E+00  0.93800000000E+00 0.  1.
         22    1    1    2    0    0 -0.17852247987E+00 -0.10542939630E+00  0.33840014868E+01  0.33903468401E+01  0.00000000000E+00 0.  1.
</event>
<event>
 5    1  0.3269840E+002  0.1589449E+01  0.7818608E-02  0.3364895E+00
         11   -1    0    0    0    0  0.00000000000E+00  0.00000000000E+00  0.39999999674E+01  0.40000000000E+01  0.51100000000E-03 0. -1.
    9000002   -1    0    0    0    0 -0.00000000000E+00 -0.00000000000E+00  0.00000000000E+00  0.93800000000E+00  0.93800000000E+00 0.  1.
         11    1    1    2    0    0  0.32509352636E-01  0.98731024224E-01  0.14064881606E+01  0.14103240337E+01  0.51100000000E-03 0. -1.
    9000002    1    1    2    0    0  0.20989262202E+00 -0.14920267724E+00  0.51962836316E-01  0.97409470178E+00  0.93800000000E+00 0.  1.
         22    1    1    2    0    0 -0.24240197466E+00  0.50471653016E-01  0.25415489705E+01  0.25535812645E+01  0.00000000000E+00 0. -1.
</event>
<event>
 5    1  0.3269840E+002  0.1594781E+01  0.7818608E-02  0.3359047E+00
         11   -1    0    0    0    0  0.00000000000E+00  0.00000000000E+00  0.39999999674E+01  0.40000000000E+01  0.51100000000E-03 0.  1.
    9000002   -1    0    0    0    0 -0.00000000000E+00 -0.00000000000E+00  0.00000000000E+00  0.93800000000E+00  0.93800000000E+00 0.  1.
         11    1    1    2    0    0  0.63266382755E-02  0.62054923231E-01  0.28495513425E+00  0.29170281025E+00  0.51100000000E-03 0.  1.
    9000002    1    1    2    0    0 -0.15351520483E+00 -0.25321033931E+00  0.62306864503E-01  0.98560059832E+00  0.93800000000E+00 0.  1.
         22    1    1    2    0    0  0.14718856655E+00  0.19115541608E+00  0.36527379686E+01  0.36606965914E+01  0.00000000000E+00 0.  1.
</event>
<event>
 5    1  0.3269840E+002  0.1599354E+01  0.7818608E-02  0.3354065E+00
         11   -1    0    0    0    0  0.00000000000E+00  0.00000000000E+00  0.39999999674E+01  0.40000000000E+01  0.51100000000E-03 0.  1.
    9000002   -1    0    0    0    0 -0.00000000000E+00 -0.00000000000E+00  0.00000000000E+00  0.93800000000E+00  0.93800000000E+00 0.  1.
         11    1    1    2    0    0  0.13611889382E-01 -0.21066380138E-01  0.16841063948E+00  0.17026884775E+00  0.51100000000E-03 0.  1.
    9000002    1    1    2    0    0 -0.17499115411E+00  0.33909496138E+00  0.98254468295E-01  0.10174012175E+01  0.93800000000E+00 0.  1.
         22    1    1    2    0    0  0.16137926473E+00 -0.31802858124E+00  0.37333348596E+01  0.37503299347E+01  0.00000000000E+00 0.  1.
</event>
<event>
 5    1  0.3269840E+002  0.1599670E+01  0.7818608E-02  0.3353721E+00
         11   -1    0    0    0    0  0.00000000000E+00  0.00000000000E+00  0.39999999674E+01  0.40000000000E+01  0.51100000000E-03 0. -1.
    9000002   -1    0    0    0    0 -0.00000000000E+00 -0.00000000000E+00  0.00000000000E+00  0.93800000000E+00  0.93800000000E+00 0.  1.
         11    1    1    2    0    0 -0.44909172304E-01  0.10640221248E+00  0.12640817136E+01  0.12693467234E+01  0.51100000000E-03 0. -1.
    9000002    1    1    2    0    0  0.13301684662E+00 -0.33600040968E+00  0.87679058532E-01  0.10090200068E+01  0.93800000000E+00 0.  1.
         22    1    1    2    0    0 -0.88107674319E-01  0.22959819721E+00  0.26482391953E+01  0.26596332698E+01  0.00000000000E+00 0. -1.
</event>
<event>
 5    1  0.3269840E+002  0.1595619E+01  0.7818608E-02  0.3358133E+00
         11   -1    0    0    0    0  0.00000000000E+00  0.00000000000E+00  0.39999999674E+01  0.40000000000E+01  0.51100000000E-03 0.  1.
    9000002   -1    0    0    0    0 -0.00000000000E+00 -0.00000000000E+00  0.00000000000E+00  0.93800000000E+00  0.93800000000E+00 0. -1.
         11    1    1    2    0    0  0.15187642965E+00  0.81609665713E-01  0.21973445224E+01  0.22040984095E+01  0.51100000000E-03 0.  1.
    9000002    1    1    2    0    0 -0.23428998749E+00 -0.27585190286E+00  0.91244594748E-01  0.10095323901E+01  0.93800000000E+00 0. -1.
         22    1    1    2    0    0  0.82413557841E-01  0.19424223715E+00  0.17114108502E+01  0.17243692004E+01  0.00000000000E+00 0.  1.
</event>
<event>
 5    1  0.3269840E+002  0.1597638E+01  0.7818608E-02  0.3355930E+00
         11   -1    0    0    0    0  0.00000000000E+00  0.00000000000E+00  0.39999999674E+01  0.40000000000E+01  0.51100000000E-03 0. -1.
    9000002   -1    0    0    0    0 -0.00000000000E+00 -0.00000000000E+00  0.00000000000E+00  0.93800000000E+00  0.93800000000E+00 0.  1.
         11    1    1    2    0    0  0.74236213599E-01 -0.11587303171E+00  0.12855409305E+01  0.12928856562E+01  0.51100000000E-03 0. -1.
    9000002    1    1    2    0    0 -0.27321932749E+00  0.20490474077E+00  0.79767408623E-01  0.10014197887E+01  0.93800000000E+00 0.  1.
         22    1    1    2    0    0  0.19898311389E+00 -0.89031709064E-01  0.26346916283E+01  0.26436945552E+01  0.00000000000E+00 0.  1.
</event>
<event>
 5    1  0.3269840E+002  0.1599669E+01  0.7818608E-02  0.3353723E+00
         11   -1    0    0    0    0  0.00000000000E+00  0.00000000000E+00  0.39999999674E+01  0.40000000000E+01  0.51100000000E-03 0.  1.
    9000002   -1    0    0    0    0 -0.00000000000E+00 -0.00000000000E+00  0.00000000000E+00  0.93800000000E+00  0.93800000000E+00 0.  1.
         11    1    1    2    0    0  0.36729682928E-01  0.10476730835E-01  0.40065250628E+00  0.40246928257E+00  0.51100000000E-03 0.  1.
    9000002    1    1    2    0    0 -0.35034200075E+00 -0.83692797452E-01  0.87101107326E-01  0.10085507447E+01  0.93800000000E+00 0.  1.
         22    1    1    2    0    0  0.31361231782E+00  0.73216066617E-01  0.35122463537E+01  0.35269799727E+01  0.00000000000E+00 0. -1.
</event>
<event>
 5    1  0.3269840E+002  0.1599292E+01  0.7818608E-02  0.3354132E+00
         11   -1    0    0    0    0  0.00000000000E+00  0.00000000000E+00  0.39999999674E+01  0.40000000000E+01  0.51100000000E-03 0.  1.
    9000002   -1    0    0    0    0 -0.00000000000E+00 -0.00000000000E+00  0.00000000000E+00  0.93800000000E+00  0.93800000000E+00 0.  1.
         11    1    1    2    0    0  0.58372240604E-01 -0.21764267821E+00  0.15068312439E+01  0.15235866607E+01  0.51100000000E-03 0.  1.
    9000002    1    1    2    0    0 -0.18598558555E+00  0.50522799726E+00  0.20012066525E+00  0.10998810153E+01  0.93800000000E+00 0.  1.
         22    1    1    2    0    0  0.12761334495E+00 -0.28758531905E+00  0.22930480582E+01  0.23145323240E+01  0.00000000000E+00 0.  1.
</event>
<event>
 5    1  0.3269840E+002  0.1586610E+01  0.7818608E-02  0.3368026E+00
         11   -1    0    0    0    0  0.00000000000E+00  0.00000000000E+00  0.39999999674E+01  0.40000000000E+01  0.51100000000E-03 0. -1.
    9000002   -1    0    0    0    0 -0.00000000000E+00 -0.00000000000E+00  0.00000000000E+00  0.93800000000E+00  0.93800000000E+00 0.  1.
         11    1    1    2    0    0 -0.30011271263E-01 -0.56200164157E-01  0.15225340885E+00  0.16504695235E+00  0.51100000000E-03 0. -1.
    9000002    1    1    2    0    0 -0.87504639900E-01  0.33688804751E+00  0.91799755029E-01  0.10046998624E+01  0.93800000000E+00 0.  1.
         22    1    1    2    0    0  0.11751591116E+00 -0.28068788335E+00  0.37559468035E+01  0.37682531852E+01  0.00000000000E+00 0. -1.
</event>
<event>
 5    1  0.3269840E+002  0.1573873E+01  0.7818608E-02  0.3382218E+00
         11   -1    0    0    0    0  0.00000000000E+00  0.00000000000E+00  0.39999999674E+01  0.40000000000E+01  0.51100000000E-03 0.  1.
    9000002   -1    0    0    0    0 -0.00000000000E+00 -0.00000000000E+00  0.00000000000E+00  0.93800000000E+00  0.93800000000E+00 0. -1.
         11    1    1    2    0    0  0.10533028299E+00 -0.20407331171E+00  0.13067644820E+01  0.13267908869E+01  0.51100000000E-03 0.  1.
    9000002    1    1    2    0    0  0.97454213648E-01  0.25405957901E+00  0.69464613585E-01  0.97913886961E+00  0.93800000000E+00 0. -1.
         22    1    1    2    0    0 -0.20278449664E+00 -0.49986267304E-01  0.26237708718E+01  0.26320702435E+01  0.00000000000E+00 0.  1.
</event>
<event>
 5    1  0.3269840E+002  0.1599502E+01  0.7818608E-02  0.3353904E+00
         11   -1    0    0    0    0  0.00000000000E+00  0.00000000000E+00  0.39999999674E+01  0.40000000000E+01  0.51100000000E-03 0.  1.
    9000002   -1    0    0    0    0 -0.00000000000E+00 -0.00000000000E+00  0.00000000000E+00  0.93800000000E+00  0.93800000000E+00 0. -1.
         11    1    1    2    0    0 -0.21365405074E-02  0.12181931780E-02  0.18982779275E-01  0.19148259189E-01  0.51100000000E-03 0.  1.
    9000002    1    1    2    0    0  0.32484806778E+00  0.17776204817E+00  0.92299630321E-01  0.10126642260E+01  0.93800000000E+00 0. -1.
         22    1    1    2    0    0 -0.32271152727E+00 -0.17898024135E+00  0.38887175578E+01  0.39061875148E+01  0.00000000000E+00 0.  1.
</event>
<event>
 5    1  0.3269840E+002  0.1599667E+01  0.7818608E-02  0.3353724E+00
         11   -1    0    0    0    0  0.00000000000E+00  0.00000000000E+00  0.39999999674E+01  0.40000000000E+01  0.51100000000E-03 0.  1.
    9000002   -1    0    0    0    0 -0.00000000000E+00 -0.00000000000E+00  0.00000000000E+00  0.93800000000E+00  0.93800000000E+00 0.  1.
         11    1    1    2    0    0  0.62545468767E-01  0.18850206645E-01  0.84978235288E+00  0.85228960708E+00  0.51100000000E-03 0.  1.
    9000002    1    1    2    0    0 -0.30137717837E+00 -0.79447506427E-01  0.64882800863E-01  0.99055231450E+00  0.93800000000E+00 0.  1.
         22    1    1    2    0    0  0.23883170960E+00  0.60597299782E-01  0.30853348136E+01  0.30951580784E+01  0.00000000000E+00 0.  1.
</event>
<event>
 5    1  0.3269840E+002  0.1597409E+01  0.7818608E-02  0.3356180E+00
         11   -1    0    0    0    0  0.00000000000E+00  0.00000000000E+00  0.39999999674E+01  0.40000000000E+01  0.51100000000E-03 0.  1.
    9000002   -1    0    0    0    0 -0.00000000000E+00 -0.00000000000E+00  0.00000000000E+00  0.93800000000E+00  0.93800000000E+00 0. -1.
         11    1    1    2    0    0  0.18765397118E-01  0.28625253934E-01  0.45518116245E+00  0.45646653444E+00  0.51100000000E-03 0.  1.
    9000002    1    1    2    0    0  0.15460621632E+00 -0.24265027716E+00  0.56929261675E-01  0.98278541909E+00  0.93800000000E+00 0. -1.
         22    1    1    2    0    0 -0.17337161344E+00  0.21402502323E+00  0.34878895432E+01  0.34987480465E+01  0.00000000000E+00 0.  1.
</event>
<event>
 5    1  0.3269840E+002  0.1379931E+01  0.7818608E-02  0.3639591E+00
         11   -1    0    0    0    0  0.00000000000E+00  0.00000000000E+00  0.39999999674E+01  0.40000000000E+01  0.51100000000E-03 0. -1.
    9000002   -1    0    0    0    0 -0.00000000000E+00 -0.00000000000E+00  0.00000000000E+00  0.93800000000E+00  0.93800000000E+00 0.  1.
         11    1    1    2    0    0 -0.37471728581E+00 -0.17885484364E+00  0.28105535140E+01  0.28410585027E+01  0.51100000000E-03 0. -1.
    9000002    1    1    2    0    0 -0.14892630163E+00  0.58490183129E-01  0.20196066863E+00  0.97274470264E+00  0.93800000000E+00 0.  1.
         22    1    1    2    0    0  0.52364358743E+00  0.12036466052E+00  0.98748578474E+00  0.11241967947E+01  0.00000000000E+00 0. -1.
</event>
<event>
 5    1  0.3269840E+002  0.1596572E+01  0.7818608E-02  0.3357092E+00
         11   -1    0    0    0    0  0.00000000000E+00  0.00000000000E+00  0.39999999674E+01  0.40000000000E+01  0.51100000000E-03 0. -1.
    9000002   -1    0    0    0    0 -0.00000000000E+00 -0.00000000000E+00  0.00000000000E+00  0.93800000000E+00  0.93800000000E+00 0. -1.
         11    1    1    2    0    0  0.15971877947E-01  0.13238182529E+00  0.56929343702E+00  0.58470105789E+00  0.51100000000E-03 0. -1.
    9000002    1    1    2    0    0 -0.39348822579E+00 -0.80574796935E+00  0.61935101479E+00  0.14378812376E+01  0.93800000000E+00 0. -1.
         22    1    1    2    0    0  0.37751634785E+00  0.67336614406E+00  0.28113555156E+01  0.29154177045E+01  0.00000000000E+00 0. -1.
</event>
<event>
 5    1  0.3269840E+002  0.1599659E+01  0.7818608E-02  0.3353733E+00
         11   -1    0    0    0    0  0.00000000000E+00  0.00000000000E+00  0.39999999674E+01  0.40000000000E+01  0.51100000000E-03 0. -1.
    9000002   -1    0    0    0    0 -0.00000000000E+00 -0.00000000000E+00  0.00000000000E+00  0.93800000000E+00  0.93800000000E+00 0. -1.
         11    1    1    2    0    0 -0.24444441310E-01 -0.53573843749E-01  0.56381101943E+00  0.56687812993E+00  0.51100000000E-03 0. -1.
    9000002    1    1    2    0    0  0.18866560911E+00  0.38165366192E+00  0.12269436091E+00  0.10373775282E+01  0.93800000000E+00 0. -1.
         22    1    1    2    0    0 -0.16422116780E+00 -0.32807981818E+00  0.33134945870E+01  0.33337443419E+01  0.00000000000E+00 0. -1.
</event>
<event>
 5    1  0.3269840E+002  0.1599676E+01  0.7818608E-02  0.3353716E+00
         11   -1    0    0    0    0  0.00000000000E+00  0.00000000000E+00  0.39999999674E+01  0.40000000000E+01  0.51100000000E-03 0. -1.
    9000002   -1    0    0    0    0 -0.00000000000E+00 -0.00000000000E+00  0.00000000000E+00  0.93800000000E+00  0.93800000000E+00 0. -1.
         11    1    1    2    0    0 -0.33375376483E+00 -0.18373742223E+00  0.23008421350E+01  0.23321719077E+01  0.51100000000E-03 0. -1.
    9000002    1    1    2    0    0  0.54220836590E+00  0.29594029780E+00  0.26725364287E+00  0.11544865012E+01  0.93800000000E+00 0. -1.
         22    1    1    2    0    0 -0.20845460107E+00 -0.11220287558E+00  0.14319041895E+01  0.14513415911E+01  0.00000000000E+00 0. -1.
</event>
<event>
 5    1  0.3269840E+002  0.1599677E+01  0.7818608E-02  0.3353714E+00
         11   -1    0    0    0    0  0.00000000000E+00  0.00000000000E+00  0.39999999674E+01  0.40000000000E+01  0.51100000000E-03 0. -1.
    9000002   -1    0    0    0    0 -0.00000000000E+00 -0.00000000000E+00  0.00000000000E+00  0.93800000000E+00  0.93800000000E+00 0.  1.
         11    1    1    2    0    0 -0.63511459583E-01  0.17642108215E+00  0.15732414735E+01  0.15843759335E+01  0.51100000000E-03 0. -1.
    9000002    1    1    2    0    0  0.15721615637E+00 -0.43130418470E+00  0.14332560589E+00  0.10540998287E+01  0.93800000000E+00 0.  1.
         22    1    1    2    0    0 -0.93704696786E-01  0.25488310255E+00  0.22834328880E+01  0.22995242378E+01  0.00000000000E+00 0. -1.
</event>
<event>
 5    1  0.3269840E+002  0.1599672E+01  0.7818608E-02  0.3353719E+00
         11   -1    0    0    0    0  0.00000000000E+00  0.00000000000E+00  0.39999999674E+01  0.40000000000E+01  0.51100000000E-03 0. -1.
    9000002   -1    0    0    0    0 -0.00000000000E+00 -0.00000000000E+00  0.00000000000E+00  0.93800000000E+00  0.93800000000E+00 0.  1.
         11    1    1    2    0    0 -0.33909010510E-02  0.24533576156E-01  0.29633154965E+00  0.29736516778E+00  0.51100000000E-03 0. -1.
    9000002    1    1    2    0    0  0.50434333261E-01 -0.30906919908E+00  0.65507788183E-01  0.99106138160E+00  0.93800000000E+00 0.  1.
         22    1    1    2    0    0 -0.47043432210E-01  0.28453562292E+00  0.36381606295E+01  0.36495734506E+01  0.00000000000E+00 0. -1.
</event>
<event>
 5    1  0.3269840E+002  0.1599676E+01  0.7818608E-02  0.3353715E+00
         11   -1    0    0    0    0  0.00000000000E+00  0.00000000000E+00  0.39999999674E+01  0.40000000000E+01  0.51100000000E-03 0. -1.
    9000002   -1    0    0    0    0 -0.00000000000E+00 -0.00000000000E+00  0.00000000000E+00  0.93800000000E+00  0.93800000000E+00 0.  1.
         11    1    1    2    0    0  0.12906769348E+00  0.93995127181E-01  0.13900553321E+01  0.13991953548E+01  0.51100000000E-03 0. -1.
    9000002    1    1    2    0    0 -0.35998452938E+00 -0.25924597446E+00  0.13353746644E+00  0.10461709189E+01  0.93800000000E+00 0.  1.
         22    1    1    2    0    0  0.23091683590E+00  0.16525084728E+00  0.24764071688E+01  0.24926337263E+01  0.00000000000E+00 0. -1.
</event>
<event>
 5    1  0.3269840E+002  0.1599521E+01  0.7818608E-02  0.3353883E+00
         11   -1    0    0    0    0  0.00000000000E+00  0.00000000000E+00  0.39999999674E+01  0.40000000000E+01  0.51100000000E-03 0. -1.
    9000002   -1    0    0    0    0 -0.00000000000E+00 -0.00000000000E+00  0.00000000000E+00  0.93800000000E+00  0.93800000000E+00 0. -1.
         11    1    1    2    0    0 -0.41479268328E+00  0.48800362100E+00  0.22529812646E+01  0.23422479254E+01  0.51100000000E-03 0. -1.
    9000002    1    1    2    0    0  0.61181214841E+00 -0.69994717348E+00  0.67065555622E+00  0.14811694791E+01  0.93800000000E+00 0. -1.
         22    1    1    2    0    0 -0.19701946513E+00  0.21194355248E+00  0.10763631465E+01  0.11145825956E+01  0.00000000000E+00 0.  1.
</event>
<event>
 5    1  0.3269840E+002  0.1599433E+01  0.7818608E-02  0.3353979E+00
         11   -1    0    0    0    0  0.00000000000E+00  0.00000000000E+00  0.39999999674E+01  0.40000000000E+01  0.51100000000E-03 0.  1.
    9000002   -1    0    0    0    0 -0.00000000000E+00 -0.00000000000E+00  0.00000000000E+00  0.93800000000E+00  0.93800000000E+00 0.  1.
         11    1    1    2    0    0 -0.13589809082E-01 -0.22047751179E-01  0.30642148801E+00  0.30751451296E+00  0.51100000000E-03 0.  1.
    9000002    1    1    2    0    0  0.18422087089E+00  0.15550511859E+00  0.38767695543E-01  0.96926059726E+00  0.93800000000E+00 0.  1.
         22    1    1    2    0    0 -0.17063106181E+00 -0.13345736741E+00  0.36548107838E+01  0.36612248898E+01  0.00000000000E+00 0.  1.
</event>
<event>
 5    1  0.3269840E+002  0.1599571E+01  0.7818608E-02  0.3353829E+00
         11   -1    0    0    0    0  0.00000000000E+00  0.00000000000E+00  0.39999999674E+01  0.40000000000E+01  0.51100000000E-03 0. -1.
    9000002   -1    0    0    0    0 -0.00000000000E+00 -0.00000000000E+00  0.00000000000E+00  0.93800000000E+00  0.93800000000E+00 0.  1.
         11    1    1    2    0    0  0.33883407496E+00  0.17636250709E-01  0.82537355656E+00  0.89239079818E+00  0.51100000000E-03 0. -1.
    9000002    1    1    2    0    0 -0.11419155932E+01 -0.95444794740E-01  0.11784223694E+01  0.18925126714E+01  0.93800000000E+00 0.  1.
         22    1    1    2    0    0  0.80308151819E+00  0.77808544030E-01  0.19962040414E+01  0.21530965304E+01  0.00000000000E+00 0. -1.
</event>
<event>
 5    1  0.3269840E+002  0.1599677E+01  0.7818608E-02  0.3353714E+00
         11   -1    0    0    0    0  0.00000000000E+00  0.00000000000E+00  0.39999999674E+01  0.40000000000E+01  0.51100000000E-03 0. -1.
    9000002   -1    0    0    0    0 -0.00000000000E+00 -0.00000000000E+00  0.00000000000E+00  0.93800000000E+00  0.93800000000E+00 0.  1.
         11    1    1    2    0    0 -0.17802789064E+00 -0.32865907190E-01  0.16980919678E+01  0.17077150494E+01  0.51100000000E-03 0. -1.
    9000002    1    1    2    0    0  0.40728001939E+00  0.73860755182E-01  0.11577823630E+00  0.10317853582E+01  0.93800000000E+00 0.  1.
         22    1    1    2    0    0 -0.22925212875E+00 -0.40994847991E-01  0.21861297633E+01  0.21984995924E+01  0.00000000000E+00 0. -1.
</event>
<event>
 5    1  0.3269840E+002  0.1599661E+01  0.7818608E-02  0.3353732E+00
         11   -1    0    0    0    0  0.00000000000E+00  0.00000000000E+00  0.39999999674E+01  0.40000000000E+01  0.51100000000E-03 0.  1.
    9000002   -1    0    0    0    0 -0.00000000000E+00 -0.00000000000E+00  0.00000000000E+00  0.93800000000E+00  0.93800000000E+00 0.  1.
         11    1    1    2    0    0 -0.12656210944E+00 -0.99678481251E-01  0.70818142830E+00  0.72627471640E+00  0.51100000000E-03 0.  1.
    9000002    1    1    2    0    0  0.61856590669E+00  0.51184224437E+00  0.47531632671E+00  0.13230177151E+01  0.93800000000E+00 0.  1.
         22    1    1    2    0    0 -0.49200379724E+00 -0.41216376312E+00  0.28165022123E+01  0.28887075685E+01  0.00000000000E+00 0.  1.
</event>
<event>
 5    1  0.3269840E+002  0.1599668E+01  0.7818608E-02  0.3353723E+00
         11   -1    0    0    0    0  0.00000000000E+00  0.00000000000E+00  0.39999999674E+01  0.40000000000E+01  0.51100000000E-03 0. -1.
    9000002   -1    0    0    0    0 -0.00000000000E+00 -0.00000000000E+00  0.00000000000E+00  0.93800000000E+00  0.93800000000E+00 0. -1.
         11    1    1    2    0    0  0.55271636891E-03 -0.38007317097E+00  0.17561572710E+01  0.17968151108E+01  0.51100000000E-03 0. -1.
    9000002    1    1    2    0    0  0.25395030495E-02  0.77659181681E+00  0.44085175128E+00  0.12951044613E+01  0.93800000000E+00 0. -1.
         22    1    1    2    0    0 -0.30922194184E-02 -0.39651864584E+00  0.18029909451E+01  0.18460804280E+01  0.00000000000E+00 0. -1.
</event>
<event>
 5    1  0.3269840E+002  0.1599674E+01  0.7818608E-02  0.3353717E+00
         11   -1    0    0    0    0  0.00000000000E+00  0.00000000000E+00  0.39999999674E+01  0.40000000000E+01  0.51100000000E-03 0. -1.
    9000002   -1    0    0    0    0 -0.00000000000E+00 -0.00000000000E+00  0.00000000000E+00  0.93800000000E+00  0.93800000000E+00 0.  1.
         11    1    1    2    0    0 -0.41532011633E-01 -0.37219895269E-01  0.53068296912E+00  0.53360556916E+00  0.51100000000E-03 0. -1.
    9000002    1    1    2    0    0  0.29943932950E+00  0.26406664805E+00  0.10750732779E+00  0.10250838659E+01  0.93800000000E+00 0.  1.
         22    1    1    2    0    0 -0.25790731787E+00 -0.22684675278E+00  0.33618096704E+01  0.33793105649E+01  0.00000000000E+00 0. -1.
</event>
<event>
 5    1  0.3269840E+002  0.1591156E+01  0.7818608E-02  0.3363018E+00
         11   -1    0    0    0    0  0.00000000000E+00  0.00000000000E+00  0.39999999674E+01  0.40000000000E+01  0.51100000000E-03 0. -1.
    9000002   -1    0    0    0    0 -0.00000000000E+00 -0.00000000000E+00  0.00000000000E+00  0.93800000000E+00  0.93800000000E+00 0.  1.
         11    1    1    2    0    0 -0.12086684208E+00 -0.18989456048E-01  0.17025801986E+01  0.17069707047E+01  0.51100000000E-03 0. -1.
    9000002    1    1    2    0    0  0.17439363788E+00 -0.18812967181E+00  0.50295280777E-01  0.97374510505E+00  0.93800000000E+00 0.  1.
         22    1    1    2    0    0 -0.53526795797E-01  0.20711912786E+00  0.22471244880E+01  0.22572841902E+01  0.00000000000E+00 0. -1.
</event>
<event>
 5    1  0.3269840E+002  0.1599495E+01  0.7818608E-02  0.3353912E+00
         11   -1    0    0    0    0  0.00000000000E+00  0.00000000000E+00  0.39999999674E+01  0.40000000000E+01  0.51100000000E-03 0. -1.
    9000002   -1    0    0    0    0 -0.00000000000E+00 -0.00000000000E+00  0.00000000000E+00  0.93800000000E+00  0.93800000000E+00 0. -1.
         11    1    1    2    0    0 -0.40440821654E-01  0.13307079668E+00  0.17336153622E+01  0.17391853789E+01  0.51100000000E-03 0. -1.
    9000002    1    1    2    0    0  0.83924432601E-01 -0.33666286785E+00  0.80839257865E-01  0.10033763913E+01  0.93800000000E+00 0. -1.
         22    1    1    2    0    0 -0.43483610947E-01  0.20359207118E+00  0.21855453473E+01  0.21954382298E+01  0.00000000000E+00 0. -1.
</event>
<event>
 5    1  0.3269840E+002  0.1599490E+01  0.7818608E-02  0.3353917E+00
         11   -1    0    0    0    0  0.00000000000E+00  0.00000000000E+00  0.39999999674E+01  0.40000000000E+01  0.51100000000E-03 0. -1.
    9000002   -1    0    0    0    0 -0.00000000000E+00 -0.00000000000E+00  0.00000000000E+00  0.93800000000E+00  0.93800000000E+00 0. -1.
         11    1    1    2    0    0  0.15886165172E+00  0.40576718504E-01  0.17666926160E+01  0.17742848010E+01  0.51100000000E-03 0. -1.
    9000002    1    1    2    0    0 -0.37498807588E+00 -0.11604531767E+00  0.10398790488E+00  0.10221252649E+01  0.93800000000E+00 0. -1.
         22    1    1    2    0    0  0.21612642416E+00  0.75468599167E-01  0.21293194464E+01  0.21415899341E+01  0.00000000000E+00 0. -1.
</event>
<event>
 5    1  0.3269840E+002  0.1599667E+01  0.7818608E-02  0.3353725E+00
         11   -1    0    0    0    0  0.00000000000E+00  0.00000000000E+00  0.39999999674E+01  0.40000000000E+01  0.51100000000E-03 0.  1.
    9000002   -1    0    0    0    0 -0.00000000000E+00 -0.00000000000E+00  0.00000000000E+00  0.93800000000E+00  0.93800000000E+00 0. -1.
         11    1    1    2    0    0  0.53148860951E-01  0.49672086877E-01  0.78682195446E+00  0.79017793362E+00  0.51100000000E-03 0.  1.
    9000002    1    1    2    0    0 -0.25844977587E+00 -0.26090364530E+00  0.90614856098E-01  0.10113960900E+01  0.93800000000E+00 0. -1.
         22    1    1    2    0    0  0.20530091492E+00  0.21123155842E+00  0.31225631568E+01  0.31364259764E+01  0.00000000000E+00 0.  1.
</event>
<event>
 5    1  0.3269840E+002  0.1599674E+01  0.7818608E-02  0.3353718E+00
         11   -1    0    0    0    0  0.00000000000E+00  0.00000000000E+00  0.39999999674E+01  0.40000000000E+01  0.51100000000E-03 0. -1.
    9000002   -1    0    0    0    0 -0.00000000000E+00 -0.00000000000E+00  0.00000000000E+00  0.93800000000E+00  0.93800000000E+00 0. -1.
         11    1    1    2    0    0 -0.23301225094E-01 -0.29362148453E-01  0.50620072651E+00  0.50758695757E+00  0.51100000000E-03 0.  1.
    9000002    1    1    2    0    0  0.18155835824E+00  0.21806946673E+00  0.53638047617E-01  0.98144728331E+00  0.93800000000E+00 0. -1.
         22    1    1    2    0    0 -0.15825713315E+00 -0.18870731827E+00  0.34401611932E+01  0.34489657591E+01  0.00000000000E+00 0. -1.
</event>
<event>
 5    1  0.3269840E+002  0.1578499E+01  0.7818608E-02  0.3377036E+00
         11   -1    0    0    0    0  0.00000000000E+00  0.00000000000E+00  0.39999999674E+01  0.40000000000E+01  0.51100000000E-03 0. -1.
    9000002   -1    0    0    0    0 -0.00000000000E+00 -0.00000000000E+00  0.00000000000E+00  0.93800000000E+00  0.93800000000E+00 0.  1.
         11    1    1    2    0    0  0.17773049008E+00  0.93246658974E-01  0.15427939740E+01  0.15557945153E+01  0.51100000000E-03 0. -1.
    9000002    1    1    2    0    0 -0.24335245949E+00  0.14454639064E+00  0.69982628918E-01  0.98227065870E+00  0.93800000000E+00 0.  1.
         22    1    1    2    0    0  0.65621969415E-01 -0.23779304961E+00  0.23872233645E+01  0.23999348260E+01  0.00000000000E+00 0. -1.
</event>
<event>
 5    1  0.3269840E+002  0.1596285E+01  0.7818608E-02  0.3357406E+00
         11   -1    0    0    0    0  0.00000000000E+00  0.00000000000E+00  0.39999999674E+01  0.40000000000E+01  0.51100000000E-03 0.  1.
    9000002   -1    0    0    0    0 -0.00000000000E+00 -0.00000000000E+00  0.00000000000E+00  0.93800000000E+00  0.93800000000E+00 0.  1.
         11    1    1    2    0    0 -0.10700625948E-01 -0.86081381099E-01  0.15929164371E+01  0.15952766357E+01  0.51100000000E-03 0.  1.
    9000002    1    1    2    0    0  0.10877805578E+00  0.35884145876E+00  0.97324273248E-01  0.10148477088E+01  0.93800000000E+00 0.  1.
         22    1    1    2    0    0 -0.98077429829E-01 -0.27276007766E+00  0.23097592570E+01  0.23278756555E+01  0.00000000000E+00 0.  1.
</event>
<event>
 5    1  0.3269840E+002  0.1564509E+01  0.7818608E-02  0.3392809E+00
         11   -1    0    0    0    0  0.00000000000E+00  0.00000000000E+00  0.39999999674E+01  0.40000000000E+01  0.51100000000E-03 0.  1.
    9000002   -1    0    0    0    0 -0.00000000000E+00 -0.00000000000E+00  0.00000000000E+00  0.93800000000E+00  0.93800000000E+00 0. -1.
         11    1    1    2    0    0  0.16746766849E+00  0.15814802337E+00  0.19414581555E+01  0.19550744865E+01  0.51100000000E-03 0.  1.
    9000002    1    1    2    0    0  0.86846972585E-01 -0.15474714148E+00  0.47451450822E-01  0.95581625568E+00  0.93800000000E+00 0. -1.
         22    1    1    2    0    0 -0.25431464107E+00 -0.34008818944E-02  0.20110903611E+01  0.20271092578E+01  0.00000000000E+00 0.  1.
</event>
<event>
 5    1  0.3269840E+002  0.1599553E+01  0.7818608E-02  0.3353849E+00
         11   -1    0    0    0    0  0.00000000000E+00  0.00000000000E+00  0.39999999674E+01  0.40000000000E+01  0.51100000000E-03 0. -1.
    9000002   -1    0    0    0    0 -0.00000000000E+00 -0.00000000000E+00  0.00000000000E+00  0.93800000000E+00  0.93800000000E+00 0. -1.
         11    1    1    2    0    0 -0.22514033515E-01 -0.28679387606E-01  0.31722266396E+00  0.31931155417E+00  0.51100000000E-03 0. -1.
    9000002    1    1    2    0    0  0.20931177044E+00  0.29432793109E+00  0.87671923581E-01  0.10089453476E+01  0.93800000000E+00 0. -1.
         22    1    1    2    0    0 -0.18679773692E+00 -0.26564854348E+00  0.35951053798E+01  0.36097430982E+01  0.00000000000E+00 0. -1.
</event>
<event>
 5    1  0.3269840E+002  0.1599676E+01  0.7818608E-02  0.3353716E+00
         11   -1    0    0    0    0  0.00000000000E+00  0.00000000000E+00  0.39999999674E+01  0.40000000000E+01  0.51100000000E-03 0. -1.
    9000002   -1    0    0    0    0 -0.00000000000E+00 -0.00000000000E+00  0.00000000000E+00  0.93800000000E+00  0.93800000000E+00 0.  1.
         11    1    1    2    0    0  0.45204670911E-01 -0.21914535189E-01  0.60869720724E+00  0.61076694438E+00  0.51100000000E-03 0. -1.
    9000002    1    1    2    0    0 -0.29016513864E+00  0.14767780260E+00  0.70894550267E-01  0.99542683223E+00  0.93800000000E+00 0.  1.
         22    1    1    2    0    0  0.24496046773E+00 -0.12576326741E+00  0.33204082099E+01  0.33318062234E+01  0.00000000000E+00 0. -1.
</event>
<event>
 5    1  0.3269840E+002  0.1508709E+01  0.7818608E-02  0.3458826E+00
         11   -1    0    0    0    0  0.00000000000E+00  0.00000000000E+00  0.39999999674E+01  0.40000000000E+01  0.51100000000E-03 0.  1.
    9000002   -1    0    0    0    0 -0.00000000000E+00 -0.00000000000E+00  0.00000000000E+00  0.93800000000E+00  0.93800000000E+00 0.  1.
         11    1    1    2    0    0  0.26444338064E+00  0.18366360449E+00  0.14215782457E+01  0.14575827904E+01  0.51100000000E-03 0.  1.
    9000002    1    1    2    0    0  0.95541726166E-01 -0.10106286638E-01  0.75647618575E-01  0.94593705957E+00  0.93800000000E+00 0.  1.
         22    1    1    2    0    0 -0.35998510680E+00 -0.17355731785E+00  0.25027741031E+01  0.25344801500E+01  0.00000000000E+00 0.  1.
</event>
<event>
 5    1  0.3269840E+002  0.1552515E+01  0.7818608E-02  0.3406571E+00
         11   -1    0    0    0    0  0.00000000000E+00  0.00000000000E+00  0.39999999674E+01  0.40000000000E+01  0.51100000000E-03 0. -1.
    9000002   -1    0    0    0    0 -0.00000000000E+00 -0.00000000000E+00  0.00000000000E+00  0.93800000000E+00  0.93800000000E+00 0.  1.
         11    1    1    2    0    0  0.49717815816E-01 -0.22874876202E+00  0.12536923075E+01  0.12753597612E+01  0.51100000000E-03 0. -1.
    9000002    1    1    2    0    0 -0.11833089876E+00 -0.45228403645E-01  0.46032506337E-01  0.94763431857E+00  0.93800000000E+00 0.  1.
         22    1    1    2    0    0  0.68613082941E-01  0.27397716566E+00  0.27002751535E+01  0.27150059203E+01  0.00000000000E+00 0. -1.
</event>
<event>
 5    1  0.3269840E+002  0.1547546E+01  0.7818608E-02  0.3412340E+00
         11   -1    0    0    0    0  0.00000000000E+00  0.00000000000E+00  0.39999999674E+01  0.40000000000E+01  0.51100000000E-03 0.  1.
    9000002   -1    0    0    0    0 -0.00000000000E+00 -0.00000000000E+00  0.00000000000E+00  0.93800000000E+00  0.93800000000E+00 0.  1.
         11    1    1    2    0    0 -0.29694337450E-02 -0.25507470273E+00  0.11458061742E+01  0.11738585824E+01  0.51100000000E-03 0.  1.
    9000002    1    1    2    0    0 -0.42723635508E+00  0.13315588249E+00  0.18237166670E+00  0.10551610384E+01  0.93800000000E+00 0.  1.
         22    1    1    2    0    0  0.43020578882E+00  0.12191882024E+00  0.26718221264E+01  0.27089803792E+01  0.00000000000E+00 0.  1.
</event>
<event>
 5    1  0.3269840E+002  0.1599638E+01  0.7818608E-02  0.3353756E+00
         11   -1    0    0    0    0  0.00000000000E+00  0.00000000000E+00  0.39999999674E+01  0.40000000000E+01  0.51100000000E-03 0. -1.
    9000002   -1    0    0    0    0 -0.00000000000E+00 -0.00000000000E+00  0.00000000000E+00  0.93800000000E+00  0.93800000000E+00 0.  1.
         11    1    1    2    0    0  0.17313875175E-01 -0.46356284555E-01  0.72170656217E+00  0.72340120154E+00  0.51100000000E-03 0. -1.
    9000002    1    1    2    0    0 -0.10668277422E+00  0.28234006273E+00  0.60812857478E-01  0.98723823314E+00  0.93800000000E+00 0.  1.
         22    1    1    2    0    0  0.89368899044E-01 -0.23598377817E+00  0.32174805477E+01  0.32273605653E+01  0.00000000000E+00 0. -1.
</event>
<event>
 5    1  0.3269840E+002  0.1597986E+01  0.7818608E-02  0.3355552E+00
         11   -1    0    0    0    0  0.00000000000E+00  0.00000000000E+00  0.39999999674E+01  0.40000000000E+01  0.51100000000E-03 0. -1.
    9000002   -1    0    0    0    0 -0.00000000000E+00 -0.00000000000E+00  0.00000000000E+00  0.93800000000E+00  0.93800000000E+00 0. -1.
         11    1    1    2    0    0 -0.24081880527E+00 -0.15713469184E+00  0.11024142224E+01  0.11392990772E+01  0.51100000000E-03 0. -1.
    9000002    1    1    2    0    0  0.62104761910E+00  0.50505032302E+00  0.47428138364E+00  0.13211974890E+01  0.93800000000E+00 0. -1.
         22    1    1    2    0    0 -0.38022881383E+00 -0.34791563118E+00  0.24233043613E+01  0.24775034339E+01  0.00000000000E+00 0. -1.
</event>
<event>
 5    1  0.3269840E+002  0.1599675E+01  0.7818608E-02  0.3353716E+00
         11   -1    0    0    0    0  0.00000000000E+00  0.00000000000E+00  0.39999999674E+01  0.40000000000E+01  0.51100000000E-03 0.  1.
    9000002   -1    0    0    0    0 -0.00000000000E+00 -0.00000000000E+00  0.00000000000E+00  0.93800000000E+00  0.93800000000E+00 0.  1.
         11    1    1    2    0    0 -0.25342780914E-01 -0.13753184338E-01  0.43794727484E+00  0.43889575446E+00  0.51100000000E-03 0.  1.
    9000002    1    1    2    0    0  0.22218406237E+00  0.11941953668E+00  0.42275311537E-01  0.97224378902E+00  0.93800000000E+00 0.  1.
         22    1    1    2    0    0 -0.19684128146E+00 -0.10566635235E+00  0.35197773810E+01  0.35268604565E+01  0.00000000000E+00 0.  1.
</event>
<event>
 5    1  0.3269840E+002  0.1599213E+01  0.7818608E-02  0.3354218E+00
         11   -1    0    0    0    0  0.00000000000E+00  0.00000000000E+00  0.39999999674E+01  0.40000000000E+01  0.51100000000E-03 0.  1.
    9000002   -1    0    0    0    0 -0.00000000000E+00 -0.00000000000E+00  0.00000000000E+00  0.93800000000E+00  0.93800000000E+00 0.  1.
         11    1    1    2    0    0 -0.49773774073E-01 -0.94428983571E-02  0.77578547569E+00  0.77743807620E+00  0.51100000000E-03 0.  1.
    9000002    1    1    2    0    0  0.32184400848E+00 -0.30133312249E-01  0.70232536670E-01  0.99461962152E+00  0.93800000000E+00 0.  1.
         22    1    1    2    0    0 -0.27207023441E+00  0.39576210606E-01  0.31539819550E+01  0.31659423023E+01  0.00000000000E+00 0.  1.
</event>
<event>
 5    1  0.3269840E+002  0.1599642E+01  0.7818608E-02  0.3353752E+00
         11   -1    0    0    0    0  0.00000000000E+00  0.00000000000E+00  0.39999999674E+01  0.40000000000E+01  0.51100000000E-03 0. -1.
    9000002   -1    0    0    0    0 -0.00000000000E+00 -0.00000000000E+00  0.00000000000E+00  0.93800000000E+00  0.93800000000E+00 0. -1.
         11    1    1    2    0    0 -0.24011509987E-01  0.47151479501E-02  0.29752056570E+00  0.29852559918E+00  0.51100000000E-03 0. -1.
    9000002    1    1    2    0    0  0.34214828030E+00 -0.10361630142E+00  0.85792179665E-01  0.10074751023E+01  0.93800000000E+00 0. -1.
         22    1    1    2    0    0 -0.31813677032E+00  0.98901153474E-01  0.36166872220E+01  0.36319992985E+01  0.00000000000E+00 0. -1.
</event>
<event>
 5    1  0.3269840E+002  0.1599677E+01  0.7818608E-02  0.3353714E+00
         11   -1    0    0    0    0  0.00000000000E+00  0.00000000000E+00  0.39999999674E+01  0.40000000000E+01  0.51100000000E-03 0. -1.
    9000002   -1    0    0    0    0 -0.00000000000E+00 -0.00000000000E+00  0.00000000000E+00  0.93800000000E+00  0.93800000000E+00 0.  1.
         11    1    1    2    0    0 -0.19669887576E+00  0.20565890142E+00  0.21549748035E+01  0.21736841298E+01  0.51100000000E-03 0. -1.
    9000002    1    1    2    0    0  0.35025070643E+00 -0.36422639672E+00  0.17494933938E+00  0.10797164891E+01  0.93800000000E+00 0.  1.
         22    1    1    2    0    0 -0.15355183067E+00  0.15856749530E+00  0.16700758245E+01  0.16845993811E+01  0.00000000000E+00 0. -1.
</event>
<event>
 5    1  0.3269840E+002  0.1599668E+01  0.7818608E-02  0.3353724E+00
         11   -1    0    0    0    0  0.00000000000E+00  0.00000000000E+00  0.39999999674E+01  0.40000000000E+01  0.51100000000E-03 0.  1.
    9000002   -1    0    0    0    0 -0.00000000000E+00 -0.00000000000E+00  0.00000000000E+00  0.93800000000E+00  0.93800000000E+00 0.  1.
         11    1    1    2    0    0 -0.58987745643E+00 -0.72309588351E-01  0.25387178058E+01  0.26073496982E+01  0.51100000000E-03 0.  1.
    9000002    1    1    2    0    0  0.81521667043E+00  0.95652442355E-01  0.49989556846E+00  0.13429323098E+01  0.93800000000E+00 0.  1.
         22    1    1    2    0    0 -0.22533921400E+00 -0.23342854004E-01  0.96138659307E+00  0.98771799190E+00  0.00000000000E+00 0.  1.
</event>
<event>
 5    1  0.3269840E+002  0.1599354E+01  0.7818608E-02  0.3354065E+00
         11   -1    0    0    0    0  0.00000000000E+00  0.00000000000E+00  0.39999999674E+01  0.40000000000E+01  0.51100000000E-03 0.  1.
    9000002   -1    0    0    0    0 -0.00000000000E+00 -0.00000000000E+00  0.00000000000E+00  0.93800000000E+00  0.93800000000E+00 0.  1.
         11    1    1    2    0    0 -0.34711550815E-01 -0.66650540546E-01  0.49983781483E+00  0.50545552580E+00  0.51100000000E-03 0.  1.
    9000002    1    1    2    0    0  0.21472303067E+00  0.59707116119E+00  0.28339248611E+00  0.11673710861E+01  0.93800000000E+00 0.  1.
         22    1    1    2    0    0 -0.18001147985E+00 -0.53042062064E+00  0.32167696664E+01  0.32651733881E+01  0.00000000000E+00 0.  1.
</event>
<event>
 5    1  0.3269840E+002  0.1599670E+01  0.7818608E-02  0.3353721E+00
         11   -1    0    0    0    0  0.00000000000E+00  0.00000000000E+00  0.39999999674E+01  0.40000000000E+01  0.51100000000E-03 0.  1.
    9000002   -1    0    0    0    0 -0.00000000000E+00 -0.00000000000E+00  0.00000000000E+00  0.93800000000E+00  0.93800000000E+00 0.  1.
         11    1    1    2    0    0  0.50010422136E-01  0.84909756664E-01  0.70908422553E+00  0.71589902159E+00  0.51100000000E-03 0.  1.
    9000002    1    1    2    0    0 -0.27878636392E+00 -0.46233843089E+00  0.20094950054E+00  0.11007739837E+01  0.93800000000E+00 0.  1.
         22    1    1    2    0    0  0.22877594179E+00  0.37742867423E+00  0.30899662413E+01  0.31213269947E+01  0.00000000000E+00 0.  1.
</event>
<event>
 5    1  0.3269840E+002  0.1599672E+01  0.7818608E-02  0.3353719E+00
         11   -1    0    0    0    0  0.00000000000E+00  0.00000000000E+00  0.39999999674E+01  0.40000000000E+01  0.51100000000E-03 0.  1.
    9000002   -1    0    0    0    0 -0.00000000000E+00 -0.00000000000E+00  0.00000000000E+00  0.93800000000E+00  0.93800000000E+00 0.  1.
         11    1    1    2    0    0  0.37122117597E-02 -0.93626409681E-03  0.65391451852E-01  0.65505421172E-01  0.51100000000E-03 0.  1.
    9000002    1    1    2    0    0 -0.23580456419E+00  0.32386268042E-01  0.37603712453E-01  0.96845789895E+00  0.93800000000E+00 0.  1.
         22    1    1    2    0    0  0.23209235243E+00 -0.31450003945E-01  0.38970048031E+01  0.39040366799E+01  0.00000000000E+00 0.  1.
</event>
<event>
 5    1  0.3269840E+002  0.1599677E+01  0.7818608E-02  0.3353714E+00
         11   -1    0    0    0    0  0.00000000000E+00  0.00000000000E+00  0.39999999674E+01  0.40000000000E+01  0.51100000000E-03 0. -1.
    9000002   -1    0    0    0    0 -0.00000000000E+00 -0.00000000000E+00  0.00000000000E+00  0.93800000000E+00  0.93800000000E+00 0.  1.
         11    1    1    2    0    0  0.40333766592E+00 -0.15021037097E+00  0.22746914228E+01  0.23150519990E+01  0.51100000000E-03 0. -1.
    9000002    1    1    2    0    0 -0.64824311590E+00  0.24197875188E+00  0.34143208449E+00  0.12145751199E+01  0.93800000000E+00 0.  1.
         22    1    1    2    0    0  0.24490544998E+00 -0.91768380906E-01  0.13838764601E+01  0.14083728810E+01  0.00000000000E+00 0.  1.
</event>
<event>
 5    1  0.3269840E+002  0.1511125E+01  0.7818608E-02  0.3455859E+00
         11   -1    0    0    0    0  0.00000000000E+00  0.00000000000E+00  0.39999999674E+01  0.40000000000E+01  0.51100000000E-03 0. -1.
    9000002   -1    0    0    0    0 -0.00000000000E+00 -0.00000000000E+00  0.00000000000E+00  0.93800000000E+00  0.93800000000E+00 0. -1.
         11    1    1    2    0    0  0.18910589754E+00 -0.94724603412E-01  0.65396461891E+00  0.68731635721E+00  0.51100000000E-03 0. -1.
    9000002    1    1    2    0    0  0.32661456869E+00 -0.11098195312E+00  0.15459498388E+00  0.10113049389E+01  0.93800000000E+00 0. -1.
         22    1    1    2    0    0 -0.51572046622E+00  0.20570655653E+00  0.31914403646E+01  0.32393787039E+01  0.00000000000E+00 0. -1.
</event>
<event>
 5    1  0.3269840E+002  0.1599613E+01  0.7818608E-02  0.3353784E+00
         11   -1    0    0    0    0  0.00000000000E+00  0.00000000000E+00  0.39999999674E+01  0.40000000000E+01  0.51100000000E-03 0.  1.
    9000002   -1    0    0    0    0 -0.00000000000E+00 -0.00000000000E+00  0.00000000000E+00  0.93800000000E+00  0.93800000000E+00 0. -1.
         11    1    1    2    0    0  0.72858404866E-02 -0.16170765945E-01  0.24460851567E+00  0.24525122671E+00  0.51100000000E-03 0.  1.
    9000002    1    1    2    0    0 -0.52002301707E-01  0.22697163189E+00  0.36021064009E-01  0.96714108491E+00  0.93800000000E+00 0. -1.
         22    1    1    2    0    0  0.44716461221E-01 -0.21080086594E+00  0.37193703877E+01  0.37256076884E+01  0.00000000000E+00 0.  1.
</event>
<event>
 5    1  0.3269840E+002  0.1572402E+01  0.7818608E-02  0.3383873E+00
         11   -1    0    0    0    0  0.00000000000E+00  0.00000000000E+00  0.39999999674E+01  0.40000000000E+01  0.51100000000E-03 0.  1.
    9000002   -1    0    0    0    0 -0.00000000000E+00 -0.00000000000E+00  0.00000000000E+00  0.93800000000E+00  0.93800000000E+00 0. -1.
         11    1    1    2    0    0 -0.11278167919E+00  0.29782521054E-01  0.21270027615E+01  0.21301989847E+01  0.51100000000E-03 0.  1.
    9000002    1    1    2    0    0 -0.12950715583E+00  0.90383301199E-01  0.36926327733E-01  0.95191848297E+00  0.93800000000E+00 0. -1.
         22    1    1    2    0    0  0.24228883502E+00 -0.12016582225E+00  0.18360708781E+01  0.18558825324E+01  0.00000000000E+00 0.  1.
</event>
<event>
 5    1  0.3269840E+002  0.1599669E+01  0.7818608E-02  0.3353722E+00
         11   -1    0    0    0    0  0.00000000000E+00  0.00000000000E+00  0.39999999674E+01  0.40000000000E+01  0.51100000000E-03 0.  1.
    9000002   -1    0    0    0    0 -0.00000000000E+00 -0.00000000000E+00  0.00000000000E+00  0.93800000000E+00  0.93800000000E+00 0.  1.
         11    1    1    2    0    0  0.87825153655E-01  0.48353079780E-01  0.13318755521E+01  0.13356436745E+01  0.51100000000E-03 0.  1.
    9000002    1    1    2    0    0 -0.26843517391E+00 -0.14587150419E+00  0.62303689094E-01  0.98846430790E+00  0.93800000000E+00 0.  1.
         22    1    1    2    0    0  0.18061002026E+00  0.97518424405E-01  0.26058207262E+01  0.26138920176E+01  0.00000000000E+00 0.  1.
</event>
<event>
 5    1  0.3269840E+002  0.1599676E+01  0.7818608E-02  0.3353715E+00
         11   -1    0    0    0    0  0.00000000000E+00  0.00000000000E+00  0.39999999674E+01  0.40000000000E+01  0.51100000000E-03 0.  1.
    9000002   -1    0    0    0    0 -0.00000000000E+00 -0.00000000000E+00  0.00000000000E+00  0.93800000000E+00  0.93800000000E+00 0. -1.
         11    1    1    2    0    0 -0.56687595349E-01 -0.39240258672E-01  0.98862147235E+00  0.99102268293E+00  0.51100000000E-03 0.  1.
    9000002    1    1    2    0    0  0.22946778673E+00  0.15867689579E+00  0.51826882469E-01  0.97998155501E+00  0.93800000000E+00 0. -1.
         22    1    1    2    0    0 -0.17278019138E+00 -0.11943663712E+00  0.29595516125E+01  0.29669957621E+01  0.00000000000E+00 0. -1.
</event>
<event>
 5    1  0.3269840E+002  0.1597200E+01  0.7818608E-02  0.3356408E+00
         11   -1    0    0    0    0  0.00000000000E+00  0.00000000000E+00  0.39999999674E+01  0.40000000000E+01  0.51100000000E-03 0. -1.
    9000002   -1    0    0    0    0 -0.00000000000E+00 -0.00000000000E+00  0.00000000000E+00  0.93800000000E+00  0.93800000000E+00 0. -1.
         11    1    1    2    0    0 -0.27230686172E+00 -0.19149106062E-01  0.15255719828E+01  0.15498025200E+01  0.51100000000E-03 0. -1.
    9000002    1    1    2    0    0  0.59663409962E+00 -0.78717975322E-01  0.25525352895E+00  0.11433141005E+01  0.93800000000E+00 0. -1.
         22    1    1    2    0    0 -0.32432723790E+00  0.97867081383E-01  0.22191744556E+01  0.22448833794E+01  0.00000000000E+00 0. -1.
</event>
<event>
 5    1  0.3269840E+002  0.1575563E+01  0.7818608E-02  0.3380321E+00
         11   -1    0    0    0    0  0.00000000000E+00  0.00000000000E+00  0.39999999674E+01  0.40000000000E+01  0.51100000000E-03 0.  1.
    9000002   -1    0    0    0    0 -0.00000000000E+00 -0.00000000000E+00  0.00000000000E+00  0.93800000000E+00  0.93800000000E+00 0.  1.
         11    1    1    2    0    0  0.11495901938E+00  0.33613347360E-01  0.12376800829E+01  0.12434619745E+01  0.51100000000E-03 0.  1.
    9000002    1    1    2    0    0  0.11155974695E+00  0.17052052023E+00  0.45813672009E-01  0.96097123656E+00  0.93800000000E+00 0.  1.
         22    1    1    2    0    0 -0.22651876633E+00 -0.20413386759E+00  0.27165062125E+01  0.27335667890E+01  0.00000000000E+00 0.  1.
</event>
<event>
 5    1  0.3269840E+002  0.1599676E+01  0.7818608E-02  0.3353715E+00
         11   -1    0    0    0    0  0.00000000000E+00  0.00000000000E+00  0.39999999674E+01  0.40000000000E+01  0.51100000000E-03 0.  1.
    9000002   -1    0    0    0    0 -0.00000000000E+00 -0.00000000000E+00  0.00000000000E+00  0.93800000000E+00  0.93800000000E+00 0. -1.
         11    1    1    2    0    0  0.14468751427E+00  0.16110478374E+00  0.15778505244E+01  0.15926398735E+01  0.51100000000E-03 0.  1.
    9000002    1    1    2    0    0 -0.35014912457E+00 -0.38693484719E+00  0.18712505228E+00  0.10895791713E+01  0.93800000000E+00 0. -1.
         22    1    1    2    0    0  0.20546161030E+00  0.22583006345E+00  0.22350243906E+01  0.22557809551E+01  0.00000000000E+00 0.  1.
</event>
<event>
 5    1  0.3269840E+002  0.1599095E+01  0.7818608E-02  0.3354346E+00
         11   -1    0    0    0    0  0.00000000000E+00  0.00000000000E+00  0.39999999674E+01  0.40000000000E+01  0.51100000000E-03 0.  1.
    9000002   -1    0    0    0    0 -0.00000000000E+00 -0.00000000000E+00  0.00000000000E+00  0.93800000000E+00  0.93800000000E+00 0.  1.
         11    1    1    2    0    0  0.71587332801E-01  0.99964144971E-01  0.12661117226E+01  0.12720678959E+01  0.51100000000E-03 0.  1.
    9000002    1    1    2    0    0 -0.24404820246E+00 -0.22863734212E+00  0.75324872036E-01  0.99867532046E+00  0.93800000000E+00 0.  1.
         22    1    1    2    0    0  0.17246086966E+00  0.12867319715E+00  0.26585633727E+01  0.26672567837E+01  0.00000000000E+00 0.  1.
</event>
<event>
 5    1  0.3269840E+002  0.1567201E+01  0.7818608E-02  0.3389751E+00
         11   -1    0    0    0    0  0.00000000000E+00  0.00000000000E+00  0.39999999674E+01  0.40000000000E+01  0.51100000000E-03 0.  1.
    9000002   -1    0    0    0    0 -0.00000000000E+00 -0.00000000000E+00  0.00000000000E+00  0.93800000000E+00  0.93800000000E+00 0. -1.
         11    1    1    2    0    0  0.14835496881E+00  0.74773168146E-01  0.13609286500E+01  0.13710314639E+01  0.51100000000E-03 0.  1.
    9000002    1    1    2    0    0  0.84946239585E-01  0.86129332552E-01  0.33846418976E-01  0.94637397768E+00  0.93800000000E+00 0. -1.
         22    1    1    2    0    0 -0.23330120840E+00 -0.16090250070E+00  0.26052248984E+01  0.26205945584E+01  0.00000000000E+00 0. -1.
</event>
<event>
 5    1  0.3269840E+002  0.1599673E+01  0.7818608E-02  0.3353719E+00
         11   -1    0    0    0    0  0.00000000000E+00  0.00000000000E+00  0.39999999674E+01  0.40000000000E+01  0.51100000000E-03 0. -1.
    9000002   -1    0    0    0    0 -0.00000000000E+00 -0.00000000000E+00  0.00000000000E+00  0.93800000000E+00  0.93800000000E+00 0. -1.
         11    1    1    2    0    0 -0.18634729656E-01 -0.23595367715E-01  0.31362605310E+00  0.31506436934E+00  0.51100000000E-03 0. -1.
    9000002    1    1    2    0    0  0.22048086366E+00  0.28376808433E+00  0.86681317143E-01  0.10082131658E+01  0.93800000000E+00 0. -1.
         22    1    1    2    0    0 -0.20184613400E+00 -0.26017271662E+00  0.35996925971E+01  0.36147224649E+01  0.00000000000E+00 0. -1.
</event>
<event>
 5    1  0.3269840E+002  0.1599676E+01  0.7818608E-02  0.3353715E+00
         11   -1    0    0    0    0  0.00000000000E+00  0.00000000000E+00  0.39999999674E+01  0.40000000000E+01  0.51100000000E-03 0.  1.
    9000002   -1    0    0    0    0 -0.00000000000E+00 -0.00000000000E+00  0.00000000000E+00  0.93800000000E+00  0.93800000000E+00 0.  1.
         11    1    1    2    0    0 -0.50409444044E-01  0.48722895347E-01  0.95979424512E+00  0.96235143616E+00  0.51100000000E-03 0.  1.
    9000002    1    1    2    0    0  0.20889225720E+00 -0.20436815080E+00  0.56933281218E-01  0.98411773416E+00  0.93800000000E+00 0.  1.
         22    1    1    2    0    0 -0.15848281315E+00  0.15564525545E+00  0.29832724410E+01  0.29915308297E+01  0.00000000000E+00 0.  1.
</event>
<event>
 5    1  0.3269840E+002  0.1599596E+01  0.7818608E-02  0.3353802E+00
         11   -1    0    0    0    0  0.00000000000E+00  0.00000000000E+00  0.39999999674E+01  0.40000000000E+01  0.51100000000E-03 0.  1.
    9000002   -1    0    0    0    0 -0.00000000000E+00 -0.00000000000E+00  0.00000000000E+00  0.93800000000E+00  0.93800000000E+00 0. -1.
         11    1    1    2    0    0  0.27755982335E-01 -0.13297281568E-02  0.24321401718E+00  0.24479681780E+00  0.51100000000E-03 0.  1.
    9000002    1    1    2    0    0 -0.42036812858E+00 -0.59107288673E-01  0.12201556683E+00  0.10367906412E+01  0.93800000000E+00 0. -1.
         22    1    1    2    0    0  0.39261214624E+00  0.60437016830E-01  0.36347703834E+01  0.36564125410E+01  0.00000000000E+00 0.  1.
</event>
<event>
 5    1  0.3269840E+002  0.1599675E+01  0.7818608E-02  0.3353716E+00
         11   -1    0    0    0    0  0.00000000000E+00  0.00000000000E+00  0.39999999674E+01  0.40000000000E+01  0.51100000000E-03 0. -1.
    9000002   -1    0    0    0    0 -0.00000000000E+00 -0.00000000000E+00  0.00000000000E+00  0.93800000000E+00  0.93800000000E+00 0. -1.
         11    1    1    2    0    0  0.12683340912E-01 -0.86472952789E-01  0.81338676704E+00  0.81806890457E+00  0.51100000000E-03 0. -1.
    9000002    1    1    2    0    0 -0.63062986935E-01  0.40792939963E+00  0.11512037986E+00  0.10312516847E+01  0.93800000000E+00 0. -1.
         22    1    1    2    0    0  0.50379646023E-01 -0.32145644684E+00  0.30714928205E+01  0.30886794107E+01  0.00000000000E+00 0. -1.
</event>
<event>
 5    1  0.3269840E+002  0.1599343E+01  0.7818608E-02  0.3354076E+00
         11   -1    0    0    0    0  0.00000000000E+00  0.00000000000E+00  0.39999999674E+01  0.40000000000E+01  0.51100000000E-03 0. -1.
    9000002   -1    0    0    0    0 -0.00000000000E+00 -0.00000000000E+00  0.00000000000E+00  0.93800000000E+00  0.93800000000E+00 0. -1.
         11    1    1    2    0    0 -0.45945433259E-01 -0.32729879090E-01  0.75223230114E+00  0.75434469828E+00  0.51100000000E-03 0. -1.
    9000002    1    1    2    0    0  0.24892853445E+00  0.81658189703E-01  0.45891778350E-01  0.97497873337E+00  0.93800000000E+00 0. -1.
         22    1    1    2    0    0 -0.20298310119E+00 -0.48928310613E-01  0.32018758879E+01  0.32086765683E+01  0.00000000000E+00 0. -1.
</event>
<event>
 5    1  0.3269840E+002  0.1596745E+01  0.7818608E-02  0.3356904E+00
         11   -1    0    0    0    0  0.00000000000E+00  0.00000000000E+00  0.39999999674E+01  0.40000000000E+01  0.51100000000E-03 0. -1.
    9000002   -1    0    0    0    0 -0.00000000000E+00 -0.00000000000E+00  0.00000000000E+00  0.93800000000E+00  0.93800000000E+00 0. -1.
         11    1    1    2    0    0 -0.38245409756E-01  0.22288249269E-01  0.10655453918E+01  0.10664645894E+01  0.51100000000E-03 0. -1.
    9000002    1    1    2    0    0  0.25616550583E+00 -0.26094379336E+00  0.92202624786E-01  0.10109687204E+01  0.93800000000E+00 0. -1.
         22    1    1    2    0    0 -0.21792009607E+00  0.23865554409E+00  0.28422519508E+01  0.28605666901E+01  0.00000000000E+00 0. -1.
</event>
<event>
 5    1  0.3269840E+002  0.1599594E+01  0.7818608E-02  0.3353804E+00
         11   -1    0    0    0    0  0.00000000000E+00  0.00000000000E+00  0.39999999674E+01  0.40000000000E+01  0.51100000000E-03 0. -1.
    9000002   -1    0    0    0    0 -0.00000000000E+00 -0.00000000000E+00  0.00000000000E+00  0.93800000000E+00  0.93800000000E+00 0.  1.
         11    1    1    2    0    0  0.19215523391E-01 -0.33742421926E-01  0.49704882437E+00  0.49856351882E+00  0.51100000000E-03 0. -1.
    9000002    1    1    2    0    0 -0.11760110128E+00  0.22275354274E+00  0.42218438392E-01  0.97214996599E+00  0.93800000000E+00 0.  1.
         22    1    1    2    0    0  0.98385577892E-01 -0.18901112081E+00  0.34607327046E+01  0.34672865152E+01  0.00000000000E+00 0. -1.
</event>
<event>
 5    1  0.3269840E+002  0.1599676E+01  0.7818608E-02  0.3353715E+00
         11   -1    0    0    0    0  0.00000000000E+00  0.00000000000E+00  0.39999999674E+01  0.40000000000E+01  0.51100000000E-03 0.  1.
    9000002   -1    0    0    0    0 -0.00000000000E+00 -0.00000000000E+00  0.00000000000E+00  0.93800000000E+00  0.93800000000E+00 0.  1.
         11    1    1    2    0    0 -0.24032594122E+00  0.28069320182E+00  0.22432276887E+01  0.22734590288E+01  0.51100000000E-03 0.  1.
    9000002    1    1    2    0    0  0.40074372841E+00 -0.46574068385E+00  0.26421568977E+00  0.11520259768E+01  0.93800000000E+00 0.  1.
         22    1    1    2    0    0 -0.16041778719E+00  0.18504748203E+00  0.14925565889E+01  0.15125149944E+01  0.00000000000E+00 0. -1.
</event>
<event>
 5    1  0.3269840E+002  0.1593906E+01  0.7818608E-02  0.3360004E+00
         11   -1    0    0    0    0  0.00000000000E+00  0.00000000000E+00  0.39999999674E+01  0.40000000000E+01  0.51100000000E-03 0.  1.
    9000002   -1    0    0    0    0 -0.00000000000E+00 -0.00000000000E+00  0.00000000000E+00  0.93800000000E+00  0.93800000000E+00 0. -1.
         11    1    1    2    0    0  0.24401784273E+00  0.21347099150E-01  0.11919490948E+01  0.12168579671E+01  0.51100000000E-03 0.  1.
    9000002    1    1    2    0    0 -0.50700824878E+00 -0.58974441772E-01  0.18393284244E+00  0.10836100035E+01  0.93800000000E+00 0. -1.
         22    1    1    2    0    0  0.26299040605E+00  0.37627342622E-01  0.26241180301E+01  0.26375320294E+01  0.00000000000E+00 0.  1.
</event>
<event>
 5    1  0.3269840E+002  0.1599125E+01  0.7818608E-02  0.3354313E+00
         11   -1    0    0    0    0  0.00000000000E+00  0.00000000000E+00  0.39999999674E+01  0.40000000000E+01  0.51100000000E-03 0. -1.
    9000002   -1    0    0    0    0 -0.00000000000E+00 -0.00000000000E+00  0.00000000000E+00  0.93800000000E+00  0.93800000000E+00 0. -1.
         11    1    1    2    0    0 -0.55804715607E-01  0.81466200027E-01  0.15788738798E+01  0.15819588799E+01  0.51100000000E-03 0. -1.
    9000002    1    1    2    0    0  0.17617025890E+00 -0.26136164821E+00  0.66806702425E-01  0.99179282452E+00  0.93800000000E+00 0. -1.
         22    1    1    2    0    0 -0.12036554329E+00  0.17989544818E+00  0.23543193851E+01  0.23642482956E+01  0.00000000000E+00 0. -1.
</event>
<event>
 5    1  0.3269840E+002  0.1599221E+01  0.7818608E-02  0.3354209E+00
         11   -1    0    0    0    0  0.00000000000E+00  0.00000000000E+00  0.39999999674E+01  0.40000000000E+01  0.51100000000E-03 0. -1.
    9000002   -1    0    0    0    0 -0.00000000000E+00 -0.00000000000E+00  0.00000000000E+00  0.93800000000E+00  0.93800000000E+00 0.  1.
         11    1    1    2    0    0  0.10904824163E-01  0.65854709002E-01  0.68740963271E+00  0.69064319453E+00  0.51100000000E-03 0. -1.
    9000002    1    1    2    0    0  0.17384419209E-01 -0.29905069435E+00  0.60216426575E-01  0.98651079764E+00  0.93800000000E+00 0.  1.
         22    1    1    2    0    0 -0.28289243373E-01  0.23319598535E+00  0.32523739081E+01  0.32608460078E+01  0.00000000000E+00 0. -1.
</event>
<event>
 5    1  0.3269840E+002  0.1526619E+01  0.7818608E-02  0.3437074E+00
         11   -1    0    0    0    0  0.00000000000E+00  0.00000000000E+00  0.39999999674E+01  0.40000000000E+01  0.51100000000E-03 0. -1.
    9000002   -1    0    0    0    0 -0.00000000000E+00 -0.00000000000E+00  0.00000000000E+00  0.93800000000E+00  0.93800000000E+00 0.  1.
         11    1    1    2    0    0  0.35922247092E+00  0.13221557895E+00  0.13749594459E+01  0.14272475195E+01  0.51100000000E-03 0. -1.
    9000002    1    1    2    0    0 -0.30829911566E+00  0.15856781610E+00  0.14179436961E+00  0.10100206633E+01  0.93800000000E+00 0.  1.
         22    1    1    2    0    0 -0.50923355268E-01 -0.29078339505E+00  0.24832461518E+01  0.25007318172E+01  0.00000000000E+00 0. -1.
</event>
<event>
 5    1  0.3269840E+002  0.1548385E+01  0.7818608E-02  0.3411364E+00
         11   -1    0    0    0    0  0.00000000000E+00  0.00000000000E+00  0.39999999674E+01  0.40000000000E+01  0.51100000000E-03 0.  1.
    9000002   -1    0    0    0    0 -0.00000000000E+00 -0.00000000000E+00  0.00000000000E+00  0.93800000000E+00  0.93800000000E+00 0.  1.
         11    1    1    2    0    0  0.12416490119E-01  0.38693035572E-02 -0.17138677188E-01  0.21520597427E-01  0.51100000000E-03 0.  1.
    9000002    1    1    2    0    0  0.19937017585E+00  0.59838304065E+00  0.33432153280E+00  0.11787389947E+01  0.93800000000E+00 0.  1.
         22    1    1    2    0    0 -0.21178666597E+00 -0.60225234421E+00  0.36828171117E+01  0.37377404079E+01  0.00000000000E+00 0.  1.
</event>
<event>
 5    1  0.3269840E+002  0.1599677E+01  0.7818608E-02  0.3353715E+00
         11   -1    0    0    0    0  0.00000000000E+00  0.00000000000E+00  0.39999999674E+01  0.40000000000E+01  0.51100000000E-03 0.  1.
    9000002   -1    0    0    0    0 -0.00000000000E+00 -0.00000000000E+00  0.00000000000E+00  0.93800000000E+00  0.93800000000E+00 0.  1.
         11    1    1    2    0    0  0.58942193436E-01 -0.35366365645E-01  0.80272131601E+00  0.80565919239E+00  0.51100000000E-03 0. -1.
    9000002    1    1    2    0    0 -0.28539242374E+00  0.17399890463E+00  0.74786054040E-01  0.99857969548E+00  0.93800000000E+00 0.  1.
         22    1    1    2    0    0  0.22645023030E+00 -0.13863253898E+00  0.31224925973E+01  0.31337611121E+01  0.00000000000E+00 0.  1.
</event>
<event>
 5    1  0.3269840E+002  0.1599676E+01  0.7818608E-02  0.3353715E+00
         11   -1    0    0    0    0  0.00000000000E+00  0.00000000000E+00  0.39999999674E+01  0.40000000000E+01  0.51100000000E-03 0. -1.
    9000002   -1    0    0    0    0 -0.00000000000E+00 -0.00000000000E+00  0.00000000000E+00  0.93800000000E+00  0.93800000000E+00 0.  1.
         11    1    1    2    0    0 -0.89681797328E-01 -0.12279958150E+00  0.14003569081E+01  0.14085887594E+01  0.51100000000E-03 0. -1.
    9000002    1    1    2    0    0  0.24907695019E+00  0.34300110434E+00  0.12158997026E+00  0.10364927426E+01  0.93800000000E+00 0.  1.
         22    1    1    2    0    0 -0.15939515286E+00 -0.22020152283E+00  0.24780530890E+01  0.24929184979E+01  0.00000000000E+00 0. -1.
</event>
<event>
 5    1  0.3269840E+002  0.1599673E+01  0.7818608E-02  0.3353718E+00
         11   -1    0    0    0    0  0.00000000000E+00  0.00000000000E+00  0.39999999674E+01  0.40000000000E+01  0.51100000000E-03 0. -1.
    9000002   -1    0    0    0    0 -0.00000000000E+00 -0.00000000000E+00  0.00000000000E+00  0.93800000000E+00  0.93800000000E+00 0.  1.
         11    1    1    2    0    0  0.13216557154E-01 -0.52672248702E-01  0.66795173589E+00  0.67015582200E+00  0.51100000000E-03 0. -1.
    9000002    1    1    2    0    0 -0.68020928831E-01  0.30680172998E+00  0.65972919205E-01  0.99143863872E+00  0.93800000000E+00 0.  1.
         22    1    1    2    0    0  0.54804371678E-01 -0.25412948128E+00  0.32660753123E+01  0.32764055393E+01  0.00000000000E+00 0. -1.
</event>
<event>
 5    1  0.3269840E+002  0.1587054E+01  0.7818608E-02  0.3367536E+00
         11   -1    0    0    0    0  0.00000000000E+00  0.00000000000E+00  0.39999999674E+01  0.40000000000E+01  0.51100000000E-03 0. -1.
    9000002   -1    0    0    0    0 -0.00000000000E+00 -0.00000000000E+00  0.00000000000E+00  0.93800000000E+00  0.93800000000E+00 0.  1.
         11    1    1    2    0    0  0.55962235256E-01 -0.69539434185E-01  0.75631691192E+00  0.76156617379E+00  0.51100000000E-03 0. -1.
    9000002    1    1    2    0    0 -0.94332493078E-01 -0.15563315343E+00  0.31366425987E-01  0.95600635478E+00  0.93800000000E+00 0.  1.
         22    1    1    2    0    0  0.38370257821E-01  0.22517258762E+00  0.32123166295E+01  0.32204274714E+01  0.00000000000E+00 0. -1.
</event>
<event>
 5    1  0.3269840E+002  0.1599042E+01  0.7818608E-02  0.3354404E+00
         11   -1    0    0    0    0  0.00000000000E+00  0.00000000000E+00  0.39999999674E+01  0.40000000000E+01  0.51100000000E-03 0. -1.
    9000002   -1    0    0    0    0 -0.00000000000E+00 -0.00000000000E+00  0.00000000000E+00  0.93800000000E+00  0.93800000000E+00 0. -1.
         11    1    1    2    0    0 -0.10403310994E+00 -0.89964804486E-01  0.14885940996E+01  0.14949345165E+01  0.51100000000E-03 0. -1.
    9000002    1    1    2    0    0  0.34831094646E+00  0.23510658032E+00  0.11997246770E+00  0.10348106168E+01  0.93800000000E+00 0. -1.
         22    1    1    2    0    0 -0.24427783652E+00 -0.14514177583E+00  0.23914334000E+01  0.24082548667E+01  0.00000000000E+00 0. -1.
</event>
<event>
 5    1  0.3269840E+002  0.1599424E+01  0.7818608E-02  0.3353988E+00
         11   -1    0    0    0    0  0.00000000000E+00  0.00000000000E+00  0.39999999674E+01  0.40000000000E+01  0.51100000000E-03 0.  1.
    9000002   -1    0    0    0    0 -0.00000000000E+00 -0.00000000000E+00  0.00000000000E+00  0.93800000000E+00  0.93800000000E+00 0.  1.
         11    1    1    2    0    0 -0.73150029258E-01 -0.25756950290E+00  0.13321002178E+01  0.13587436208E+01  0.51100000000E-03 0.  1.
    9000002    1    1    2    0    0  0.23676947097E+00  0.66915456159E+00  0.36132175185E+00  0.12305385073E+01  0.93800000000E+00 0.  1.
         22    1    1    2    0    0 -0.16361944171E+00 -0.41158505869E+00  0.23065779977E+01  0.23487178719E+01  0.00000000000E+00 0. -1.
</event>
<event>
 5    1  0.3269840E+002  0.1599643E+01  0.7818608E-02  0.3353751E+00
         11   -1    0    0    0    0  0.00000000000E+00  0.00000000000E+00  0.39999999674E+01  0.40000000000E+01  0.51100000000E-03 0.  1.
    9000002   -1    0    0    0    0 -0.00000000000E+00 -0.00000000000E+00  0.00000000000E+00  0.93800000000E+00  0.93800000000E+00 0.  1.
         11    1    1    2    0    0 -0.29805878696E-01  0.27892891946E-02  0.26113030500E+00  0.26284114565E+00  0.51100000000E-03 0.  1.
    9000002    1    1    2    0    0  0.39224494229E+00 -0.39300436460E-01  0.10477197043E+00  0.10228498349E+01  0.93800000000E+00 0.  1.
         22    1    1    2    0    0 -0.36243906359E+00  0.36511147265E-01  0.36340976919E+01  0.36523090194E+01  0.00000000000E+00 0.  1.
</event>
<event>
 5    1  0.3269840E+002  0.1559498E+01  0.7818608E-02  0.3398531E+00
         11   -1    0    0    0    0  0.00000000000E+00  0.00000000000E+00  0.39999999674E+01  0.40000000000E+01  0.51100000000E-03 0.  1.
    9000002   -1    0    0    0    0 -0.00000000000E+00 -0.00000000000E+00  0.00000000000E+00  0.93800000000E+00  0.93800000000E+00 0.  1.
         11    1    1    2    0    0 -0.28691692126E+00 -0.29025512854E+00  0.29770674330E+01  0.30049126645E+01  0.51100000000E-03 0.  1.
    9000002    1    1    2    0    0  0.58134935243E+00  0.29677182550E+00  0.34459696647E+00  0.11935793460E+01  0.93800000000E+00 0.  1.
         22    1    1    2    0    0 -0.29443243116E+00 -0.65166969601E-02  0.67833556785E+00  0.73950798945E+00  0.00000000000E+00 0.  1.
</event>
<event>
 5    1  0.3269840E+002  0.1598928E+01  0.7818608E-02  0.3354528E+00
         11   -1    0    0    0    0  0.00000000000E+00  0.00000000000E+00  0.39999999674E+01  0.40000000000E+01  0.51100000000E-03 0. -1.
    9000002   -1    0    0    0    0 -0.00000000000E+00 -0.00000000000E+00  0.00000000000E+00  0.93800000000E+00  0.93800000000E+00 0. -1.
         11    1    1    2    0    0 -0.22040479830E-01  0.14336614576E-01  0.53886981473E+00  0.53951113021E+00  0.51100000000E-03 0. -1.
    9000002    1    1    2    0    0  0.10448505207E+00 -0.26060338000E+00  0.53079140127E-01  0.98055731239E+00  0.93800000000E+00 0. -1.
         22    1    1    2    0    0 -0.82444572243E-01  0.24626676542E+00  0.34080510125E+01  0.34179315574E+01  0.00000000000E+00 0. -1.
</event>
<event>
 5    1  0.3269840E+002  0.1598252E+01  0.7818608E-02  0.3355263E+00
         11   -1    0    0    0    0  0.00000000000E+00  0.00000000000E+00  0.39999999674E+01  0.40000000000E+01  0.51100000000E-03 0.  1.
    9000002   -1    0    0    0    0 -0.00000000000E+00 -0.00000000000E+00  0.00000000000E+00  0.93800000000E+00  0.93800000000E+00 0.  1.
         11    1    1    2    0    0  0.27496801322E-01  0.57758883215E-01  0.11393183224E+01  0.11411129057E+01  0.51100000000E-03 0.  1.
    9000002    1    1    2    0    0  0.36165273928E-02 -0.30248442011E+00  0.62179299825E-01  0.98753236352E+00  0.93800000000E+00 0.  1.
         22    1    1    2    0    0 -0.31113328714E-01  0.24472553689E+00  0.27985023451E+01  0.28093547308E+01  0.00000000000E+00 0.  1.
</event>
<event>
 5    1  0.3269840E+002  0.1595848E+01  0.7818608E-02  0.3357882E+00
         11   -1    0    0    0    0  0.00000000000E+00  0.00000000000E+00  0.39999999674E+01  0.40000000000E+01  0.51100000000E-03 0.  1.
    9000002   -1    0    0    0    0 -0.00000000000E+00 -0.00000000000E+00  0.00000000000E+00  0.93800000000E+00  0.93800000000E+00 0.  1.
         11    1    1    2    0    0 -0.62230872740E-01  0.55351360913E-01  0.48700585160E+00  0.49407632537E+00  0.51100000000E-03 0.  1.
    9000002    1    1    2    0    0  0.25373837210E+00 -0.13694553110E+00  0.58388069844E-01  0.98305157884E+00  0.93800000000E+00 0.  1.
         22    1    1    2    0    0 -0.19150749936E+00  0.81594170189E-01  0.34546060459E+01  0.34608720958E+01  0.00000000000E+00 0.  1.
</event>
<event>
 5    1  0.3269840E+002  0.1599677E+01  0.7818608E-02  0.3353714E+00
         11   -1    0    0    0    0  0.00000000000E+00  0.00000000000E+00  0.39999999674E+01  0.40000000000E+01  0.51100000000E-03 0.  1.
    9000002   -1    0    0    0    0 -0.00000000000E+00 -0.00000000000E+00  0.00000000000E+00  0.93800000000E+00  0.93800000000E+00 0.  1.
         11    1    1    2    0    0  0.70918727480E-01 -0.15120241604E+00  0.16904936175E+01  0.16987232171E+01  0.51100000000E-03 0. -1.
    9000002    1    1    2    0    0 -0.16393803786E+00  0.34874011916E+00  0.99978882538E-01  0.10189873051E+01  0.93800000000E+00 0.  1.
         22    1    1    2    0    0  0.93019310385E-01 -0.19753770313E+00  0.22095274674E+01  0.22202894778E+01  0.00000000000E+00 0.  1.
</event>
<event>
 5    1  0.3269840E+002  0.1599677E+01  0.7818608E-02  0.3353715E+00
         11   -1    0    0    0    0  0.00000000000E+00  0.00000000000E+00  0.39999999674E+01  0.40000000000E+01  0.51100000000E-03 0.  1.
    9000002   -1    0    0    0    0 -0.00000000000E+00 -0.00000000000E+00  0.00000000000E+00  0.93800000000E+00  0.93800000000E+00 0. -1.
         11    1    1    2    0    0  0.26990792195E+00  0.36037906556E+00  0.25095977949E+01  0.25496675686E+01  0.51100000000E-03 0.  1.
    9000002    1    1    2    0    0 -0.39783650466E+00 -0.53025001079E+00  0.31106581558E+00  0.11899768485E+01  0.93800000000E+00 0. -1.
         22    1    1    2    0    0  0.12792858272E+00  0.16987094523E+00  0.11793363569E+01  0.11983555829E+01  0.00000000000E+00 0.  1.
</event>
<event>
 5    1  0.3269840E+002  0.1516585E+01  0.7818608E-02  0.3449192E+00
         11   -1    0    0    0    0  0.00000000000E+00  0.00000000000E+00  0.39999999674E+01  0.40000000000E+01  0.51100000000E-03 0.  1.
    9000002   -1    0    0    0    0 -0.00000000000E+00 -0.00000000000E+00  0.00000000000E+00  0.93800000000E+00  0.93800000000E+00 0. -1.
         11    1    1    2    0    0 -0.75107016223E-01 -0.20662559118E+00  0.32600889654E+00  0.39321401369E+00  0.51100000000E-03 0.  1.
    9000002    1    1    2    0    0 -0.11844819172E+00  0.27705839881E+00  0.12877153168E+00  0.99358816310E+00  0.93800000000E+00 0. -1.
         22    1    1    2    0    0  0.19355520795E+00 -0.70432807630E-01  0.35452195391E+01  0.35511978232E+01  0.00000000000E+00 0.  1.
</event>
<event>
 5    1  0.4032433E+002  0.1558246E+01  0.7818608E-02  0.3399967E+00
         11   -1    0    0    0    0  0.00000000000E+00  0.00000000000E+00  0.39999999674E+01  0.40000000000E+01  0.51100000000E-03 0. -1.
    9000002   -1    0    0    0    0 -0.00000000000E+00 -0.00000000000E+00  0.00000000000E+00  0.93800000000E+00  0.93800000000E+00 0.  1.
         11    1    1    2    0    0  0.17450101442E+00  0.99675193974E-01  0.85061970921E+00  0.87403655481E+00  0.51100000000E-03 0. -1.
    9000002    1    1    2    0    0  0.52213427953E-01 -0.96173137023E-01  0.38829867858E-01  0.94515991926E+00  0.93800000000E+00 0.  1.
         22    1    1    2    0    0 -0.22671444237E+00 -0.35020569505E-02  0.31105503903E+01  0.31188035259E+01  0.00000000000E+00 0.  1.
</event>
<event>
 5    1  0.3269840E+002  0.1586901E+01  0.7818608E-02  0.3367704E+00
         11   -1    0    0    0    0  0.00000000000E+00  0.00000000000E+00  0.39999999674E+01  0.40000000000E+01  0.51100000000E-03 0. -1.
    9000002   -1    0    0    0    0 -0.00000000000E+00 -0.00000000000E+00  0.00000000000E+00  0.93800000000E+00  0.93800000000E+00 0. -1.
         11    1    1    2    0    0 -0.77357085199E+00  0.59356114429E+00  0.20953428655E+01  0.23111011835E+01  0.51100000000E-03 0. -1.
    9000002    1    1    2    0    0  0.97872616731E+00 -0.62297710659E+00  0.12700469686E+01  0.19593031129E+01  0.93800000000E+00 0. -1.
         22    1    1    2    0    0 -0.20515531532E+00  0.29415962301E-01  0.63461013323E+00  0.66759570358E+00  0.00000000000E+00 0.  1.
</event>
<event>
 5    1  0.3269840E+002  0.1599302E+01  0.7818608E-02  0.3354121E+00
         11   -1    0    0    0    0  0.00000000000E+00  0.00000000000E+00  0.39999999674E+01  0.40000000000E+01  0.51100000000E-03 0.  1.
    9000002   -1    0    0    0    0 -0.00000000000E+00 -0.00000000000E+00  0.00000000000E+00  0.93800000000E+00  0.93800000000E+00 0.  1.
         11    1    1    2    0    0 -0.46227389626E+00  0.27911813374E+00  0.19159332456E+01  0.19905789485E+01  0.51100000000E-03 0.  1.
    9000002    1    1    2    0    0  0.83083488500E+00 -0.46443388956E+00  0.71099623972E+00  0.15137189623E+01  0.93800000000E+00 0.  1.
         22    1    1    2    0    0 -0.36856098873E+00  0.18531575582E+00  0.13730704821E+01  0.14337020892E+01  0.00000000000E+00 0.  1.
</event>
<event>
 5    1  0.3269840E+002  0.1599650E+01  0.7818608E-02  0.3353744E+00
         11   -1    0    0    0    0  0.00000000000E+00  0.00000000000E+00  0.39999999674E+01  0.40000000000E+01  0.51100000000E-03 0.  1.
    9000002   -1    0    0    0    0 -0.00000000000E+00 -0.00000000000E+00  0.00000000000E+00  0.93800000000E+00  0.93800000000E+00 0.  1.
         11    1    1    2    0    0  0.15537548408E-01  0.40844538592E-01  0.37510709108E+00  0.37764438648E+00  0.51100000000E-03 0.  1.
    9000002    1    1    2    0    0 -0.14932830217E+00 -0.38633967816E+00  0.11595706343E+00  0.10319144002E+01  0.93800000000E+00 0.  1.
         22    1    1    2    0    0  0.13379075377E+00  0.34549513957E+00  0.35089358129E+01  0.35284412133E+01  0.00000000000E+00 0.  1.
</event>
<event>
 5    1  0.3269840E+002  0.1599671E+01  0.7818608E-02  0.3353721E+00
         11   -1    0    0    0    0  0.00000000000E+00  0.00000000000E+00  0.39999999674E+01  0.40000000000E+01  0.51100000000E-03 0. -1.
    9000002   -1    0    0    0    0 -0.00000000000E+00 -0.00000000000E+00  0.00000000000E+00  0.93800000000E+00  0.93800000000E+00 0.  1.
         11    1    1    2    0    0  0.23441794543E-02 -0.43588272910E-01  0.67368933197E+00  0.67510222178E+00  0.51100000000E-03 0. -1.
    9000002    1    1    2    0    0 -0.24799240111E-01  0.26265104638E+00  0.46290069392E-01  0.97549338542E+00  0.93800000000E+00 0.  1.
         22    1    1    2    0    0  0.22455060656E-01 -0.21906277347E+00  0.32800205660E+01  0.32874043928E+01  0.00000000000E+00 0. -1.
</event>
<event>
 5    1  0.3269840E+002  0.1536708E+01  0.7818608E-02  0.3425060E+00
         11   -1    0    0    0    0  0.00000000000E+00  0.00000000000E+00  0.39999999674E+01  0.40000000000E+01  0.51100000000E-03 0. -1.
    9000002   -1    0    0    0    0 -0.00000000000E+00 -0.00000000000E+00  0.00000000000E+00  0.93800000000E+00  0.93800000000E+00 0. -1.
         11    1    1    2    0    0  0.21425441688E+00 -0.36050071073E-01  0.10173783360E+01  0.10403189427E+01  0.51100000000E-03 0. -1.
    9000002    1    1    2    0    0  0.76520284476E-01 -0.34085686493E+00  0.13436618243E+00  0.10099193172E+01  0.93800000000E+00 0. -1.
         22    1    1    2    0    0 -0.29077470136E+00  0.37690693600E+00  0.28482554489E+01  0.28877617401E+01  0.00000000000E+00 0. -1.
</event>
<event>
 5    1  0.3269840E+002  0.1594871E+01  0.7818608E-02  0.3358949E+00
         11   -1    0    0    0    0  0.00000000000E+00  0.00000000000E+00  0.39999999674E+01  0.40000000000E+01  0.51100000000E-03 0.  1.
    9000002   -1    0    0    0    0 -0.00000000000E+00 -0.00000000000E+00  0.00000000000E+00  0.93800000000E+00  0.93800000000E+00 0.  1.
         11    1    1    2    0    0  0.18765027764E-01  0.24530766669E+00  0.24431186433E+01  0.24554748918E+01  0.51100000000E-03 0.  1.
    9000002    1    1    2    0    0 -0.58465902779E-01 -0.50633464729E+00  0.18251532276E+00  0.10830276450E+01  0.93800000000E+00 0.  1.
         22    1    1    2    0    0  0.39700875015E-01  0.26102698060E+00  0.13743660013E+01  0.13994974632E+01  0.00000000000E+00 0.  1.
</event>
<event>
 5    1  0.3269840E+002  0.1494882E+01  0.7818608E-02  0.3476002E+00
         11   -1    0    0    0    0  0.00000000000E+00  0.00000000000E+00  0.39999999674E+01  0.40000000000E+01  0.51100000000E-03 0. -1.
    9000002   -1    0    0    0    0 -0.00000000000E+00 -0.00000000000E+00  0.00000000000E+00  0.93800000000E+00  0.93800000000E+00 0. -1.
         11    1    1    2    0    0 -0.12964271011E+00 -0.13185410584E+00  0.30701109405E+01  0.30756745904E+01  0.51100000000E-03 0. -1.
    9000002    1    1    2    0    0 -0.43653640317E-01 -0.18628841857E+00  0.10707197724E+00  0.96328470533E+00  0.93800000000E+00 0. -1.
         22    1    1    2    0    0  0.17329635043E+00  0.31814252442E+00  0.82281704960E+00  0.89904070432E+00  0.00000000000E+00 0. -1.
</event>
<event>
 5    1  0.3269840E+002  0.1599677E+01  0.7818608E-02  0.3353714E+00
         11   -1    0    0    0    0  0.00000000000E+00  0.00000000000E+00  0.39999999674E+01  0.40000000000E+01  0.51100000000E-03 0.  1.
    9000002   -1    0    0    0    0 -0.00000000000E+00 -0.00000000000E+00  0.00000000000E+00  0.93800000000E+00  0.93800000000E+00 0.  1.
         11    1    1    2    0    0 -0.29077838543E+00  0.92492217313E-01  0.22276008529E+01  0.22484022551E+01  0.51100000000E-03 0.  1.
    9000002    1    1    2    0    0  0.49785534239E+00 -0.15804329186E+00  0.18749440937E+00  0.10898787903E+01  0.93800000000E+00 0.  1.
         22    1    1    2    0    0 -0.20707695696E+00  0.65551074548E-01  0.15849047051E+01  0.15997189546E+01  0.00000000000E+00 0.  1.
</event>
<event>
 5    1  0.3269840E+002  0.1549019E+01  0.7818608E-02  0.3410626E+00
         11   -1    0    0    0    0  0.00000000000E+00  0.00000000000E+00  0.39999999674E+01  0.40000000000E+01  0.51100000000E-03 0. -1.
    9000002   -1    0    0    0    0 -0.00000000000E+00 -0.00000000000E+00  0.00000000000E+00  0.93800000000E+00  0.93800000000E+00 0.  1.
         11    1    1    2    0    0  0.28862427795E+00 -0.34867963446E-01  0.18123723503E+01  0.18355417581E+01  0.51100000000E-03 0. -1.
    9000002    1    1    2    0    0 -0.47770559893E-01  0.16758100704E+00  0.58710601142E-01  0.95585373096E+00  0.93800000000E+00 0.  1.
         22    1    1    2    0    0 -0.24085371806E+00 -0.13271304359E+00  0.21289170160E+01  0.21466045109E+01  0.00000000000E+00 0.  1.
</event>
<event>
 5    1  0.3269840E+002  0.1599658E+01  0.7818608E-02  0.3353734E+00
         11   -1    0    0    0    0  0.00000000000E+00  0.00000000000E+00  0.39999999674E+01  0.40000000000E+01  0.51100000000E-03 0.  1.
    9000002   -1    0    0    0    0 -0.00000000000E+00 -0.00000000000E+00  0.00000000000E+00  0.93800000000E+00  0.93800000000E+00 0.  1.
         11    1    1    2    0    0  0.49930520406E-01  0.24934412887E-01  0.91013557222E+00  0.91184527348E+00  0.51100000000E-03 0.  1.
    9000002    1    1    2    0    0 -0.23403964986E+00 -0.11664412978E+00  0.45479732868E-01  0.97482963477E+00  0.93800000000E+00 0.  1.
         22    1    1    2    0    0  0.18410912946E+00  0.91709716896E-01  0.30443846623E+01  0.30513250918E+01  0.00000000000E+00 0.  1.
</event>
<event>
 5    1  0.3269840E+002  0.1599669E+01  0.7818608E-02  0.3353723E+00
         11   -1    0    0    0    0  0.00000000000E+00  0.00000000000E+00  0.39999999674E+01  0.40000000000E+01  0.51100000000E-03 0. -1.
    9000002   -1    0    0    0    0 -0.00000000000E+00 -0.00000000000E+00  0.00000000000E+00  0.93800000000E+00  0.93800000000E+00 0. -1.
         11    1    1    2    0    0  0.85109911437E-02 -0.20294982622E-02  0.12403961655E+00  0.12434887787E+00  0.51100000000E-03 0. -1.
    9000002    1    1    2    0    0 -0.24876074004E+00  0.38429124955E-01  0.42100274417E-01  0.97209831629E+00  0.93800000000E+00 0. -1.
         22    1    1    2    0    0  0.24024974890E+00 -0.36399626693E-01  0.38338600764E+01  0.38415528058E+01  0.00000000000E+00 0. -1.
</event>
<event>
 5    1  0.3269840E+002  0.1599661E+01  0.7818608E-02  0.3353731E+00
         11   -1    0    0    0    0  0.00000000000E+00  0.00000000000E+00  0.39999999674E+01  0.40000000000E+01  0.51100000000E-03 0. -1.
    9000002   -1    0    0    0    0 -0.00000000000E+00 -0.00000000000E+00  0.00000000000E+00  0.93800000000E+00  0.93800000000E+00 0. -1.
         11    1    1    2    0    0  0.39696023066E+00  0.10932991982E+00  0.20974288728E+01  0.21374607818E+01  0.51100000000E-03 0. -1.
    9000002    1    1    2    0    0 -0.69478633656E+00 -0.18775492959E+00  0.37221826570E+00  0.12395040962E+01  0.93800000000E+00 0. -1.
         22    1    1    2    0    0  0.29782610590E+00  0.78425009766E-01  0.15303528289E+01  0.15610351221E+01  0.00000000000E+00 0. -1.
</event>
<event>
 5    1  0.3269840E+002  0.1584810E+01  0.7818608E-02  0.3370017E+00
         11   -1    0    0    0    0  0.00000000000E+00  0.00000000000E+00  0.39999999674E+01  0.40000000000E+01  0.51100000000E-03 0. -1.
    9000002   -1    0    0    0    0 -0.00000000000E+00 -0.00000000000E+00  0.00000000000E+00  0.93800000000E+00  0.93800000000E+00 0. -1.
         11    1    1    2    0    0 -0.16745050238E+00  0.16642112890E-01  0.10186817438E+01  0.10324869912E+01  0.51100000000E-03 0. -1.
    9000002    1    1    2    0    0  0.88670766002E+00 -0.33478624382E+00  0.72881186619E+00  0.15196522759E+01  0.93800000000E+00 0. -1.
         22    1    1    2    0    0 -0.71925715764E+00  0.31814413093E+00  0.22525063574E+01  0.23858607329E+01  0.00000000000E+00 0. -1.
</event>
<event>
 5    1  0.3269840E+002  0.1584241E+01  0.7818608E-02  0.3370647E+00
         11   -1    0    0    0    0  0.00000000000E+00  0.00000000000E+00  0.39999999674E+01  0.40000000000E+01  0.51100000000E-03 0. -1.
    9000002   -1    0    0    0    0 -0.00000000000E+00 -0.00000000000E+00  0.00000000000E+00  0.93800000000E+00  0.93800000000E+00 0. -1.
         11    1    1    2    0    0  0.64160015664E-01  0.42519714889E-01  0.90947898343E+00  0.91273036335E+00  0.51100000000E-03 0. -1.
    9000002    1    1    2    0    0  0.17269701213E+00  0.12382207973E+00  0.41628211258E-01  0.96266976342E+00  0.93800000000E+00 0. -1.
         22    1    1    2    0    0 -0.23685702779E+00 -0.16634179462E+00  0.30488927727E+01  0.30625998732E+01  0.00000000000E+00 0. -1.
</event>
<event>
 5    1  0.3269840E+002  0.1599648E+01  0.7818608E-02  0.3353745E+00
         11   -1    0    0    0    0  0.00000000000E+00  0.00000000000E+00  0.39999999674E+01  0.40000000000E+01  0.51100000000E-03 0.  1.
    9000002   -1    0    0    0    0 -0.00000000000E+00 -0.00000000000E+00  0.00000000000E+00  0.93800000000E+00  0.93800000000E+00 0.  1.
         11    1    1    2    0    0 -0.39541387241E-02 -0.18495365497E+00  0.17374694800E+01  0.17472904580E+01  0.51100000000E-03 0.  1.
    9000002    1    1    2    0    0  0.22774998751E-01  0.41022660694E+00  0.11404744700E+00  0.10303666288E+01  0.93800000000E+00 0.  1.
         22    1    1    2    0    0 -0.18820860027E-01 -0.22527295197E+00  0.21484830404E+01  0.21603429132E+01  0.00000000000E+00 0.  1.
</event>
<event>
 5    1  0.3269840E+002  0.1599590E+01  0.7818608E-02  0.3353809E+00
         11   -1    0    0    0    0  0.00000000000E+00  0.00000000000E+00  0.39999999674E+01  0.40000000000E+01  0.51100000000E-03 0.  1.
    9000002   -1    0    0    0    0 -0.00000000000E+00 -0.00000000000E+00  0.00000000000E+00  0.93800000000E+00  0.93800000000E+00 0.  1.
         11    1    1    2    0    0 -0.33987181606E-02  0.95571320388E-03  0.10346453491E+00  0.10352601498E+00  0.51100000000E-03 0.  1.
    9000002    1    1    2    0    0  0.22808275929E+00 -0.13051151963E+00  0.45985675382E-01  0.97519930485E+00  0.93800000000E+00 0.  1.
         22    1    1    2    0    0 -0.22468404113E+00  0.12955580642E+00  0.38505497571E+01  0.38592746802E+01  0.00000000000E+00 0.  1.
</event>
<event>
 5    1  0.3269840E+002  0.1599677E+01  0.7818608E-02  0.3353714E+00
         11   -1    0    0    0    0  0.00000000000E+00  0.00000000000E+00  0.39999999674E+01  0.40000000000E+01  0.51100000000E-03 0. -1.
    9000002   -1    0    0    0    0 -0.00000000000E+00 -0.00000000000E+00  0.00000000000E+00  0.93800000000E+00  0.93800000000E+00 0.  1.
         11    1    1    2    0    0 -0.43343149647E+00  0.69355163626E+00  0.23485513297E+01  0.24868796400E+01  0.51100000000E-03 0. -1.
    9000002    1    1    2    0    0  0.56322235429E+00 -0.90186031032E+00  0.94678933035E+00  0.17049414875E+01  0.93800000000E+00 0.  1.
         22    1    1    2    0    0 -0.12979085782E+00  0.20830867406E+00  0.70465930727E+00  0.74617887251E+00  0.00000000000E+00 0.  1.
</event>
<event>
 5    1  0.3269840E+002  0.1599250E+01  0.7818608E-02  0.3354178E+00
         11   -1    0    0    0    0  0.00000000000E+00  0.00000000000E+00  0.39999999674E+01  0.40000000000E+01  0.51100000000E-03 0.  1.
    9000002   -1    0    0    0    0 -0.00000000000E+00 -0.00000000000E+00  0.00000000000E+00  0.93800000000E+00  0.93800000000E+00 0. -1.
         11    1    1    2    0    0 -0.44606255736E-01 -0.25890203886E-01  0.85626136598E+00  0.85781338804E+00  0.51100000000E-03 0.  1.
    9000002    1    1    2    0    0  0.25682989004E+00  0.19757749879E+00  0.70548375690E-01  0.99489674528E+00  0.93800000000E+00 0. -1.
         22    1    1    2    0    0 -0.21222363431E+00 -0.17168729491E+00  0.30731902257E+01  0.30852898667E+01  0.00000000000E+00 0.  1.
</event>
<event>
 5    1  0.3269840E+002  0.1586711E+01  0.7818608E-02  0.3367914E+00
         11   -1    0    0    0    0  0.00000000000E+00  0.00000000000E+00  0.39999999674E+01  0.40000000000E+01  0.51100000000E-03 0.  1.
    9000002   -1    0    0    0    0 -0.00000000000E+00 -0.00000000000E+00  0.00000000000E+00  0.93800000000E+00  0.93800000000E+00 0.  1.
         11    1    1    2    0    0 -0.49477821355E-01  0.12037295589E+00  0.62051701293E+00  0.63401839703E+00  0.51100000000E-03 0.  1.
    9000002    1    1    2    0    0  0.29320350003E+00 -0.12592042131E+00  0.78378094938E-01  0.99388700097E+00  0.93800000000E+00 0.  1.
         22    1    1    2    0    0 -0.24372567868E+00  0.55474654247E-02  0.33011048595E+01  0.33100946020E+01  0.00000000000E+00 0.  1.
</event>
<event>
 5    1  0.3269840E+002  0.1559010E+01  0.7818608E-02  0.3399091E+00
         11   -1    0    0    0    0  0.00000000000E+00  0.00000000000E+00  0.39999999674E+01  0.40000000000E+01  0.51100000000E-03 0.  1.
    9000002   -1    0    0    0    0 -0.00000000000E+00 -0.00000000000E+00  0.00000000000E+00  0.93800000000E+00  0.93800000000E+00 0. -1.
         11    1    1    2    0    0 -0.38618350985E-01 -0.13068502395E+00  0.25749166793E+01  0.25785201413E+01  0.51100000000E-03 0.  1.
    9000002    1    1    2    0    0 -0.33704694297E-01 -0.14321309982E+00  0.44905756261E-01  0.95052960255E+00  0.93800000000E+00 0. -1.
         22    1    1    2    0    0  0.72323045281E-01  0.27389812377E+00  0.13801775318E+01  0.14089502561E+01  0.00000000000E+00 0.  1.
</event>
<event>
 5    1  0.3269840E+002  0.1597354E+01  0.7818608E-02  0.3356240E+00
         11   -1    0    0    0    0  0.00000000000E+00  0.00000000000E+00  0.39999999674E+01  0.40000000000E+01  0.51100000000E-03 0. -1.
    9000002   -1    0    0    0    0 -0.00000000000E+00 -0.00000000000E+00  0.00000000000E+00  0.93800000000E+00  0.93800000000E+00 0.  1.
         11    1    1    2    0    0 -0.47370711014E-01 -0.14559450168E+00  0.13513204362E+01  0.13599665163E+01  0.51100000000E-03 0. -1.
    9000002    1    1    2    0    0  0.24773028135E+00  0.30574157992E+00  0.10628834243E+00  0.10227362405E+01  0.93800000000E+00 0.  1.
         22    1    1    2    0    0 -0.20035957034E+00 -0.16014707824E+00  0.25423911887E+01  0.25552972431E+01  0.00000000000E+00 0. -1.
</event>
<event>
 5    1  0.3269840E+002  0.1599349E+01  0.7818608E-02  0.3354070E+00
         11   -1    0    0    0    0  0.00000000000E+00  0.00000000000E+00  0.39999999674E+01  0.40000000000E+01  0.51100000000E-03 0. -1.
    9000002   -1    0    0    0    0 -0.00000000000E+00 -0.00000000000E+00  0.00000000000E+00  0.93800000000E+00  0.93800000000E+00 0.  1.
         11    1    1    2    0    0  0.27276568870E-02  0.22532090335E-01  0.19522731360E+00  0.19654287141E+00  0.51100000000E-03 0. -1.
    9000002    1    1    2    0    0  0.16789662444E-01 -0.27805979102E+00  0.51922267422E-01  0.97986685932E+00  0.93800000000E+00 0.  1.
         22    1    1    2    0    0 -0.19517319331E-01  0.25552770069E+00  0.37528503863E+01  0.37615902693E+01  0.00000000000E+00 0. -1.
</event>
<event>
 5    1  0.3269840E+002  0.1599304E+01  0.7818608E-02  0.3354119E+00
         11   -1    0    0    0    0  0.00000000000E+00  0.00000000000E+00  0.39999999674E+01  0.40000000000E+01  0.51100000000E-03 0.  1.
    9000002   -1    0    0    0    0 -0.00000000000E+00 -0.00000000000E+00  0.00000000000E+00  0.93800000000E+00  0.93800000000E+00 0.  1.
         11    1    1    2    0    0  0.29948735847E-01  0.23805108423E-02  0.27956092855E+00  0.28117106448E+00  0.51100000000E-03 0.  1.
    9000002    1    1    2    0    0 -0.25600385608E+00 -0.55465461674E-01  0.45909418260E-01  0.97496977720E+00  0.93800000000E+00 0.  1.
         22    1    1    2    0    0  0.22605512023E+00  0.53084950831E-01  0.36745296206E+01  0.36818591583E+01  0.00000000000E+00 0.  1.
</event>
<event>
 5    1  0.3269840E+002  0.1569201E+01  0.7818608E-02  0.3387485E+00
         11   -1    0    0    0    0  0.00000000000E+00  0.00000000000E+00  0.39999999674E+01  0.40000000000E+01  0.51100000000E-03 0.  1.
    9000002   -1    0    0    0    0 -0.00000000000E+00 -0.00000000000E+00  0.00000000000E+00  0.93800000000E+00  0.93800000000E+00 0. -1.
         11    1    1    2    0    0 -0.14737368316E+00  0.20054954553E-01  0.65245171421E+00  0.66918958763E+00  0.51100000000E-03 0.  1.
    9000002    1    1    2    0    0  0.12027682071E-01  0.23034598544E+00  0.58762128322E-01  0.96772977936E+00  0.93800000000E+00 0. -1.
         22    1    1    2    0    0  0.13534600109E+00 -0.25040093999E+00  0.32887861248E+01  0.33010806330E+01  0.00000000000E+00 0.  1.
</event>
<event>
 5    1  0.3269840E+002  0.1593556E+01  0.7818608E-02  0.3360387E+00
         11   -1    0    0    0    0  0.00000000000E+00  0.00000000000E+00  0.39999999674E+01  0.40000000000E+01  0.51100000000E-03 0.  1.
    9000002   -1    0    0    0    0 -0.00000000000E+00 -0.00000000000E+00  0.00000000000E+00  0.93800000000E+00  0.93800000000E+00 0. -1.
         11    1    1    2    0    0 -0.20331022777E-01 -0.43054672654E-01  0.45044595805E+00  0.45295571259E+00  0.51100000000E-03 0.  1.
    9000002    1    1    2    0    0 -0.22017346702E+00  0.36286881591E-01  0.37653652198E-01  0.96491185653E+00  0.93800000000E+00 0. -1.
         22    1    1    2    0    0  0.24050448980E+00  0.67677910630E-02  0.35119003571E+01  0.35201324309E+01  0.00000000000E+00 0.  1.
</event>
<event>
 5    1  0.3269840E+002  0.1598932E+01  0.7818608E-02  0.3354523E+00
         11   -1    0    0    0    0  0.00000000000E+00  0.00000000000E+00  0.39999999674E+01  0.40000000000E+01  0.51100000000E-03 0. -1.
    9000002   -1    0    0    0    0 -0.00000000000E+00 -0.00000000000E+00  0.00000000000E+00  0.93800000000E+00  0.93800000000E+00 0. -1.
         11    1    1    2    0    0 -0.25748325702E-01  0.26172127236E-02  0.51692326054E+00  0.51757100429E+00  0.51100000000E-03 0. -1.
    9000002    1    1    2    0    0  0.16899532718E+00  0.14716359112E+00  0.33859404742E-01  0.96499067480E+00  0.93800000000E+00 0. -1.
         22    1    1    2    0    0 -0.14324700148E+00 -0.14978080384E+00  0.34492173021E+01  0.34554383209E+01  0.00000000000E+00 0. -1.
</event>
<event>
 5    1  0.3269840E+002  0.1599511E+01  0.7818608E-02  0.3353894E+00
         11   -1    0    0    0    0  0.00000000000E+00  0.00000000000E+00  0.39999999674E+01  0.40000000000E+01  0.51100000000E-03 0. -1.
    9000002   -1    0    0    0    0 -0.00000000000E+00 -0.00000000000E+00  0.00000000000E+00  0.93800000000E+00  0.93800000000E+00 0.  1.
         11    1    1    2    0    0  0.66675434737E-02 -0.33453028461E-02  0.18122918613E+00  0.18138336808E+00  0.51100000000E-03 0. -1.
    9000002    1    1    2    0    0 -0.13640409315E+00  0.21398959785E+00  0.42918231774E-01  0.97266828839E+00  0.93800000000E+00 0.  1.
         22    1    1    2    0    0  0.12973654968E+00 -0.21064429501E+00  0.37758525495E+01  0.37839483435E+01  0.00000000000E+00 0. -1.
</event>
<event>
 5    1  0.3269840E+002  0.1599672E+01  0.7818608E-02  0.3353719E+00
         11   -1    0    0    0    0  0.00000000000E+00  0.00000000000E+00  0.39999999674E+01  0.40000000000E+01  0.51100000000E-03 0.  1.
    9000002   -1    0    0    0    0 -0.00000000000E+00 -0.00000000000E+00  0.00000000000E+00  0.93800000000E+00  0.93800000000E+00 0. -1.
         11    1    1    2    0    0 -0.81457416191E-01 -0.94703842154E-02  0.98935462072E+00  0.99274761419E+00  0.51100000000E-03 0.  1.
    9000002    1    1    2    0    0  0.33227802526E+00  0.36122350915E-01  0.74782159792E-01  0.99857392402E+00  0.93800000000E+00 0. -1.
         22    1    1    2    0    0 -0.25082060907E+00 -0.26651966699E-01  0.29358631869E+01  0.29466784618E+01  0.00000000000E+00 0.  1.
</event>
<event>
 5    1  0.3269840E+002  0.1599649E+01  0.7818608E-02  0.3353744E+00
         11   -1    0    0    0    0  0.00000000000E+00  0.00000000000E+00  0.39999999674E+01  0.40000000000E+01  0.51100000000E-03 0.  1.
    9000002   -1    0    0    0    0 -0.00000000000E+00 -0.00000000000E+00  0.00000000000E+00  0.93800000000E+00  0.93800000000E+00 0. -1.
         11    1    1    2    0    0 -0.53596502597E+00 -0.51613967984E-01  0.24332222537E+01  0.24920861357E+01  0.51100000000E-03 0.  1.
    9000002    1    1    2    0    0  0.78501887429E+00  0.67679987146E-01  0.45551489465E+00  0.13069709380E+01  0.93800000000E+00 0. -1.
         22    1    1    2    0    0 -0.24905384832E+00 -0.16066019162E-01  0.11112628190E+01  0.11389429263E+01  0.00000000000E+00 0.  1.
</event>
<event>
 5    1  0.3269840E+002  0.1599675E+01  0.7818608E-02  0.3353716E+00
         11   -1    0    0    0    0  0.00000000000E+00  0.00000000000E+00  0.39999999674E+01  0.40000000000E+01  0.51100000000E-03 0.  1.
    9000002   -1    0    0    0    0 -0.00000000000E+00 -0.00000000000E+00  0.00000000000E+00  0.93800000000E+00  0.93800000000E+00 0. -1.
         11    1    1    2    0    0 -0.16211523153E+00  0.36714192302E-01  0.12188386658E+01  0.12301208211E+01  0.51100000000E-03 0.  1.
    9000002    1    1    2    0    0  0.50429556278E+00 -0.11869430570E+00  0.18430955701E+00  0.10872977355E+01  0.93800000000E+00 0. -1.
         22    1    1    2    0    0 -0.34218033125E+00  0.81980113397E-01  0.25968517446E+01  0.26205814434E+01  0.00000000000E+00 0.  1.
</event>
<event>
 5    1  0.3269840E+002  0.1599193E+01  0.7818608E-02  0.3354240E+00
         11   -1    0    0    0    0  0.00000000000E+00  0.00000000000E+00  0.39999999674E+01  0.40000000000E+01  0.51100000000E-03 0. -1.
    9000002   -1    0    0    0    0 -0.00000000000E+00 -0.00000000000E+00  0.00000000000E+00  0.93800000000E+00  0.93800000000E+00 0. -1.
         11    1    1    2    0    0  0.11662564965E-01  0.17002464144E-01  0.22227808296E+00  0.22323285263E+00  0.51100000000E-03 0. -1.
    9000002    1    1    2    0    0  0.82472719387E-02 -0.32729719190E+00  0.72085030282E-01  0.99610828774E+00  0.93800000000E+00 0. -1.
         22    1    1    2    0    0 -0.19909836904E-01  0.31029472776E+00  0.37056368541E+01  0.37186588596E+01  0.00000000000E+00 0. -1.
</event>
<event>
 5    1  0.3269840E+002  0.1599151E+01  0.7818608E-02  0.3354285E+00
         11   -1    0    0    0    0  0.00000000000E+00  0.00000000000E+00  0.39999999674E+01  0.40000000000E+01  0.51100000000E-03 0. -1.
    9000002   -1    0    0    0    0 -0.00000000000E+00 -0.00000000000E+00  0.00000000000E+00  0.93800000000E+00  0.93800000000E+00 0.  1.
         11    1    1    2    0    0  0.28749554364E+00 -0.11841716969E+00  0.20056329684E+01  0.20295911359E+01  0.51100000000E-03 0. -1.
    9000002    1    1    2    0    0 -0.52989830759E+00  0.17288824057E+00  0.21539242748E+00  0.11121692578E+01  0.93800000000E+00 0.  1.
         22    1    1    2    0    0  0.24240276395E+00 -0.54471070882E-01  0.17789745715E+01  0.17962396064E+01  0.00000000000E+00 0. -1.
</event>
<event>
 5    1  0.3269840E+002  0.1597036E+01  0.7818608E-02  0.3356587E+00
         11   -1    0    0    0    0  0.00000000000E+00  0.00000000000E+00  0.39999999674E+01  0.40000000000E+01  0.51100000000E-03 0.  1.
    9000002   -1    0    0    0    0 -0.00000000000E+00 -0.00000000000E+00  0.00000000000E+00  0.93800000000E+00  0.93800000000E+00 0.  1.
         11    1    1    2    0    0 -0.29175650718E+00 -0.10786962577E+00  0.22431169929E+01  0.22645820410E+01  0.51100000000E-03 0.  1.
    9000002    1    1    2    0    0  0.58072963265E+00  0.13814274982E+00  0.25106999164E+00  0.11398291391E+01  0.93800000000E+00 0.  1.
         22    1    1    2    0    0 -0.28897312546E+00 -0.30273124044E-01  0.15058129829E+01  0.15335888199E+01  0.00000000000E+00 0.  1.
</event>
<event>
 5    1  0.3269840E+002  0.1599675E+01  0.7818608E-02  0.3353717E+00
         11   -1    0    0    0    0  0.00000000000E+00  0.00000000000E+00  0.39999999674E+01  0.40000000000E+01  0.51100000000E-03 0.  1.
    9000002   -1    0    0    0    0 -0.00000000000E+00 -0.00000000000E+00  0.00000000000E+00  0.93800000000E+00  0.93800000000E+00 0.  1.
         11    1    1    2    0    0 -0.17108856625E-01 -0.57705229097E-01  0.76839462992E+00  0.77074845109E+00  0.51100000000E-03 0.  1.
    9000002    1    1    2    0    0  0.94606674485E-01  0.29756028714E+00  0.65116065935E-01  0.99074550182E+00  0.93800000000E+00 0.  1.
         22    1    1    2    0    0 -0.77497817860E-01 -0.23985505805E+00  0.31664892715E+01  0.31765060471E+01  0.00000000000E+00 0. -1.
</event>
<event>
 5    1  0.3269840E+002  0.1599659E+01  0.7818608E-02  0.3353734E+00
         11   -1    0    0    0    0  0.00000000000E+00  0.00000000000E+00  0.39999999674E+01  0.40000000000E+01  0.51100000000E-03 0.  1.
    9000002   -1    0    0    0    0 -0.00000000000E+00 -0.00000000000E+00  0.00000000000E+00  0.93800000000E+00  0.93800000000E+00 0.  1.
         11    1    1    2    0    0  0.46061840531E-02  0.90056143377E-02  0.17831483741E+00  0.17860224070E+00  0.51100000000E-03 0.  1.
    9000002    1    1    2    0    0 -0.81038961855E-01 -0.24059418847E+00  0.42842027897E-01  0.97269333102E+00  0.93800000000E+00 0.  1.
         22    1    1    2    0    0  0.76432777802E-01  0.23158857414E+00  0.37788431020E+01  0.37867044283E+01  0.00000000000E+00 0.  1.
</event>
<event>
 5    1  0.3269840E+002  0.1599676E+01  0.7818608E-02  0.3353715E+00
         11   -1    0    0    0    0  0.00000000000E+00  0.00000000000E+00  0.39999999674E+01  0.40000000000E+01  0.51100000000E-03 0. -1.
    9000002   -1    0    0    0    0 -0.00000000000E+00 -0.00000000000E+00  0.00000000000E+00  0.93800000000E+00  0.93800000000E+00 0.  1.
         11    1    1    2    0    0 -0.46063632432E-02 -0.32682360176E-01  0.57104748548E+00  0.57200074042E+00  0.51100000000E-03 0.  1.
    9000002    1    1    2    0    0  0.29499608472E-01  0.23130030343E+00  0.36073346126E-01  0.96722042140E+00  0.93800000000E+00 0.  1.
         22    1    1    2    0    0 -0.24893245229E-01 -0.19861794325E+00  0.33928791358E+01  0.33987788382E+01  0.00000000000E+00 0. -1.
</event>
<event>
 5    1  0.3269840E+002  0.1599660E+01  0.7818608E-02  0.3353733E+00
         11   -1    0    0    0    0  0.00000000000E+00  0.00000000000E+00  0.39999999674E+01  0.40000000000E+01  0.51100000000E-03 0.  1.
    9000002   -1    0    0    0    0 -0.00000000000E+00 -0.00000000000E+00  0.00000000000E+00  0.93800000000E+00  0.93800000000E+00 0. -1.
         11    1    1    2    0    0  0.37996862319E+00 -0.16628967312E+00  0.24804603079E+01  0.25148980119E+01  0.51100000000E-03 0.  1.
    9000002    1    1    2    0    0 -0.56975203263E+00  0.25686597178E+00  0.27403927162E+00  0.11599737189E+01  0.93800000000E+00 0. -1.
         22    1    1    2    0    0  0.18978340944E+00 -0.90576298658E-01  0.12455003878E+01  0.12631282692E+01  0.00000000000E+00 0.  1.
</event>
<event>
 5    1  0.3269840E+002  0.1599676E+01  0.7818608E-02  0.3353715E+00
         11   -1    0    0    0    0  0.00000000000E+00  0.00000000000E+00  0.39999999674E+01  0.40000000000E+01  0.51100000000E-03 0. -1.
    9000002   -1    0    0    0    0 -0.00000000000E+00 -0.00000000000E+00  0.00000000000E+00  0.93800000000E+00  0.93800000000E+00 0. -1.
         11    1    1    2    0    0 -0.35802249192E-01 -0.70056691719E-01  0.10228339568E+01  0.10258554018E+01  0.51100000000E-03 0. -1.
    9000002    1    1    2    0    0  0.13491649290E+00  0.27182334191E+00  0.61455196041E-01  0.98778091214E+00  0.93800000000E+00 0. -1.
         22    1    1    2    0    0 -0.99114243709E-01 -0.20176665019E+00  0.29157108145E+01  0.29243636861E+01  0.00000000000E+00 0. -1.
</event>
<event>
 5    1  0.3269840E+002  0.1599674E+01  0.7818608E-02  0.3353717E+00
         11   -1    0    0    0    0  0.00000000000E+00  0.00000000000E+00  0.39999999674E+01  0.40000000000E+01  0.51100000000E-03 0.  1.
    9000002   -1    0    0    0    0 -0.00000000000E+00 -0.00000000000E+00  0.00000000000E+00  0.93800000000E+00  0.93800000000E+00 0.  1.
         11    1    1    2    0    0 -0.14018544718E+00  0.36272736859E+00  0.23889496865E+01  0.24203933501E+01  0.51100000000E-03 0.  1.
    9000002    1    1    2    0    0  0.22233964154E+00 -0.56878408727E+00  0.26081281582E+00  0.11492682798E+01  0.93800000000E+00 0.  1.
         22    1    1    2    0    0 -0.82154194359E-01  0.20605671868E+00  0.13502374651E+01  0.13683383701E+01  0.00000000000E+00 0.  1.
</event>
<event>
 5    1  0.3269840E+002  0.1561153E+01  0.7818608E-02  0.3396637E+00
         11   -1    0    0    0    0  0.00000000000E+00  0.00000000000E+00  0.39999999674E+01  0.40000000000E+01  0.51100000000E-03 0. -1.
    9000002   -1    0    0    0    0 -0.00000000000E+00 -0.00000000000E+00  0.00000000000E+00  0.93800000000E+00  0.93800000000E+00 0. -1.
         11    1    1    2    0    0 -0.30233049059E+00  0.34566418834E+00  0.15244150776E+01  0.15920832411E+01  0.51100000000E-03 0. -1.
    9000002    1    1    2    0    0  0.54728662984E+00 -0.29817588369E+00  0.31283417954E+00  0.11688202328E+01  0.93800000000E+00 0. -1.
         22    1    1    2    0    0 -0.24495613926E+00 -0.47488304649E-01  0.21627507103E+01  0.21770965261E+01  0.00000000000E+00 0. -1.
</event>
<event>
 5    1  0.3269840E+002  0.1589405E+01  0.7818608E-02  0.3364943E+00
         11   -1    0    0    0    0  0.00000000000E+00  0.00000000000E+00  0.39999999674E+01  0.40000000000E+01  0.51100000000E-03 0.  1.
    9000002   -1    0    0    0    0 -0.00000000000E+00 -0.00000000000E+00  0.00000000000E+00  0.93800000000E+00  0.93800000000E+00 0.  1.
         11    1    1    2    0    0 -0.74807419927E-01 -0.13405855418E+00  0.24978682680E+01  0.25025814655E+01  0.51100000000E-03 0.  1.
    9000002    1    1    2    0    0  0.29035304887E+00  0.14580683937E+00  0.78788550390E-01  0.99579925842E+00  0.93800000000E+00 0.  1.
         22    1    1    2    0    0 -0.21554562895E+00 -0.11748285194E-01  0.14233431489E+01  0.14396192761E+01  0.00000000000E+00 0.  1.
</event>
<event>
 5    1  0.3269840E+002  0.1599667E+01  0.7818608E-02  0.3353725E+00
         11   -1    0    0    0    0  0.00000000000E+00  0.00000000000E+00  0.39999999674E+01  0.40000000000E+01  0.51100000000E-03 0. -1.
    9000002   -1    0    0    0    0 -0.00000000000E+00 -0.00000000000E+00  0.00000000000E+00  0.93800000000E+00  0.93800000000E+00 0.  1.
         11    1    1    2    0    0  0.53787342612E-01  0.52725443373E-01  0.80065923249E+00  0.80419432869E+00  0.51100000000E-03 0. -1.
    9000002    1    1    2    0    0 -0.27590152235E+00 -0.26362688857E+00  0.98007159265E-01  0.10173839932E+01  0.93800000000E+00 0.  1.
         22    1    1    2    0    0  0.22211417974E+00  0.21090144520E+00  0.31013335756E+01  0.31164216781E+01  0.00000000000E+00 0.  1.
</event>
<event>
 5    1  0.3269840E+002  0.1593108E+01  0.7818608E-02  0.3360878E+00
         11   -1    0    0    0    0  0.00000000000E+00  0.00000000000E+00  0.39999999674E+01  0.40000000000E+01  0.51100000000E-03 0.  1.
    9000002   -1    0    0    0    0 -0.00000000000E+00 -0.00000000000E+00  0.00000000000E+00  0.93800000000E+00  0.93800000000E+00 0. -1.
         11    1    1    2    0    0  0.12350435849E+00 -0.59284543761E-01  0.10301583693E+01  0.10392278435E+01  0.51100000000E-03 0.  1.
    9000002    1    1    2    0    0 -0.15409396049E+00  0.31118189402E+00  0.86124607454E-01  0.10039126296E+01  0.93800000000E+00 0. -1.
         22    1    1    2    0    0  0.30589602003E-01 -0.25189735026E+00  0.28837169906E+01  0.28948595269E+01  0.00000000000E+00 0.  1.
</event>
<event>
 5    1  0.3269840E+002  0.1595701E+01  0.7818608E-02  0.3358042E+00
         11   -1    0    0    0    0  0.00000000000E+00  0.00000000000E+00  0.39999999674E+01  0.40000000000E+01  0.51100000000E-03 0. -1.
    9000002   -1    0    0    0    0 -0.00000000000E+00 -0.00000000000E+00  0.00000000000E+00  0.93800000000E+00  0.93800000000E+00 0. -1.
         11    1    1    2    0    0  0.27168630581E-01  0.64535391803E-02  0.15090848090E+00  0.15347121354E+00  0.51100000000E-03 0. -1.
    9000002    1    1    2    0    0 -0.12693228972E+00  0.32495626627E+00  0.84802349951E-01  0.10043623946E+01  0.93800000000E+00 0. -1.
         22    1    1    2    0    0  0.99763659139E-01 -0.33140980545E+00  0.37642891365E+01  0.37801663918E+01  0.00000000000E+00 0. -1.
</event>
<event>
 5    1  0.3269840E+002  0.1599601E+01  0.7818608E-02  0.3353797E+00
         11   -1    0    0    0    0  0.00000000000E+00  0.00000000000E+00  0.39999999674E+01  0.40000000000E+01  0.51100000000E-03 0. -1.
    9000002   -1    0    0    0    0 -0.00000000000E+00 -0.00000000000E+00  0.00000000000E+00  0.93800000000E+00  0.93800000000E+00 0.  1.
         11    1    1    2    0    0 -0.96905234686E-01 -0.15865623337E+00  0.19405986217E+01  0.19494834435E+01  0.51100000000E-03 0. -1.
    9000002    1    1    2    0    0  0.19893255462E+00  0.33924869976E+00  0.10429794836E+00  0.10224411492E+01  0.93800000000E+00 0.  1.
         22    1    1    2    0    0 -0.10202731993E+00 -0.18059246639E+00  0.19551033973E+01  0.19660754072E+01  0.00000000000E+00 0. -1.
</event>
<event>
 5    1  0.3269840E+002  0.1599677E+01  0.7818608E-02  0.3353714E+00
         11   -1    0    0    0    0  0.00000000000E+00  0.00000000000E+00  0.39999999674E+01  0.40000000000E+01  0.51100000000E-03 0.  1.
    9000002   -1    0    0    0    0 -0.00000000000E+00 -0.00000000000E+00  0.00000000000E+00  0.93800000000E+00  0.93800000000E+00 0.  1.
         11    1    1    2    0    0  0.37142488978E-01  0.24221000332E-01  0.53105012969E+00  0.53289841688E+00  0.51100000000E-03 0.  1.
    9000002    1    1    2    0    0 -0.27674745072E+00 -0.18041179133E+00  0.73024751878E-01  0.99715303756E+00  0.93800000000E+00 0.  1.
         22    1    1    2    0    0  0.23960496174E+00  0.15619079100E+00  0.33959250858E+01  0.34079485456E+01  0.00000000000E+00 0.  1.
</event>
<event>
 5    1  0.3269840E+002  0.1599676E+01  0.7818608E-02  0.3353715E+00
         11   -1    0    0    0    0  0.00000000000E+00  0.00000000000E+00  0.39999999674E+01  0.40000000000E+01  0.51100000000E-03 0.  1.
    9000002   -1    0    0    0    0 -0.00000000000E+00 -0.00000000000E+00  0.00000000000E+00  0.93800000000E+00  0.93800000000E+00 0. -1.
         11    1    1    2    0    0 -0.36953304188E-01  0.39501988541E-01  0.52344370043E+00  0.52623143429E+00  0.51100000000E-03 0. -1.
    9000002    1    1    2    0    0  0.27720581406E+00 -0.29135550120E+00  0.10912160939E+00  0.10263930130E+01  0.93800000000E+00 0. -1.
         22    1    1    2    0    0 -0.24025250987E+00  0.25185351266E+00  0.33674346575E+01  0.33853755527E+01  0.00000000000E+00 0.  1.
</event>
<event>
 5    1  0.3269840E+002  0.1599663E+01  0.7818608E-02  0.3353729E+00
         11   -1    0    0    0    0  0.00000000000E+00  0.00000000000E+00  0.39999999674E+01  0.40000000000E+01  0.51100000000E-03 0. -1.
    9000002   -1    0    0    0    0 -0.00000000000E+00 -0.00000000000E+00  0.00000000000E+00  0.93800000000E+00  0.93800000000E+00 0. -1.
         11    1    1    2    0    0  0.59388015743E-02 -0.16409694412E-01  0.24381290085E+00  0.24443718862E+00  0.51100000000E-03 0.  1.
    9000002    1    1    2    0    0 -0.96356763025E-01  0.23203086898E+00  0.41946613873E-01  0.97197040508E+00  0.93800000000E+00 0. -1.
         22    1    1    2    0    0  0.90417961451E-01 -0.21562117457E+00  0.37142404526E+01  0.37215924063E+01  0.00000000000E+00 0. -1.
</event>
<event>
 5    1  0.3269840E+002  0.1506228E+01  0.7818608E-02  0.3461883E+00
         11   -1    0    0    0    0  0.00000000000E+00  0.00000000000E+00  0.39999999674E+01  0.40000000000E+01  0.51100000000E-03 0. -1.
    9000002   -1    0    0    0    0 -0.00000000000E+00 -0.00000000000E+00  0.00000000000E+00  0.93800000000E+00  0.93800000000E+00 0. -1.
         11    1    1    2    0    0 -0.18751531038E+00 -0.25271658056E+00  0.87986721764E+00  0.93444863076E+00  0.51100000000E-03 0. -1.
    9000002    1    1    2    0    0  0.22640804557E+00 -0.11470435102E+00  0.11811603227E+00  0.97888359283E+00  0.93800000000E+00 0. -1.
         22    1    1    2    0    0 -0.38892735188E-01  0.36742093158E+00  0.30020167174E+01  0.30246677764E+01  0.00000000000E+00 0. -1.
</event>
<event>
 5    1  0.3269840E+002  0.1597255E+01  0.7818608E-02  0.3356348E+00
         11   -1    0    0    0    0  0.00000000000E+00  0.00000000000E+00  0.39999999674E+01  0.40000000000E+01  0.51100000000E-03 0.  1.
    9000002   -1    0    0    0    0 -0.00000000000E+00 -0.00000000000E+00  0.00000000000E+00  0.93800000000E+00  0.93800000000E+00 0. -1.
         11    1    1    2    0    0 -0.98494596547E-02 -0.28860596848E-01  0.61050325570E+00  0.61126461720E+00  0.51100000000E-03 0.  1.
    9000002    1    1    2    0    0 -0.21216148559E+00  0.16146706051E+00  0.49149567720E-01  0.97639325459E+00  0.93800000000E+00 0. -1.
         22    1    1    2    0    0  0.22201094524E+00 -0.13260646366E+00  0.33403471439E+01  0.33503421282E+01  0.00000000000E+00 0.  1.
</event>
<event>
 5    1  0.3269840E+002  0.1599664E+01  0.7818608E-02  0.3353728E+00
         11   -1    0    0    0    0  0.00000000000E+00  0.00000000000E+00  0.39999999674E+01  0.40000000000E+01  0.51100000000E-03 0. -1.
    9000002   -1    0    0    0    0 -0.00000000000E+00 -0.00000000000E+00  0.00000000000E+00  0.93800000000E+00  0.93800000000E+00 0.  1.
         11    1    1    2    0    0 -0.86750020889E-01  0.13555804481E-01  0.96331677790E+00  0.96731008558E+00  0.51100000000E-03 0. -1.
    9000002    1    1    2    0    0  0.36677975388E+00 -0.51101127062E-01  0.92176853125E-01  0.10126595110E+01  0.93800000000E+00 0.  1.
         22    1    1    2    0    0 -0.28002973300E+00  0.37545322581E-01  0.29445063363E+01  0.29580304034E+01  0.00000000000E+00 0. -1.
</event>
<event>
 5    1  0.3269840E+002  0.1599677E+01  0.7818608E-02  0.3353714E+00
         11   -1    0    0    0    0  0.00000000000E+00  0.00000000000E+00  0.39999999674E+01  0.40000000000E+01  0.51100000000E-03 0. -1.
    9000002   -1    0    0    0    0 -0.00000000000E+00 -0.00000000000E+00  0.00000000000E+00  0.93800000000E+00  0.93800000000E+00 0.  1.
         11    1    1    2    0    0 -0.84005022297E-01  0.16134832663E-01  0.11653303726E+01  0.11684657954E+01  0.51100000000E-03 0. -1.
    9000002    1    1    2    0    0  0.28397930665E+00 -0.53199503986E-01  0.55630679275E-01  0.98306317513E+00  0.93800000000E+00 0.  1.
         22    1    1    2    0    0 -0.19997428435E+00  0.37064671324E-01  0.27790389155E+01  0.27864710294E+01  0.00000000000E+00 0. -1.
</event>
<event>
 5    1  0.3269840E+002  0.1599676E+01  0.7818608E-02  0.3353716E+00
         11   -1    0    0    0    0  0.00000000000E+00  0.00000000000E+00  0.39999999674E+01  0.40000000000E+01  0.51100000000E-03 0. -1.
    9000002   -1    0    0    0    0 -0.00000000000E+00 -0.00000000000E+00  0.00000000000E+00  0.93800000000E+00  0.93800000000E+00 0.  1.
         11    1    1    2    0    0  0.16196761717E+00  0.94683695790E-01  0.16296736390E+01  0.16404374240E+01  0.51100000000E-03 0. -1.
    9000002    1    1    2    0    0 -0.38104335654E+00 -0.22376893511E+00  0.13246642417E+00  0.10453027932E+01  0.93800000000E+00 0.  1.
         22    1    1    2    0    0  0.21907573937E+00  0.12908523932E+00  0.22378599042E+01  0.22522597828E+01  0.00000000000E+00 0. -1.
</event>
<event>
 5    1  0.3269840E+002  0.1599674E+01  0.7818608E-02  0.3353717E+00
         11   -1    0    0    0    0  0.00000000000E+00  0.00000000000E+00  0.39999999674E+01  0.40000000000E+01  0.51100000000E-03 0. -1.
    9000002   -1    0    0    0    0 -0.00000000000E+00 -0.00000000000E+00  0.00000000000E+00  0.93800000000E+00  0.93800000000E+00 0. -1.
         11    1    1    2    0    0  0.37522952298E-01  0.56772616781E-01  0.67638257651E+00  0.67979758230E+00  0.51100000000E-03 0. -1.
    9000002    1    1    2    0    0 -0.21944078917E+00 -0.31958386164E+00  0.10121702867E+00  0.10199887212E+01  0.93800000000E+00 0. -1.
         22    1    1    2    0    0  0.18191783687E+00  0.26281124486E+00  0.32224003622E+01  0.32382136965E+01  0.00000000000E+00 0. -1.
</event>
<event>
 5    1  0.3269840E+002  0.1592873E+01  0.7818608E-02  0.3361135E+00
         11   -1    0    0    0    0  0.00000000000E+00  0.00000000000E+00  0.39999999674E+01  0.40000000000E+01  0.51100000000E-03 0. -1.
    9000002   -1    0    0    0    0 -0.00000000000E+00 -0.00000000000E+00  0.00000000000E+00  0.93800000000E+00  0.93800000000E+00 0.  1.
         11    1    1    2    0    0 -0.60759684300E-01 -0.49719388203E-01  0.35462854024E+00  0.36321538992E+00  0.51100000000E-03 0. -1.
    9000002    1    1    2    0    0  0.10628459151E+00  0.26727094048E+00  0.60438795865E-01  0.98296847257E+00  0.93800000000E+00 0.  1.
         22    1    1    2    0    0 -0.45524907206E-01 -0.21755155228E+00  0.35849326313E+01  0.35918161375E+01  0.00000000000E+00 0. -1.
</event>
<event>
 5    1  0.3269840E+002  0.1599661E+01  0.7818608E-02  0.3353732E+00
         11   -1    0    0    0    0  0.00000000000E+00  0.00000000000E+00  0.39999999674E+01  0.40000000000E+01  0.51100000000E-03 0.  1.
    9000002   -1    0    0    0    0 -0.00000000000E+00 -0.00000000000E+00  0.00000000000E+00  0.93800000000E+00  0.93800000000E+00 0.  1.
         11    1    1    2    0    0  0.24933537429E-01 -0.15401403587E-01  0.43794752983E+00  0.43892731121E+00  0.51100000000E-03 0.  1.
    9000002    1    1    2    0    0 -0.24773722873E+00  0.15318509897E+00  0.56564912646E-01  0.98381044840E+00  0.93800000000E+00 0.  1.
         22    1    1    2    0    0  0.22280369130E+00 -0.13778369538E+00  0.35054875249E+01  0.35152622404E+01  0.00000000000E+00 0.  1.
</event>
<event>
 5    1  0.3269840E+002  0.1582118E+01  0.7818608E-02  0.3373003E+00
         11   -1    0    0    0    0  0.00000000000E+00  0.00000000000E+00  0.39999999674E+01  0.40000000000E+01  0.51100000000E-03 0. -1.
    9000002   -1    0    0    0    0 -0.00000000000E+00 -0.00000000000E+00  0.00000000000E+00  0.93800000000E+00  0.93800000000E+00 0. -1.
         11    1    1    2    0    0  0.98180544018E-01 -0.64853559308E-01  0.58793687419E+00  0.59959605780E+00  0.51100000000E-03 0. -1.
    9000002    1    1    2    0    0  0.72752015908E-01  0.21593095223E+00  0.47848913181E-01  0.96646394161E+00  0.93800000000E+00 0. -1.
         22    1    1    2    0    0 -0.17093255993E+00 -0.15107739292E+00  0.33642141800E+01  0.33719400006E+01  0.00000000000E+00 0. -1.
</event>
<event>
 5    1  0.3269840E+002  0.1450418E+01  0.7818608E-02  0.3533644E+00
         11   -1    0    0    0    0  0.00000000000E+00  0.00000000000E+00  0.39999999674E+01  0.40000000000E+01  0.51100000000E-03 0. -1.
    9000002   -1    0    0    0    0 -0.00000000000E+00 -0.00000000000E+00  0.00000000000E+00  0.93800000000E+00  0.93800000000E+00 0.  1.
         11    1    1    2    0    0 -0.42375354858E+00 -0.47416228722E-02  0.93124254687E+00  0.10231336644E+01  0.51100000000E-03 0. -1.
    9000002    1    1    2    0    0  0.95666363679E-01 -0.39422180088E+00  0.25393008715E+00  0.10530372123E+01  0.93800000000E+00 0.  1.
         22    1    1    2    0    0  0.32808718490E+00  0.39896342375E+00  0.28148273333E+01  0.28618291233E+01  0.00000000000E+00 0. -1.
</event>
