<event>
 5    1  0.2111786E+001  0.1510810E+01  0.7818608E-02  0.3456245E+00
         11   -1    0    0    0    0  0.00000000000E+00  0.00000000000E+00  0.39999999674E+01  0.40000000000E+01  0.51100000000E-03 0. -1.
    9000002   -1    0    0    0    0 -0.00000000000E+00 -0.00000000000E+00  0.00000000000E+00  0.93800000000E+00  0.93800000000E+00 0.  1.
         11    1    1    2    0    0  0.18431353220E+00 -0.16338872522E+00  0.30915139318E+01  0.31013103691E+01  0.51100000000E-03 0. -1.
    9000002    1    1    2    0    0 -0.54744495196E+00  0.16446943804E+00  0.31812749344E+00  0.11435887694E+01  0.93800000000E+00 0.  1.
         22    1    1    2    0    0  0.36313141976E+00 -0.10807128154E-02  0.59035854210E+00  0.69310086148E+00  0.00000000000E+00 0. -1.
</event>
<event>
 5    1  0.2111786E+001  0.1583079E+01  0.7818608E-02  0.3371936E+00
         11   -1    0    0    0    0  0.00000000000E+00  0.00000000000E+00  0.39999999674E+01  0.40000000000E+01  0.51100000000E-03 0.  1.
    9000002   -1    0    0    0    0 -0.00000000000E+00 -0.00000000000E+00  0.00000000000E+00  0.93800000000E+00  0.93800000000E+00 0.  1.
         11    1    1    2    0    0 -0.54728128525E-01 -0.72581007761E-01  0.10837509311E+01  0.10875566710E+01  0.51100000000E-03 0.  1.
    9000002    1    1    2    0    0 -0.21403382023E-02 -0.19767347809E+00  0.38400566948E-01  0.95937374809E+00  0.93800000000E+00 0.  1.
         22    1    1    2    0    0  0.56868466728E-01  0.27025448585E+00  0.28778484693E+01  0.28910695809E+01  0.00000000000E+00 0. -1.
</event>
<event>
 5    1  0.2111786E+001  0.1533332E+01  0.7818608E-02  0.3429061E+00
         11   -1    0    0    0    0  0.00000000000E+00  0.00000000000E+00  0.39999999674E+01  0.40000000000E+01  0.51100000000E-03 0. -1.
    9000002   -1    0    0    0    0 -0.00000000000E+00 -0.00000000000E+00  0.00000000000E+00  0.93800000000E+00  0.93800000000E+00 0. -1.
         11    1    1    2    0    0  0.27580380745E+00 -0.12639010785E+00  0.95282946292E+00  0.99996322237E+00  0.51100000000E-03 0. -1.
    9000002    1    1    2    0    0 -0.19716600056E+00 -0.60540482832E-01  0.79770622512E-01  0.96371517268E+00  0.93800000000E+00 0. -1.
         22    1    1    2    0    0 -0.78637806894E-01  0.18693059068E+00  0.29673998819E+01  0.29743216049E+01  0.00000000000E+00 0. -1.
</event>
<event>
 5    1  0.2111786E+001  0.1573400E+01  0.7818608E-02  0.3382749E+00
         11   -1    0    0    0    0  0.00000000000E+00  0.00000000000E+00  0.39999999674E+01  0.40000000000E+01  0.51100000000E-03 0. -1.
    9000002   -1    0    0    0    0 -0.00000000000E+00 -0.00000000000E+00  0.00000000000E+00  0.93800000000E+00  0.93800000000E+00 0.  1.
         11    1    1    2    0    0 -0.94441235303E-01  0.14968401140E+00  0.11523862773E+01  0.11658982990E+01  0.51100000000E-03 0. -1.
    9000002    1    1    2    0    0  0.22065298770E+00  0.86506704636E-01  0.57521561039E-01  0.96918722696E+00  0.93800000000E+00 0.  1.
         22    1    1    2    0    0 -0.12621175239E+00 -0.23619071604E+00  0.27900921290E+01  0.28029144741E+01  0.00000000000E+00 0. -1.
</event>
<event>
 5    1  0.2111786E+001  0.1466706E+01  0.7818608E-02  0.3512089E+00
         11   -1    0    0    0    0  0.00000000000E+00  0.00000000000E+00  0.39999999674E+01  0.40000000000E+01  0.51100000000E-03 0. -1.
    9000002   -1    0    0    0    0 -0.00000000000E+00 -0.00000000000E+00  0.00000000000E+00  0.93800000000E+00  0.93800000000E+00 0.  1.
         11    1    1    2    0    0 -0.18396765222E+00  0.41287875671E+00  0.17361007576E+01  0.17939785580E+01  0.51100000000E-03 0. -1.
    9000002    1    1    2    0    0 -0.23278495607E-01 -0.49668777060E-01  0.10552430988E+00  0.94550952177E+00  0.93800000000E+00 0.  1.
         22    1    1    2    0    0  0.20724614783E+00 -0.36320997965E+00  0.21583748998E+01  0.21985119202E+01  0.00000000000E+00 0. -1.
</event>
<event>
 5    1  0.2111786E+001  0.1500457E+01  0.7818608E-02  0.3469036E+00
         11   -1    0    0    0    0  0.00000000000E+00  0.00000000000E+00  0.39999999674E+01  0.40000000000E+01  0.51100000000E-03 0. -1.
    9000002   -1    0    0    0    0 -0.00000000000E+00 -0.00000000000E+00  0.00000000000E+00  0.93800000000E+00  0.93800000000E+00 0. -1.
         11    1    1    2    0    0  0.25438042459E+00 -0.27946678350E+00  0.97347701451E+00  0.10442551615E+01  0.51100000000E-03 0. -1.
    9000002    1    1    2    0    0 -0.23602910912E+00  0.41397524893E-01  0.11783245481E+00  0.97527021016E+00  0.93800000000E+00 0. -1.
         22    1    1    2    0    0 -0.18351315470E-01  0.23806925861E+00  0.29086904980E+01  0.29184746283E+01  0.00000000000E+00 0. -1.
</event>
<event>
 5    1  0.2111786E+001  0.1320138E+01  0.7818608E-02  0.3744118E+00
         11   -1    0    0    0    0  0.00000000000E+00  0.00000000000E+00  0.39999999674E+01  0.40000000000E+01  0.51100000000E-03 0. -1.
    9000002   -1    0    0    0    0 -0.00000000000E+00 -0.00000000000E+00  0.00000000000E+00  0.93800000000E+00  0.93800000000E+00 0. -1.
         11    1    1    2    0    0  0.12350457940E+00  0.68271625604E+00  0.25622316403E+01  0.26545029868E+01  0.51100000000E-03 0. -1.
    9000002    1    1    2    0    0  0.39264795962E+00 -0.40351833905E+00  0.56364968288E+00  0.12306682880E+01  0.93800000000E+00 0. -1.
         22    1    1    2    0    0 -0.51615253902E+00 -0.27919791699E+00  0.87411864415E+00  0.10528287251E+01  0.00000000000E+00 0. -1.
</event>
<event>
 5    1  0.2111786E+001  0.1462714E+01  0.7818608E-02  0.3517323E+00
         11   -1    0    0    0    0  0.00000000000E+00  0.00000000000E+00  0.39999999674E+01  0.40000000000E+01  0.51100000000E-03 0.  1.
    9000002   -1    0    0    0    0 -0.00000000000E+00 -0.00000000000E+00  0.00000000000E+00  0.93800000000E+00  0.93800000000E+00 0.  1.
         11    1    1    2    0    0 -0.42279368109E+00 -0.11555065404E+00  0.16866128925E+01  0.17426329966E+01  0.51100000000E-03 0.  1.
    9000002    1    1    2    0    0  0.13293215691E+00 -0.30711384094E+00  0.19366050343E+00  0.10145630883E+01  0.93800000000E+00 0.  1.
         22    1    1    2    0    0  0.28986152417E+00  0.42266449497E+00  0.21197265714E+01  0.21808039151E+01  0.00000000000E+00 0.  1.
</event>
<event>
 5    1  0.2111786E+001  0.1533998E+01  0.7818608E-02  0.3428270E+00
         11   -1    0    0    0    0  0.00000000000E+00  0.00000000000E+00  0.39999999674E+01  0.40000000000E+01  0.51100000000E-03 0. -1.
    9000002   -1    0    0    0    0 -0.00000000000E+00 -0.00000000000E+00  0.00000000000E+00  0.93800000000E+00  0.93800000000E+00 0. -1.
         11    1    1    2    0    0  0.29293183815E+00  0.18871819024E+00  0.25844430741E+01  0.26078285759E+01  0.51100000000E-03 0. -1.
    9000002    1    1    2    0    0 -0.17566863670E-02 -0.27032948508E+00  0.10112400968E+00  0.98140266037E+00  0.93800000000E+00 0. -1.
         22    1    1    2    0    0 -0.29117515178E+00  0.81611294846E-01  0.13144328836E+01  0.13487687637E+01  0.00000000000E+00 0. -1.
</event>
<event>
 5    1  0.2715537E+001  0.1565751E+01  0.7818608E-02  0.3391397E+00
         11   -1    0    0    0    0  0.00000000000E+00  0.00000000000E+00  0.39999999674E+01  0.40000000000E+01  0.51100000000E-03 0.  1.
    9000002   -1    0    0    0    0 -0.00000000000E+00 -0.00000000000E+00  0.00000000000E+00  0.93800000000E+00  0.93800000000E+00 0. -1.
         11    1    1    2    0    0  0.18563572054E+00 -0.14323606978E+00  0.22244492724E+01  0.22367726793E+01  0.51100000000E-03 0.  1.
    9000002    1    1    2    0    0 -0.84968545570E-02  0.32036969132E-01  0.25715979539E-01  0.93893763133E+00  0.93800000000E+00 0. -1.
         22    1    1    2    0    0 -0.17713886599E+00  0.11119910065E+00  0.17498347155E+01  0.17622896894E+01  0.00000000000E+00 0.  1.
</event>
<event>
 5    1  0.2111786E+001  0.1552746E+01  0.7818608E-02  0.3406305E+00
         11   -1    0    0    0    0  0.00000000000E+00  0.00000000000E+00  0.39999999674E+01  0.40000000000E+01  0.51100000000E-03 0.  1.
    9000002   -1    0    0    0    0 -0.00000000000E+00 -0.00000000000E+00  0.00000000000E+00  0.93800000000E+00  0.93800000000E+00 0.  1.
         11    1    1    2    0    0 -0.26501630596E+00  0.16512618294E-01  0.25389223713E+01  0.25527697463E+01  0.51100000000E-03 0.  1.
    9000002    1    1    2    0    0  0.24336705141E-01  0.69164470462E-02  0.35208704370E-01  0.93900147248E+00  0.93800000000E+00 0.  1.
         22    1    1    2    0    0  0.24067960082E+00 -0.23429065340E-01  0.14258688917E+01  0.14462287813E+01  0.00000000000E+00 0.  1.
</event>
<event>
 5    1  0.2111786E+001  0.1577965E+01  0.7818608E-02  0.3377632E+00
         11   -1    0    0    0    0  0.00000000000E+00  0.00000000000E+00  0.39999999674E+01  0.40000000000E+01  0.51100000000E-03 0. -1.
    9000002   -1    0    0    0    0 -0.00000000000E+00 -0.00000000000E+00  0.00000000000E+00  0.93800000000E+00  0.93800000000E+00 0. -1.
         11    1    1    2    0    0 -0.17395216455E+00 -0.38037864628E-01  0.14707145331E+01  0.14814546006E+01  0.51100000000E-03 0. -1.
    9000002    1    1    2    0    0  0.99297823158E-01 -0.17453658658E+00  0.43151495168E-01  0.96022347882E+00  0.93800000000E+00 0. -1.
         22    1    1    2    0    0  0.74654341391E-01  0.21257445120E+00  0.24861339391E+01  0.24963219206E+01  0.00000000000E+00 0.  1.
</event>
<event>
 5    1  0.2111786E+001  0.1545423E+01  0.7818608E-02  0.3414817E+00
         11   -1    0    0    0    0  0.00000000000E+00  0.00000000000E+00  0.39999999674E+01  0.40000000000E+01  0.51100000000E-03 0. -1.
    9000002   -1    0    0    0    0 -0.00000000000E+00 -0.00000000000E+00  0.00000000000E+00  0.93800000000E+00  0.93800000000E+00 0.  1.
         11    1    1    2    0    0  0.14050562269E+00 -0.15440972504E+00  0.60798838379E+00  0.64283304920E+00  0.51100000000E-03 0. -1.
    9000002    1    1    2    0    0  0.10045358369E+00  0.14409690520E+00  0.61876047423E-01  0.95630930447E+00  0.93800000000E+00 0.  1.
         22    1    1    2    0    0 -0.24095920638E+00  0.10312819842E-01  0.33301355361E+01  0.33388576463E+01  0.00000000000E+00 0. -1.
</event>
<event>
 5    1  0.2111786E+001  0.1544270E+01  0.7818608E-02  0.3416164E+00
         11   -1    0    0    0    0  0.00000000000E+00  0.00000000000E+00  0.39999999674E+01  0.40000000000E+01  0.51100000000E-03 0.  1.
    9000002   -1    0    0    0    0 -0.00000000000E+00 -0.00000000000E+00  0.00000000000E+00  0.93800000000E+00  0.93800000000E+00 0. -1.
         11    1    1    2    0    0 -0.65380772763E-01  0.18669610603E+00  0.69256022879E+00  0.72025690769E+00  0.51100000000E-03 0.  1.
    9000002    1    1    2    0    0 -0.10730663209E+00  0.72081888444E-01  0.52872932273E-01  0.94834068715E+00  0.93800000000E+00 0. -1.
         22    1    1    2    0    0  0.17268740485E+00 -0.25877799448E+00  0.32545668063E+01  0.32694024052E+01  0.00000000000E+00 0.  1.
</event>
<event>
 5    1  0.2111786E+001  0.1595985E+01  0.7818608E-02  0.3357733E+00
         11   -1    0    0    0    0  0.00000000000E+00  0.00000000000E+00  0.39999999674E+01  0.40000000000E+01  0.51100000000E-03 0. -1.
    9000002   -1    0    0    0    0 -0.00000000000E+00 -0.00000000000E+00  0.00000000000E+00  0.93800000000E+00  0.93800000000E+00 0.  1.
         11    1    1    2    0    0 -0.93067701161E-01  0.77466557717E-02  0.59494283704E+00  0.60222823593E+00  0.51100000000E-03 0. -1.
    9000002    1    1    2    0    0  0.27297456523E+00 -0.11088830664E+00  0.60771462399E-01  0.98506268859E+00  0.93800000000E+00 0.  1.
         22    1    1    2    0    0 -0.17990686407E+00  0.10314165087E+00  0.33442856679E+01  0.33507090755E+01  0.00000000000E+00 0. -1.
</event>
<event>
 5    1  0.2111786E+001  0.1540997E+01  0.7818608E-02  0.3420003E+00
         11   -1    0    0    0    0  0.00000000000E+00  0.00000000000E+00  0.39999999674E+01  0.40000000000E+01  0.51100000000E-03 0. -1.
    9000002   -1    0    0    0    0 -0.00000000000E+00 -0.00000000000E+00  0.00000000000E+00  0.93800000000E+00  0.93800000000E+00 0.  1.
         11    1    1    2    0    0 -0.44087401763E-01  0.24610024052E+00  0.12591916905E+01  0.12837729557E+01  0.51100000000E-03 0. -1.
    9000002    1    1    2    0    0 -0.78182755558E-01  0.52858470544E-01  0.49955590231E-01  0.94405832562E+00  0.93800000000E+00 0.  1.
         22    1    1    2    0    0  0.12227015732E+00 -0.29895871106E+00  0.26908526866E+01  0.27101687186E+01  0.00000000000E+00 0. -1.
</event>
<event>
 5    1  0.2111786E+001  0.1540920E+01  0.7818608E-02  0.3420093E+00
         11   -1    0    0    0    0  0.00000000000E+00  0.00000000000E+00  0.39999999674E+01  0.40000000000E+01  0.51100000000E-03 0. -1.
    9000002   -1    0    0    0    0 -0.00000000000E+00 -0.00000000000E+00  0.00000000000E+00  0.93800000000E+00  0.93800000000E+00 0.  1.
         11    1    1    2    0    0 -0.18409926531E+00  0.26355494307E+00  0.21602568180E+01  0.21840475105E+01  0.51100000000E-03 0. -1.
    9000002    1    1    2    0    0  0.29829319794E+00  0.46503780640E-01  0.10836399227E+00  0.99132647920E+00  0.93800000000E+00 0.  1.
         22    1    1    2    0    0 -0.11419393263E+00 -0.31005872371E+00  0.17313791571E+01  0.17626260103E+01  0.00000000000E+00 0. -1.
</event>
<event>
 5    1  0.2111786E+001  0.1532645E+01  0.7818608E-02  0.3429878E+00
         11   -1    0    0    0    0  0.00000000000E+00  0.00000000000E+00  0.39999999674E+01  0.40000000000E+01  0.51100000000E-03 0.  1.
    9000002   -1    0    0    0    0 -0.00000000000E+00 -0.00000000000E+00  0.00000000000E+00  0.93800000000E+00  0.93800000000E+00 0.  1.
         11    1    1    2    0    0  0.23494129259E+00 -0.93097447896E-01  0.62194059963E+00  0.67132325773E+00  0.51100000000E-03 0.  1.
    9000002    1    1    2    0    0 -0.60818038060E-01  0.24792177053E+00  0.96541516335E-01  0.97689728346E+00  0.93800000000E+00 0.  1.
         22    1    1    2    0    0 -0.17412325453E+00 -0.15482432263E+00  0.32815178514E+01  0.32897794588E+01  0.00000000000E+00 0.  1.
</event>
<event>
 5    1  0.2111786E+001  0.1581820E+01  0.7818608E-02  0.3373335E+00
         11   -1    0    0    0    0  0.00000000000E+00  0.00000000000E+00  0.39999999674E+01  0.40000000000E+01  0.51100000000E-03 0. -1.
    9000002   -1    0    0    0    0 -0.00000000000E+00 -0.00000000000E+00  0.00000000000E+00  0.93800000000E+00  0.93800000000E+00 0.  1.
         11    1    1    2    0    0  0.55328667114E-01  0.13090263982E+00  0.11681925942E+01  0.11768054048E+01  0.51100000000E-03 0. -1.
    9000002    1    1    2    0    0  0.15608956088E+00 -0.84498741422E-01  0.34232847678E-01  0.95525906234E+00  0.93800000000E+00 0.  1.
         22    1    1    2    0    0 -0.21141822800E+00 -0.46403898401E-01  0.27975745255E+01  0.28059355328E+01  0.00000000000E+00 0. -1.
</event>
<event>
 5    1  0.2111786E+001  0.1569638E+01  0.7818608E-02  0.3386991E+00
         11   -1    0    0    0    0  0.00000000000E+00  0.00000000000E+00  0.39999999674E+01  0.40000000000E+01  0.51100000000E-03 0.  1.
    9000002   -1    0    0    0    0 -0.00000000000E+00 -0.00000000000E+00  0.00000000000E+00  0.93800000000E+00  0.93800000000E+00 0.  1.
         11    1    1    2    0    0 -0.16185166799E+00 -0.79375525172E-01  0.87855190929E+00  0.89685570459E+00  0.51100000000E-03 0.  1.
    9000002    1    1    2    0    0 -0.44410447775E-01  0.23079757501E+00  0.59823690650E-01  0.96884605715E+00  0.93800000000E+00 0.  1.
         22    1    1    2    0    0  0.20626211576E+00 -0.15142204984E+00  0.30616243674E+01  0.30722982383E+01  0.00000000000E+00 0.  1.
</event>
<event>
 5    1  0.2111786E+001  0.1577325E+01  0.7818608E-02  0.3378348E+00
         11   -1    0    0    0    0  0.00000000000E+00  0.00000000000E+00  0.39999999674E+01  0.40000000000E+01  0.51100000000E-03 0. -1.
    9000002   -1    0    0    0    0 -0.00000000000E+00 -0.00000000000E+00  0.00000000000E+00  0.93800000000E+00  0.93800000000E+00 0.  1.
         11    1    1    2    0    0  0.98086227410E-01  0.51624284292E-01  0.17087281424E+01  0.17123195089E+01  0.51100000000E-03 0. -1.
    9000002    1    1    2    0    0  0.10526257969E+00  0.12568338033E+00  0.34504579491E-01  0.95284368539E+00  0.93800000000E+00 0.  1.
         22    1    1    2    0    0 -0.20334880710E+00 -0.17730766462E+00  0.22567672455E+01  0.22728368057E+01  0.00000000000E+00 0. -1.
</event>
<event>
 5    1  0.2111786E+001  0.1554750E+01  0.7818608E-02  0.3403990E+00
         11   -1    0    0    0    0  0.00000000000E+00  0.00000000000E+00  0.39999999674E+01  0.40000000000E+01  0.51100000000E-03 0.  1.
    9000002   -1    0    0    0    0 -0.00000000000E+00 -0.00000000000E+00  0.00000000000E+00  0.93800000000E+00  0.93800000000E+00 0. -1.
         11    1    1    2    0    0  0.24666147086E+00  0.11467577497E+00  0.18420166151E+01  0.18619929876E+01  0.51100000000E-03 0.  1.
    9000002    1    1    2    0    0 -0.46553017936E-01  0.87295673851E-02  0.34792295641E-01  0.93983929087E+00  0.93800000000E+00 0. -1.
         22    1    1    2    0    0 -0.20010845293E+00 -0.12340534236E+00  0.21231910566E+01  0.21361677215E+01  0.00000000000E+00 0.  1.
</event>
<event>
 5    1  0.2111786E+001  0.1593864E+01  0.7818608E-02  0.3360050E+00
         11   -1    0    0    0    0  0.00000000000E+00  0.00000000000E+00  0.39999999674E+01  0.40000000000E+01  0.51100000000E-03 0.  1.
    9000002   -1    0    0    0    0 -0.00000000000E+00 -0.00000000000E+00  0.00000000000E+00  0.93800000000E+00  0.93800000000E+00 0. -1.
         11    1    1    2    0    0 -0.11847542468E+00 -0.51807298338E-01  0.66039057093E+00  0.67293119241E+00  0.51100000000E-03 0.  1.
    9000002    1    1    2    0    0  0.36708216833E+00  0.67100948654E-01  0.98382253566E-01  0.10142854250E+01  0.93800000000E+00 0. -1.
         22    1    1    2    0    0 -0.24860674365E+00 -0.15293650315E-01  0.32412271429E+01  0.32507833826E+01  0.00000000000E+00 0.  1.
</event>
<event>
 5    1  0.2111786E+001  0.1493602E+01  0.7818608E-02  0.3477611E+00
         11   -1    0    0    0    0  0.00000000000E+00  0.00000000000E+00  0.39999999674E+01  0.40000000000E+01  0.51100000000E-03 0.  1.
    9000002   -1    0    0    0    0 -0.00000000000E+00 -0.00000000000E+00  0.00000000000E+00  0.93800000000E+00  0.93800000000E+00 0.  1.
         11    1    1    2    0    0  0.11627810377E+00 -0.25285915884E+00  0.49015766273E+00  0.56366048919E+00  0.51100000000E-03 0.  1.
    9000002    1    1    2    0    0 -0.17580714000E+00  0.19716177299E-01  0.10420028710E+00  0.96020757024E+00  0.93800000000E+00 0.  1.
         22    1    1    2    0    0  0.59529036229E-01  0.23314298155E+00  0.34056420175E+01  0.34141319406E+01  0.00000000000E+00 0.  1.
</event>
<event>
 5    1  0.2111786E+001  0.1517045E+01  0.7818608E-02  0.3448633E+00
         11   -1    0    0    0    0  0.00000000000E+00  0.00000000000E+00  0.39999999674E+01  0.40000000000E+01  0.51100000000E-03 0. -1.
    9000002   -1    0    0    0    0 -0.00000000000E+00 -0.00000000000E+00  0.00000000000E+00  0.93800000000E+00  0.93800000000E+00 0. -1.
         11    1    1    2    0    0  0.11279889962E+00 -0.54255889774E+00  0.22853341915E+01  0.23515625395E+01  0.51100000000E-03 0. -1.
    9000002    1    1    2    0    0 -0.14770351218E+00  0.34153680104E+00  0.16393437378E+00  0.10223415246E+01  0.93800000000E+00 0. -1.
         22    1    1    2    0    0  0.34904612554E-01  0.20102209670E+00  0.15507314021E+01  0.15640959359E+01  0.00000000000E+00 0.  1.
</event>
<event>
 5    1  0.2111786E+001  0.1491825E+01  0.7818608E-02  0.3479846E+00
         11   -1    0    0    0    0  0.00000000000E+00  0.00000000000E+00  0.39999999674E+01  0.40000000000E+01  0.51100000000E-03 0. -1.
    9000002   -1    0    0    0    0 -0.00000000000E+00 -0.00000000000E+00  0.00000000000E+00  0.93800000000E+00  0.93800000000E+00 0. -1.
         11    1    1    2    0    0  0.17375465956E+00  0.49214664836E-01  0.35724001720E+01  0.35769618414E+01  0.51100000000E-03 0. -1.
    9000002    1    1    2    0    0  0.41096825088E-01  0.54304698800E-01  0.85958127636E-01  0.94438908774E+00  0.93800000000E+00 0. -1.
         22    1    1    2    0    0 -0.21485148465E+00 -0.10351936364E+00  0.34164166774E+00  0.41664907085E+00  0.00000000000E+00 0. -1.
</event>
<event>
 5    1  0.2111786E+001  0.1599467E+01  0.7818608E-02  0.3353942E+00
         11   -1    0    0    0    0  0.00000000000E+00  0.00000000000E+00  0.39999999674E+01  0.40000000000E+01  0.51100000000E-03 0.  1.
    9000002   -1    0    0    0    0 -0.00000000000E+00 -0.00000000000E+00  0.00000000000E+00  0.93800000000E+00  0.93800000000E+00 0.  1.
         11    1    1    2    0    0 -0.10847629958E+00  0.13753234321E+00  0.20016684819E+01  0.20093180997E+01  0.51100000000E-03 0.  1.
    9000002    1    1    2    0    0  0.22973485380E+00 -0.29728413793E+00  0.95098436849E-01  0.10149106731E+01  0.93800000000E+00 0.  1.
         22    1    1    2    0    0 -0.12125855422E+00  0.15975179472E+00  0.19032330486E+01  0.19137712272E+01  0.00000000000E+00 0.  1.
</event>
<event>
 5    1  0.2111786E+001  0.1558107E+01  0.7818608E-02  0.3400126E+00
         11   -1    0    0    0    0  0.00000000000E+00  0.00000000000E+00  0.39999999674E+01  0.40000000000E+01  0.51100000000E-03 0. -1.
    9000002   -1    0    0    0    0 -0.00000000000E+00 -0.00000000000E+00  0.00000000000E+00  0.93800000000E+00  0.93800000000E+00 0. -1.
         11    1    1    2    0    0 -0.25032830827E+00  0.25166574747E-01  0.20902119337E+01  0.21052989829E+01  0.51100000000E-03 0. -1.
    9000002    1    1    2    0    0  0.20878805203E-01  0.51434453368E-01  0.32824724813E-01  0.94021427880E+00  0.93800000000E+00 0. -1.
         22    1    1    2    0    0  0.22944950307E+00 -0.76601028116E-01  0.18769633088E+01  0.18924867383E+01  0.00000000000E+00 0. -1.
</event>
<event>
 5    1  0.2111786E+001  0.1516443E+01  0.7818608E-02  0.3449365E+00
         11   -1    0    0    0    0  0.00000000000E+00  0.00000000000E+00  0.39999999674E+01  0.40000000000E+01  0.51100000000E-03 0.  1.
    9000002   -1    0    0    0    0 -0.00000000000E+00 -0.00000000000E+00  0.00000000000E+00  0.93800000000E+00  0.93800000000E+00 0. -1.
         11    1    1    2    0    0 -0.31664236598E+00  0.84772432263E-01  0.11105532280E+01  0.11579194647E+01  0.51100000000E-03 0.  1.
    9000002    1    1    2    0    0  0.69683837716E-01  0.61108198972E-01  0.69003438065E-01  0.94509021987E+00  0.93800000000E+00 0. -1.
         22    1    1    2    0    0  0.24695852826E+00 -0.14588063123E+00  0.28204433013E+01  0.28349903155E+01  0.00000000000E+00 0. -1.
</event>
<event>
 5    1  0.2111786E+001  0.1552229E+01  0.7818608E-02  0.3406903E+00
         11   -1    0    0    0    0  0.00000000000E+00  0.00000000000E+00  0.39999999674E+01  0.40000000000E+01  0.51100000000E-03 0.  1.
    9000002   -1    0    0    0    0 -0.00000000000E+00 -0.00000000000E+00  0.00000000000E+00  0.93800000000E+00  0.93800000000E+00 0. -1.
         11    1    1    2    0    0 -0.22123274014E+00 -0.27429765616E+00  0.13590028237E+01  0.14039487403E+01  0.51100000000E-03 0.  1.
    9000002    1    1    2    0    0  0.36420955003E+00  0.11498118042E+00  0.13825166088E+00  0.10221676917E+01  0.93800000000E+00 0. -1.
         22    1    1    2    0    0 -0.14297680989E+00  0.15931647574E+00  0.25027454828E+01  0.25118835680E+01  0.00000000000E+00 0.  1.
</event>
<event>
 5    1  0.2111786E+001  0.1573141E+01  0.7818608E-02  0.3383042E+00
         11   -1    0    0    0    0  0.00000000000E+00  0.00000000000E+00  0.39999999674E+01  0.40000000000E+01  0.51100000000E-03 0.  1.
    9000002   -1    0    0    0    0 -0.00000000000E+00 -0.00000000000E+00  0.00000000000E+00  0.93800000000E+00  0.93800000000E+00 0. -1.
         11    1    1    2    0    0 -0.11513140991E+00 -0.97643815935E-01  0.10037851271E+01  0.10150735928E+01  0.51100000000E-03 0.  1.
    9000002    1    1    2    0    0 -0.17192929316E-01 -0.94631352515E-01  0.25713108404E-01  0.94326870702E+00  0.93800000000E+00 0. -1.
         22    1    1    2    0    0  0.13232433923E+00  0.19227516845E+00  0.29705017319E+01  0.29796577002E+01  0.00000000000E+00 0.  1.
</event>
<event>
 5    1  0.2111786E+001  0.1521688E+01  0.7818608E-02  0.3443008E+00
         11   -1    0    0    0    0  0.00000000000E+00  0.00000000000E+00  0.39999999674E+01  0.40000000000E+01  0.51100000000E-03 0.  1.
    9000002   -1    0    0    0    0 -0.00000000000E+00 -0.00000000000E+00  0.00000000000E+00  0.93800000000E+00  0.93800000000E+00 0.  1.
         11    1    1    2    0    0  0.24542686470E+00 -0.78300677222E-01  0.71897864771E+00  0.76373810888E+00  0.51100000000E-03 0.  1.
    9000002    1    1    2    0    0 -0.43781716555E-02 -0.83482433764E-01  0.63700262731E-01  0.94386980490E+00  0.93800000000E+00 0.  1.
         22    1    1    2    0    0 -0.24104869304E+00  0.16178311099E+00  0.32173210569E+01  0.32303920862E+01  0.00000000000E+00 0.  1.
</event>
<event>
 5    1  0.4652936E+001  0.1566352E+01  0.7818608E-02  0.3390714E+00
         11   -1    0    0    0    0  0.00000000000E+00  0.00000000000E+00  0.39999999674E+01  0.40000000000E+01  0.51100000000E-03 0.  1.
    9000002   -1    0    0    0    0 -0.00000000000E+00 -0.00000000000E+00  0.00000000000E+00  0.93800000000E+00  0.93800000000E+00 0.  1.
         11    1    1    2    0    0  0.21883727006E+00  0.55233279499E-01  0.22199540213E+01  0.22313978990E+01  0.51100000000E-03 0.  1.
    9000002    1    1    2    0    0 -0.18227327521E-01  0.15098357874E-01  0.24899686658E-01  0.93862888847E+00  0.93800000000E+00 0.  1.
         22    1    1    2    0    0 -0.20060994254E+00 -0.70331637373E-01  0.17551462594E+01  0.17679732125E+01  0.00000000000E+00 0.  1.
</event>
<event>
 5    1  0.2111786E+001  0.1576479E+01  0.7818608E-02  0.3379295E+00
         11   -1    0    0    0    0  0.00000000000E+00  0.00000000000E+00  0.39999999674E+01  0.40000000000E+01  0.51100000000E-03 0. -1.
    9000002   -1    0    0    0    0 -0.00000000000E+00 -0.00000000000E+00  0.00000000000E+00  0.93800000000E+00  0.93800000000E+00 0. -1.
         11    1    1    2    0    0 -0.80944963630E-01  0.78897012926E-01  0.67869251232E+00  0.68804114208E+00  0.51100000000E-03 0. -1.
    9000002    1    1    2    0    0 -0.17136821138E+00  0.25610898723E-01  0.37282384233E-01  0.95459779917E+00  0.93800000000E+00 0. -1.
         22    1    1    2    0    0  0.25231317501E+00 -0.10450791165E+00  0.32840250708E+01  0.32953610588E+01  0.00000000000E+00 0. -1.
</event>
<event>
 5    1  0.2111786E+001  0.1573994E+01  0.7818608E-02  0.3382082E+00
         11   -1    0    0    0    0  0.00000000000E+00  0.00000000000E+00  0.39999999674E+01  0.40000000000E+01  0.51100000000E-03 0.  1.
    9000002   -1    0    0    0    0 -0.00000000000E+00 -0.00000000000E+00  0.00000000000E+00  0.93800000000E+00  0.93800000000E+00 0.  1.
         11    1    1    2    0    0  0.16251887946E+00 -0.16302535617E-01  0.13524387889E+01  0.13622661625E+01  0.51100000000E-03 0.  1.
    9000002    1    1    2    0    0  0.58743914971E-01  0.75406688957E-01  0.24997416264E-01  0.94318921066E+00  0.93800000000E+00 0.  1.
         22    1    1    2    0    0 -0.22126279443E+00 -0.59104153341E-01  0.26225637622E+01  0.26325446268E+01  0.00000000000E+00 0.  1.
</event>
<event>
 5    1  0.2111786E+001  0.1521191E+01  0.7818608E-02  0.3443608E+00
         11   -1    0    0    0    0  0.00000000000E+00  0.00000000000E+00  0.39999999674E+01  0.40000000000E+01  0.51100000000E-03 0.  1.
    9000002   -1    0    0    0    0 -0.00000000000E+00 -0.00000000000E+00  0.00000000000E+00  0.93800000000E+00  0.93800000000E+00 0.  1.
         11    1    1    2    0    0 -0.40163001645E+00 -0.19648772451E+00  0.19086736616E+01  0.19603442309E+01  0.51100000000E-03 0.  1.
    9000002    1    1    2    0    0  0.14101504561E+00  0.27680033965E+00  0.12902044467E+00  0.99649081595E+00  0.93800000000E+00 0.  1.
         22    1    1    2    0    0  0.26061497084E+00 -0.80312615147E-01  0.19623058611E+01  0.19811649531E+01  0.00000000000E+00 0.  1.
</event>
<event>
 5    1  0.2111786E+001  0.1490786E+01  0.7818608E-02  0.3481157E+00
         11   -1    0    0    0    0  0.00000000000E+00  0.00000000000E+00  0.39999999674E+01  0.40000000000E+01  0.51100000000E-03 0. -1.
    9000002   -1    0    0    0    0 -0.00000000000E+00 -0.00000000000E+00  0.00000000000E+00  0.93800000000E+00  0.93800000000E+00 0. -1.
         11    1    1    2    0    0 -0.49617043401E-01 -0.14939747616E+00  0.36183070986E-01  0.16152687896E+00  0.51100000000E-03 0. -1.
    9000002    1    1    2    0    0 -0.28075095678E+00 -0.47694127024E+00  0.42757089822E+00  0.11700234818E+01  0.93800000000E+00 0. -1.
         22    1    1    2    0    0  0.33036800018E+00  0.62633874641E+00  0.35362459982E+01  0.36064496392E+01  0.00000000000E+00 0. -1.
</event>
<event>
 5    1  0.2111786E+001  0.1564233E+01  0.7818608E-02  0.3393123E+00
         11   -1    0    0    0    0  0.00000000000E+00  0.00000000000E+00  0.39999999674E+01  0.40000000000E+01  0.51100000000E-03 0.  1.
    9000002   -1    0    0    0    0 -0.00000000000E+00 -0.00000000000E+00  0.00000000000E+00  0.93800000000E+00  0.93800000000E+00 0.  1.
         11    1    1    2    0    0 -0.60487171562E-02 -0.27143642657E+00  0.15716345115E+01  0.15949136715E+01  0.51100000000E-03 0.  1.
    9000002    1    1    2    0    0  0.19030913579E+00  0.15171033870E+00  0.66843406404E-01  0.97136277210E+00  0.93800000000E+00 0.  1.
         22    1    1    2    0    0 -0.18426041863E+00  0.11972608787E+00  0.23615220494E+01  0.23717235564E+01  0.00000000000E+00 0.  1.
</event>
<event>
 5    1  0.2111786E+001  0.1560085E+01  0.7818608E-02  0.3397859E+00
         11   -1    0    0    0    0  0.00000000000E+00  0.00000000000E+00  0.39999999674E+01  0.40000000000E+01  0.51100000000E-03 0. -1.
    9000002   -1    0    0    0    0 -0.00000000000E+00 -0.00000000000E+00  0.00000000000E+00  0.93800000000E+00  0.93800000000E+00 0.  1.
         11    1    1    2    0    0 -0.38135856111E-01 -0.20772143936E+00  0.20830469140E+01  0.20937256857E+01  0.51100000000E-03 0. -1.
    9000002    1    1    2    0    0  0.10202097597E-02 -0.54240047981E-01  0.31235762702E-01  0.94008653671E+00  0.93800000000E+00 0.  1.
         22    1    1    2    0    0  0.37115646352E-01  0.26196148734E+00  0.18857172906E+01  0.19041877776E+01  0.00000000000E+00 0. -1.
</event>
<event>
 5    1  0.2111786E+001  0.1584651E+01  0.7818608E-02  0.3370192E+00
         11   -1    0    0    0    0  0.00000000000E+00  0.00000000000E+00  0.39999999674E+01  0.40000000000E+01  0.51100000000E-03 0. -1.
    9000002   -1    0    0    0    0 -0.00000000000E+00 -0.00000000000E+00  0.00000000000E+00  0.93800000000E+00  0.93800000000E+00 0.  1.
         11    1    1    2    0    0  0.17415676773E-01 -0.82349506764E-01  0.42275388949E+00  0.43105203777E+00  0.51100000000E-03 0. -1.
    9000002    1    1    2    0    0  0.25313946846E+00  0.23130810724E-01  0.54530080566E-01  0.97336126622E+00  0.93800000000E+00 0.  1.
         22    1    1    2    0    0 -0.27055514523E+00  0.59218696040E-01  0.35227159973E+01  0.35335866960E+01  0.00000000000E+00 0. -1.
</event>
<event>
 5    1  0.2111786E+001  0.1447793E+01  0.7818608E-02  0.3537168E+00
         11   -1    0    0    0    0  0.00000000000E+00  0.00000000000E+00  0.39999999674E+01  0.40000000000E+01  0.51100000000E-03 0.  1.
    9000002   -1    0    0    0    0 -0.00000000000E+00 -0.00000000000E+00  0.00000000000E+00  0.93800000000E+00  0.93800000000E+00 0.  1.
         11    1    1    2    0    0  0.26090076581E+00 -0.33886702125E+00  0.85637794430E+00  0.95722699100E+00  0.51100000000E-03 0.  1.
    9000002    1    1    2    0    0 -0.15105847078E+00  0.61348883955E-01  0.13993438791E+00  0.96229308429E+00  0.93800000000E+00 0.  1.
         22    1    1    2    0    0 -0.10984229503E+00  0.27751813729E+00  0.30036876352E+01  0.30184799247E+01  0.00000000000E+00 0.  1.
</event>
<event>
 5    1  0.2111786E+001  0.1552483E+01  0.7818608E-02  0.3406609E+00
         11   -1    0    0    0    0  0.00000000000E+00  0.00000000000E+00  0.39999999674E+01  0.40000000000E+01  0.51100000000E-03 0.  1.
    9000002   -1    0    0    0    0 -0.00000000000E+00 -0.00000000000E+00  0.00000000000E+00  0.93800000000E+00  0.93800000000E+00 0. -1.
         11    1    1    2    0    0  0.12158225494E+00 -0.20075512628E+00  0.75544687216E+00  0.79106580208E+00  0.51100000000E-03 0.  1.
    9000002    1    1    2    0    0  0.11056168273E+00  0.25599716533E+00  0.89263821967E-01  0.98263445098E+00  0.93800000000E+00 0. -1.
         22    1    1    2    0    0 -0.23214393768E+00 -0.55242039051E-01  0.31552892732E+01  0.31642997469E+01  0.00000000000E+00 0.  1.
</event>
<event>
 5    1  0.2111786E+001  0.1570868E+01  0.7818608E-02  0.3385602E+00
         11   -1    0    0    0    0  0.00000000000E+00  0.00000000000E+00  0.39999999674E+01  0.40000000000E+01  0.51100000000E-03 0. -1.
    9000002   -1    0    0    0    0 -0.00000000000E+00 -0.00000000000E+00  0.00000000000E+00  0.93800000000E+00  0.93800000000E+00 0. -1.
         11    1    1    2    0    0  0.57100923616E-01 -0.19570422426E+00  0.16515768468E+01  0.16641114749E+01  0.51100000000E-03 0. -1.
    9000002    1    1    2    0    0  0.57950211904E-01  0.27645549407E-01  0.23939714170E-01  0.94049966155E+00  0.93800000000E+00 0. -1.
         22    1    1    2    0    0 -0.11505113552E+00  0.16805867485E+00  0.23244834064E+01  0.23333888636E+01  0.00000000000E+00 0.  1.
</event>
<event>
 5    1  0.2111786E+001  0.1549279E+01  0.7818608E-02  0.3410323E+00
         11   -1    0    0    0    0  0.00000000000E+00  0.00000000000E+00  0.39999999674E+01  0.40000000000E+01  0.51100000000E-03 0.  1.
    9000002   -1    0    0    0    0 -0.00000000000E+00 -0.00000000000E+00  0.00000000000E+00  0.93800000000E+00  0.93800000000E+00 0. -1.
         11    1    1    2    0    0 -0.35402799034E-01  0.21385780089E+00  0.22070931694E+01  0.22177125686E+01  0.51100000000E-03 0.  1.
    9000002    1    1    2    0    0  0.37584116256E-01  0.97223787261E-01  0.44928623126E-01  0.94484263863E+00  0.93800000000E+00 0. -1.
         22    1    1    2    0    0 -0.21813172225E-02 -0.31108158816E+00  0.17479781748E+01  0.17754447928E+01  0.00000000000E+00 0. -1.
</event>
<event>
 5    1  0.2111786E+001  0.1559788E+01  0.7818608E-02  0.3398199E+00
         11   -1    0    0    0    0  0.00000000000E+00  0.00000000000E+00  0.39999999674E+01  0.40000000000E+01  0.51100000000E-03 0.  1.
    9000002   -1    0    0    0    0 -0.00000000000E+00 -0.00000000000E+00  0.00000000000E+00  0.93800000000E+00  0.93800000000E+00 0.  1.
         11    1    1    2    0    0  0.12523899225E+00 -0.20124343040E+00  0.19780254995E+01  0.19921769152E+01  0.51100000000E-03 0.  1.
    9000002    1    1    2    0    0  0.20760431887E-01  0.56926341337E-02  0.29761809393E-01  0.93871889664E+00  0.93800000000E+00 0.  1.
         22    1    1    2    0    0 -0.14599942414E+00  0.19555079626E+00  0.19922126584E+01  0.20071041882E+01  0.00000000000E+00 0.  1.
</event>
<event>
 5    1  0.2111786E+001  0.1450735E+01  0.7818608E-02  0.3533220E+00
         11   -1    0    0    0    0  0.00000000000E+00  0.00000000000E+00  0.39999999674E+01  0.40000000000E+01  0.51100000000E-03 0. -1.
    9000002   -1    0    0    0    0 -0.00000000000E+00 -0.00000000000E+00  0.00000000000E+00  0.93800000000E+00  0.93800000000E+00 0.  1.
         11    1    1    2    0    0 -0.51798556128E+00  0.17052266235E+00  0.22764526852E+01  0.23408596944E+01  0.51100000000E-03 0. -1.
    9000002    1    1    2    0    0  0.10453402311E+00 -0.27132880045E+00  0.18305748772E+00  0.99894981043E+00  0.93800000000E+00 0.  1.
         22    1    1    2    0    0  0.41345153817E+00  0.10080613810E+00  0.15404897945E+01  0.15981904952E+01  0.00000000000E+00 0. -1.
</event>
<event>
 5    1  0.2111786E+001  0.1570011E+01  0.7818608E-02  0.3386570E+00
         11   -1    0    0    0    0  0.00000000000E+00  0.00000000000E+00  0.39999999674E+01  0.40000000000E+01  0.51100000000E-03 0. -1.
    9000002   -1    0    0    0    0 -0.00000000000E+00 -0.00000000000E+00  0.00000000000E+00  0.93800000000E+00  0.93800000000E+00 0.  1.
         11    1    1    2    0    0 -0.14191116924E+00 -0.19726617820E+00  0.13152081509E+01  0.13374698002E+01  0.51100000000E-03 0. -1.
    9000002    1    1    2    0    0  0.25372458696E+00  0.29444351552E-01  0.66439368903E-01  0.97442358634E+00  0.93800000000E+00 0.  1.
         22    1    1    2    0    0 -0.11181341772E+00  0.16782182665E+00  0.26183524476E+01  0.26261066135E+01  0.00000000000E+00 0.  1.
</event>
<event>
 5    1  0.2111786E+001  0.1476212E+01  0.7818608E-02  0.3499748E+00
         11   -1    0    0    0    0  0.00000000000E+00  0.00000000000E+00  0.39999999674E+01  0.40000000000E+01  0.51100000000E-03 0.  1.
    9000002   -1    0    0    0    0 -0.00000000000E+00 -0.00000000000E+00  0.00000000000E+00  0.93800000000E+00  0.93800000000E+00 0.  1.
         11    1    1    2    0    0  0.31814879797E+00  0.25719184392E+00  0.40235935850E+00  0.57381148187E+00  0.51100000000E-03 0.  1.
    9000002    1    1    2    0    0 -0.26366831634E+00 -0.45322716686E+00  0.37954023670E+00  0.11396625102E+01  0.93800000000E+00 0.  1.
         22    1    1    2    0    0 -0.54480481632E-01  0.19603532293E+00  0.32181003722E+01  0.32245260080E+01  0.00000000000E+00 0.  1.
</event>
<event>
 5    1  0.2111786E+001  0.1381584E+01  0.7818608E-02  0.3636854E+00
         11   -1    0    0    0    0  0.00000000000E+00  0.00000000000E+00  0.39999999674E+01  0.40000000000E+01  0.51100000000E-03 0.  1.
    9000002   -1    0    0    0    0 -0.00000000000E+00 -0.00000000000E+00  0.00000000000E+00  0.93800000000E+00  0.93800000000E+00 0. -1.
         11    1    1    2    0    0 -0.41729527792E+00  0.14556400309E+00  0.29747465887E+01  0.30073978380E+01  0.51100000000E-03 0.  1.
    9000002    1    1    2    0    0  0.32323338383E+00  0.33957754600E+00  0.37454981387E+00  0.11135188787E+01  0.93800000000E+00 0. -1.
         22    1    1    2    0    0  0.94061894085E-01 -0.48514154909E+00  0.65070356475E+00  0.81708328324E+00  0.00000000000E+00 0.  1.
</event>
<event>
 5    1  0.2111786E+001  0.1535971E+01  0.7818608E-02  0.3425931E+00
         11   -1    0    0    0    0  0.00000000000E+00  0.00000000000E+00  0.39999999674E+01  0.40000000000E+01  0.51100000000E-03 0.  1.
    9000002   -1    0    0    0    0 -0.00000000000E+00 -0.00000000000E+00  0.00000000000E+00  0.93800000000E+00  0.93800000000E+00 0.  1.
         11    1    1    2    0    0 -0.39582125108E-01  0.32114690498E+00  0.16151138358E+01  0.16472082573E+01  0.51100000000E-03 0.  1.
    9000002    1    1    2    0    0 -0.94149774102E-02 -0.62181261725E-01  0.50379799745E-01  0.94145487164E+00  0.93800000000E+00 0.  1.
         22    1    1    2    0    0  0.48997102518E-01 -0.25896564325E+00  0.23345063319E+01  0.23493368711E+01  0.00000000000E+00 0.  1.
</event>
<event>
 5    1  0.2111786E+001  0.1539732E+01  0.7818608E-02  0.3421491E+00
         11   -1    0    0    0    0  0.00000000000E+00  0.00000000000E+00  0.39999999674E+01  0.40000000000E+01  0.51100000000E-03 0. -1.
    9000002   -1    0    0    0    0 -0.00000000000E+00 -0.00000000000E+00  0.00000000000E+00  0.93800000000E+00  0.93800000000E+00 0. -1.
         11    1    1    2    0    0 -0.24064721686E+00 -0.53933777855E-01  0.26738777761E+01  0.26852267238E+01  0.51100000000E-03 0. -1.
    9000002    1    1    2    0    0 -0.46050829378E-01  0.63470225534E-02  0.46216671703E-01  0.94028769232E+00  0.93800000000E+00 0. -1.
         22    1    1    2    0    0  0.28669804624E+00  0.47586755302E-01  0.12799055195E+01  0.13124855839E+01  0.00000000000E+00 0. -1.
</event>
<event>
 5    1  0.2111786E+001  0.1522704E+01  0.7818608E-02  0.3441782E+00
         11   -1    0    0    0    0  0.00000000000E+00  0.00000000000E+00  0.39999999674E+01  0.40000000000E+01  0.51100000000E-03 0. -1.
    9000002   -1    0    0    0    0 -0.00000000000E+00 -0.00000000000E+00  0.00000000000E+00  0.93800000000E+00  0.93800000000E+00 0. -1.
         11    1    1    2    0    0  0.41184748329E-01  0.43110598556E+00  0.11830556149E+01  0.12598291167E+01  0.51100000000E-03 0. -1.
    9000002    1    1    2    0    0 -0.41438593420E+00 -0.40561123667E+00  0.31283361434E+00  0.11462744209E+01  0.93800000000E+00 0. -1.
         22    1    1    2    0    0  0.37320118587E+00 -0.25494748896E-01  0.25041107381E+01  0.25318964624E+01  0.00000000000E+00 0. -1.
</event>
<event>
 5    1  0.2111786E+001  0.1579284E+01  0.7818608E-02  0.3376160E+00
         11   -1    0    0    0    0  0.00000000000E+00  0.00000000000E+00  0.39999999674E+01  0.40000000000E+01  0.51100000000E-03 0.  1.
    9000002   -1    0    0    0    0 -0.00000000000E+00 -0.00000000000E+00  0.00000000000E+00  0.93800000000E+00  0.93800000000E+00 0. -1.
         11    1    1    2    0    0 -0.25514033360E-01  0.11432504337E+00  0.77048440097E+00  0.77933795923E+00  0.51100000000E-03 0.  1.
    9000002    1    1    2    0    0 -0.79783963073E-02  0.97463867845E-01  0.21336036863E-01  0.94332501653E+00  0.93800000000E+00 0. -1.
         22    1    1    2    0    0  0.33492429667E-01 -0.21178891122E+00  0.32081795295E+01  0.32153370242E+01  0.00000000000E+00 0.  1.
</event>
<event>
 5    1  0.2111786E+001  0.1077652E+01  0.7818608E-02  0.4321418E+00
         11   -1    0    0    0    0  0.00000000000E+00  0.00000000000E+00  0.39999999674E+01  0.40000000000E+01  0.51100000000E-03 0.  1.
    9000002   -1    0    0    0    0 -0.00000000000E+00 -0.00000000000E+00  0.00000000000E+00  0.93800000000E+00  0.93800000000E+00 0.  1.
         11    1    1    2    0    0 -0.86287596594E-01  0.16873144302E+00 -0.23967163747E+00  0.30554640256E+00  0.51100000000E-03 0.  1.
    9000002    1    1    2    0    0  0.35631650911E+00  0.38354457286E+00  0.16356493764E+01  0.19568497072E+01  0.93800000000E+00 0.  1.
         22    1    1    2    0    0 -0.27002891251E+00 -0.55227601588E+00  0.26040222284E+01  0.26756038902E+01  0.00000000000E+00 0.  1.
</event>
<event>
 5    1  0.2111786E+001  0.1492254E+01  0.7818608E-02  0.3479306E+00
         11   -1    0    0    0    0  0.00000000000E+00  0.00000000000E+00  0.39999999674E+01  0.40000000000E+01  0.51100000000E-03 0. -1.
    9000002   -1    0    0    0    0 -0.00000000000E+00 -0.00000000000E+00  0.00000000000E+00  0.93800000000E+00  0.93800000000E+00 0. -1.
         11    1    1    2    0    0  0.10138757212E+00 -0.26469353934E+00  0.14742384598E+01  0.15012399565E+01  0.51100000000E-03 0. -1.
    9000002    1    1    2    0    0 -0.19534327428E-01 -0.27986993628E+00  0.14089724356E+00  0.98914347009E+00  0.93800000000E+00 0. -1.
         22    1    1    2    0    0 -0.81853244693E-01  0.54456347562E+00  0.23848642640E+01  0.24476165734E+01  0.00000000000E+00 0. -1.
</event>
<event>
 5    1  0.2111786E+001  0.1572359E+01  0.7818608E-02  0.3383921E+00
         11   -1    0    0    0    0  0.00000000000E+00  0.00000000000E+00  0.39999999674E+01  0.40000000000E+01  0.51100000000E-03 0.  1.
    9000002   -1    0    0    0    0 -0.00000000000E+00 -0.00000000000E+00  0.00000000000E+00  0.93800000000E+00  0.93800000000E+00 0.  1.
         11    1    1    2    0    0 -0.23161896300E+00  0.87764534212E-01  0.16886311581E+01  0.17067001514E+01  0.51100000000E-03 0.  1.
    9000002    1    1    2    0    0  0.84192452044E-01 -0.26148818399E+00  0.71650162238E-01  0.98002152277E+00  0.93800000000E+00 0.  1.
         22    1    1    2    0    0  0.14742651095E+00  0.17372364978E+00  0.22397186470E+01  0.22512783258E+01  0.00000000000E+00 0. -1.
</event>
<event>
 5    1  0.2111786E+001  0.1589541E+01  0.7818608E-02  0.3364794E+00
         11   -1    0    0    0    0  0.00000000000E+00  0.00000000000E+00  0.39999999674E+01  0.40000000000E+01  0.51100000000E-03 0.  1.
    9000002   -1    0    0    0    0 -0.00000000000E+00 -0.00000000000E+00  0.00000000000E+00  0.93800000000E+00  0.93800000000E+00 0.  1.
         11    1    1    2    0    0  0.66099555203E-01  0.38854955950E-02  0.19318479824E+00  0.20421771634E+00  0.51100000000E-03 0.  1.
    9000002    1    1    2    0    0 -0.26720662733E+00  0.29222179001E-01  0.55922097117E-01  0.97735592206E+00  0.93800000000E+00 0.  1.
         22    1    1    2    0    0  0.20110707212E+00 -0.33107674596E-01  0.37508930720E+01  0.37564263616E+01  0.00000000000E+00 0.  1.
</event>
<event>
 5    1  0.2111786E+001  0.1551755E+01  0.7818608E-02  0.3407451E+00
         11   -1    0    0    0    0  0.00000000000E+00  0.00000000000E+00  0.39999999674E+01  0.40000000000E+01  0.51100000000E-03 0.  1.
    9000002   -1    0    0    0    0 -0.00000000000E+00 -0.00000000000E+00  0.00000000000E+00  0.93800000000E+00  0.93800000000E+00 0.  1.
         11    1    1    2    0    0  0.20402131028E+00  0.98387465151E-01  0.12277615014E+01  0.12484804178E+01  0.51100000000E-03 0.  1.
    9000002    1    1    2    0    0  0.85082674641E-02  0.10023775056E+00  0.42511379048E-01  0.94433638848E+00  0.93800000000E+00 0.  1.
         22    1    1    2    0    0 -0.21252957774E+00 -0.19862521571E+00  0.27297270870E+01  0.27451831937E+01  0.00000000000E+00 0.  1.
</event>
<event>
 5    1  0.2111786E+001  0.1591869E+01  0.7818608E-02  0.3362236E+00
         11   -1    0    0    0    0  0.00000000000E+00  0.00000000000E+00  0.39999999674E+01  0.40000000000E+01  0.51100000000E-03 0. -1.
    9000002   -1    0    0    0    0 -0.00000000000E+00 -0.00000000000E+00  0.00000000000E+00  0.93800000000E+00  0.93800000000E+00 0. -1.
         11    1    1    2    0    0  0.12495307412E+00 -0.11487397991E+00  0.21155742489E+01  0.21223722495E+01  0.51100000000E-03 0. -1.
    9000002    1    1    2    0    0 -0.30883882858E+00  0.31967580497E-01  0.70546703033E-01  0.99056760776E+00  0.93800000000E+00 0. -1.
         22    1    1    2    0    0  0.18388575447E+00  0.82906399412E-01  0.18138790155E+01  0.18250601427E+01  0.00000000000E+00 0. -1.
</event>
<event>
 5    1  0.2111786E+001  0.1522056E+01  0.7818608E-02  0.3442563E+00
         11   -1    0    0    0    0  0.00000000000E+00  0.00000000000E+00  0.39999999674E+01  0.40000000000E+01  0.51100000000E-03 0.  1.
    9000002   -1    0    0    0    0 -0.00000000000E+00 -0.00000000000E+00  0.00000000000E+00  0.93800000000E+00  0.93800000000E+00 0.  1.
         11    1    1    2    0    0 -0.12574624110E+00  0.27646524411E+00  0.10756068455E+01  0.11176651983E+01  0.51100000000E-03 0.  1.
    9000002    1    1    2    0    0 -0.89718306293E-04 -0.15707127264E-01  0.58607508095E-01  0.93996040443E+00  0.93800000000E+00 0.  1.
         22    1    1    2    0    0  0.12583595941E+00 -0.26075811685E+00  0.28657856138E+01  0.28803743973E+01  0.00000000000E+00 0.  1.
</event>
<event>
 5    1  0.2111786E+001  0.1564829E+01  0.7818608E-02  0.3392445E+00
         11   -1    0    0    0    0  0.00000000000E+00  0.00000000000E+00  0.39999999674E+01  0.40000000000E+01  0.51100000000E-03 0.  1.
    9000002   -1    0    0    0    0 -0.00000000000E+00 -0.00000000000E+00  0.00000000000E+00  0.93800000000E+00  0.93800000000E+00 0. -1.
         11    1    1    2    0    0  0.66115427860E-01  0.16480706619E+00  0.11066586312E+01  0.11208149740E+01  0.51100000000E-03 0.  1.
    9000002    1    1    2    0    0  0.47907944559E-01  0.73240406944E-01  0.30879694038E-01  0.94257990848E+00  0.93800000000E+00 0. -1.
         22    1    1    2    0    0 -0.11402337242E+00 -0.23804747314E+00  0.28624616421E+01  0.28746051175E+01  0.00000000000E+00 0.  1.
</event>
<event>
 5    1  0.2111786E+001  0.1553760E+01  0.7818608E-02  0.3405132E+00
         11   -1    0    0    0    0  0.00000000000E+00  0.00000000000E+00  0.39999999674E+01  0.40000000000E+01  0.51100000000E-03 0.  1.
    9000002   -1    0    0    0    0 -0.00000000000E+00 -0.00000000000E+00  0.00000000000E+00  0.93800000000E+00  0.93800000000E+00 0. -1.
         11    1    1    2    0    0  0.12351002096E+00 -0.23198521872E+00  0.25989371961E+01  0.26121919297E+01  0.51100000000E-03 0.  1.
    9000002    1    1    2    0    0 -0.40823048861E+00  0.63949911965E-01  0.15500241735E+00  0.10366346861E+01  0.93800000000E+00 0. -1.
         22    1    1    2    0    0  0.28472046765E+00  0.16803530676E+00  0.12460603539E+01  0.12891733842E+01  0.00000000000E+00 0.  1.
</event>
<event>
 5    1  0.2111786E+001  0.1521131E+01  0.7818608E-02  0.3443681E+00
         11   -1    0    0    0    0  0.00000000000E+00  0.00000000000E+00  0.39999999674E+01  0.40000000000E+01  0.51100000000E-03 0.  1.
    9000002   -1    0    0    0    0 -0.00000000000E+00 -0.00000000000E+00  0.00000000000E+00  0.93800000000E+00  0.93800000000E+00 0. -1.
         11    1    1    2    0    0 -0.60313268771E+00 -0.32968386532E+00  0.23476303731E+01  0.24461866486E+01  0.51100000000E-03 0.  1.
    9000002    1    1    2    0    0  0.64311140862E+00  0.10126647523E+00  0.38733813582E+00  0.12057039497E+01  0.93800000000E+00 0. -1.
         22    1    1    2    0    0 -0.39978720907E-01  0.22841739009E+00  0.12650314584E+01  0.12861094016E+01  0.00000000000E+00 0.  1.
</event>
<event>
 5    1  0.2111786E+001  0.1559673E+01  0.7818608E-02  0.3398330E+00
         11   -1    0    0    0    0  0.00000000000E+00  0.00000000000E+00  0.39999999674E+01  0.40000000000E+01  0.51100000000E-03 0.  1.
    9000002   -1    0    0    0    0 -0.00000000000E+00 -0.00000000000E+00  0.00000000000E+00  0.93800000000E+00  0.93800000000E+00 0. -1.
         11    1    1    2    0    0 -0.18397507996E+00 -0.12819127119E+00  0.12582711742E+01  0.12780948482E+01  0.51100000000E-03 0.  1.
    9000002    1    1    2    0    0 -0.51837886096E-01  0.86804553872E-01  0.36538004323E-01  0.94414046771E+00  0.93800000000E+00 0. -1.
         22    1    1    2    0    0  0.23581296606E+00  0.41386717313E-01  0.27051907888E+01  0.27157646841E+01  0.00000000000E+00 0.  1.
</event>
<event>
 5    1  0.2111786E+001  0.1570637E+01  0.7818608E-02  0.3385863E+00
         11   -1    0    0    0    0  0.00000000000E+00  0.00000000000E+00  0.39999999674E+01  0.40000000000E+01  0.51100000000E-03 0. -1.
    9000002   -1    0    0    0    0 -0.00000000000E+00 -0.00000000000E+00  0.00000000000E+00  0.93800000000E+00  0.93800000000E+00 0. -1.
         11    1    1    2    0    0  0.12957660092E+00  0.11121518624E+00  0.25266274773E+01  0.25323912777E+01  0.51100000000E-03 0. -1.
    9000002    1    1    2    0    0  0.36359122463E-01  0.22289079057E-01  0.22552105752E-01  0.93923979170E+00  0.93800000000E+00 0. -1.
         22    1    1    2    0    0 -0.16593572338E+00 -0.13350426529E+00  0.14508203843E+01  0.14663689306E+01  0.00000000000E+00 0. -1.
</event>
<event>
 5    1  0.2111786E+001  0.1526693E+01  0.7818608E-02  0.3436985E+00
         11   -1    0    0    0    0  0.00000000000E+00  0.00000000000E+00  0.39999999674E+01  0.40000000000E+01  0.51100000000E-03 0. -1.
    9000002   -1    0    0    0    0 -0.00000000000E+00 -0.00000000000E+00  0.00000000000E+00  0.93800000000E+00  0.93800000000E+00 0. -1.
         11    1    1    2    0    0  0.44154968467E+00 -0.14531627331E+00  0.11976099239E+01  0.12846605522E+01  0.51100000000E-03 0. -1.
    9000002    1    1    2    0    0 -0.55876438465E+00 -0.61852778114E-01  0.29225723060E+00  0.11319459760E+01  0.93800000000E+00 0. -1.
         22    1    1    2    0    0  0.11721469997E+00  0.20716905142E+00  0.25101328129E+01  0.25213934719E+01  0.00000000000E+00 0. -1.
</event>
<event>
 5    1  0.2111786E+001  0.1575882E+01  0.7818608E-02  0.3379963E+00
         11   -1    0    0    0    0  0.00000000000E+00  0.00000000000E+00  0.39999999674E+01  0.40000000000E+01  0.51100000000E-03 0.  1.
    9000002   -1    0    0    0    0 -0.00000000000E+00 -0.00000000000E+00  0.00000000000E+00  0.93800000000E+00  0.93800000000E+00 0.  1.
         11    1    1    2    0    0 -0.36677440963E-01 -0.16842863436E+00  0.14299589659E+01  0.14403111972E+01  0.51100000000E-03 0.  1.
    9000002    1    1    2    0    0 -0.12197766070E+00  0.26331676977E-01  0.27935365810E-01  0.94667644504E+00  0.93800000000E+00 0.  1.
         22    1    1    2    0    0  0.15865510167E+00  0.14209695738E+00  0.25421056356E+01  0.25510123577E+01  0.00000000000E+00 0.  1.
</event>
<event>
 5    1  0.2111786E+001  0.1561499E+01  0.7818608E-02  0.3396241E+00
         11   -1    0    0    0    0  0.00000000000E+00  0.00000000000E+00  0.39999999674E+01  0.40000000000E+01  0.51100000000E-03 0. -1.
    9000002   -1    0    0    0    0 -0.00000000000E+00 -0.00000000000E+00  0.00000000000E+00  0.93800000000E+00  0.93800000000E+00 0.  1.
         11    1    1    2    0    0  0.22209560555E+00 -0.55771023353E-01  0.15421176185E+01  0.15590265795E+01  0.51100000000E-03 0. -1.
    9000002    1    1    2    0    0  0.14840539200E-01  0.78184356092E-01  0.32487827494E-01  0.94193019597E+00  0.93800000000E+00 0.  1.
         22    1    1    2    0    0 -0.23693614475E+00 -0.22413332739E-01  0.24253945213E+01  0.24370432245E+01  0.00000000000E+00 0. -1.
</event>
<event>
 5    1  0.2111786E+001  0.1548683E+01  0.7818608E-02  0.3411017E+00
         11   -1    0    0    0    0  0.00000000000E+00  0.00000000000E+00  0.39999999674E+01  0.40000000000E+01  0.51100000000E-03 0.  1.
    9000002   -1    0    0    0    0 -0.00000000000E+00 -0.00000000000E+00  0.00000000000E+00  0.93800000000E+00  0.93800000000E+00 0. -1.
         11    1    1    2    0    0  0.14417125262E+00 -0.31179110133E+00  0.29269911864E+01  0.29470793520E+01  0.51100000000E-03 0.  1.
    9000002    1    1    2    0    0  0.14814402586E-01  0.17725710599E+00  0.59864706430E-01  0.95659151743E+00  0.93800000000E+00 0. -1.
         22    1    1    2    0    0 -0.15898565521E+00  0.13453399534E+00  0.10131440746E+01  0.10343291305E+01  0.00000000000E+00 0. -1.
</event>
<event>
 5    1  0.2111786E+001  0.1559266E+01  0.7818608E-02  0.3398797E+00
         11   -1    0    0    0    0  0.00000000000E+00  0.00000000000E+00  0.39999999674E+01  0.40000000000E+01  0.51100000000E-03 0. -1.
    9000002   -1    0    0    0    0 -0.00000000000E+00 -0.00000000000E+00  0.00000000000E+00  0.93800000000E+00  0.93800000000E+00 0. -1.
         11    1    1    2    0    0 -0.14697026249E+00  0.32808437445E-01  0.27461689883E+01  0.27502947160E+01  0.51100000000E-03 0. -1.
    9000002    1    1    2    0    0 -0.11025876747E+00 -0.62714584072E-01  0.40881928499E-01  0.94742041721E+00  0.93800000000E+00 0. -1.
         22    1    1    2    0    0  0.25722902996E+00  0.29906146627E-01  0.12129490506E+01  0.12402848668E+01  0.00000000000E+00 0.  1.
</event>
<event>
 5    1  0.2111786E+001  0.1574445E+01  0.7818608E-02  0.3381575E+00
         11   -1    0    0    0    0  0.00000000000E+00  0.00000000000E+00  0.39999999674E+01  0.40000000000E+01  0.51100000000E-03 0. -1.
    9000002   -1    0    0    0    0 -0.00000000000E+00 -0.00000000000E+00  0.00000000000E+00  0.93800000000E+00  0.93800000000E+00 0.  1.
         11    1    1    2    0    0 -0.55275539940E-01  0.17902698230E+00  0.27742591563E+01  0.27805791075E+01  0.51100000000E-03 0. -1.
    9000002    1    1    2    0    0  0.31509984704E+00 -0.19754731986E+00  0.11386667561E+00  0.10154420107E+01  0.93800000000E+00 0.  1.
         22    1    1    2    0    0 -0.25982430710E+00  0.18520337552E-01  0.11118741355E+01  0.11419788818E+01  0.00000000000E+00 0.  1.
</event>
<event>
 5    1  0.2111786E+001  0.1562899E+01  0.7818608E-02  0.3394642E+00
         11   -1    0    0    0    0  0.00000000000E+00  0.00000000000E+00  0.39999999674E+01  0.40000000000E+01  0.51100000000E-03 0. -1.
    9000002   -1    0    0    0    0 -0.00000000000E+00 -0.00000000000E+00  0.00000000000E+00  0.93800000000E+00  0.93800000000E+00 0.  1.
         11    1    1    2    0    0 -0.40054663721E-01  0.24073480517E+00  0.20203704399E+01  0.20350564115E+01  0.51100000000E-03 0. -1.
    9000002    1    1    2    0    0  0.56130032424E-01 -0.20257624470E-01  0.29535962541E-01  0.94036021022E+00  0.93800000000E+00 0.  1.
         22    1    1    2    0    0 -0.16075368703E-01 -0.22047718070E+00  0.19500935649E+01  0.19625833783E+01  0.00000000000E+00 0.  1.
</event>
<event>
 5    1  0.2111786E+001  0.1566242E+01  0.7818608E-02  0.3390839E+00
         11   -1    0    0    0    0  0.00000000000E+00  0.00000000000E+00  0.39999999674E+01  0.40000000000E+01  0.51100000000E-03 0. -1.
    9000002   -1    0    0    0    0 -0.00000000000E+00 -0.00000000000E+00  0.00000000000E+00  0.93800000000E+00  0.93800000000E+00 0. -1.
         11    1    1    2    0    0  0.25332885224E+00 -0.48253686546E-01  0.23338016196E+01  0.23480064281E+01  0.51100000000E-03 0. -1.
    9000002    1    1    2    0    0 -0.63789341432E-01  0.11256882808E+00  0.36012474777E-01  0.94756620849E+00  0.93800000000E+00 0. -1.
         22    1    1    2    0    0 -0.18953951081E+00 -0.64315141535E-01  0.16301858730E+01  0.16424273634E+01  0.00000000000E+00 0. -1.
</event>
<event>
 5    1  0.2111786E+001  0.1459440E+01  0.7818608E-02  0.3521640E+00
         11   -1    0    0    0    0  0.00000000000E+00  0.00000000000E+00  0.39999999674E+01  0.40000000000E+01  0.51100000000E-03 0.  1.
    9000002   -1    0    0    0    0 -0.00000000000E+00 -0.00000000000E+00  0.00000000000E+00  0.93800000000E+00  0.93800000000E+00 0.  1.
         11    1    1    2    0    0 -0.18342800669E-01 -0.22409314804E+00  0.17632343414E+00  0.28573486291E+00  0.51100000000E-03 0.  1.
    9000002    1    1    2    0    0  0.29790910959E+00  0.17178756850E+00  0.20178833514E+00  0.10192268337E+01  0.93800000000E+00 0.  1.
         22    1    1    2    0    0 -0.27956630892E+00  0.52305579538E-01  0.36218881981E+01  0.36330383034E+01  0.00000000000E+00 0.  1.
</event>
<event>
 5    1  0.2111786E+001  0.1574228E+01  0.7818608E-02  0.3381820E+00
         11   -1    0    0    0    0  0.00000000000E+00  0.00000000000E+00  0.39999999674E+01  0.40000000000E+01  0.51100000000E-03 0. -1.
    9000002   -1    0    0    0    0 -0.00000000000E+00 -0.00000000000E+00  0.00000000000E+00  0.93800000000E+00  0.93800000000E+00 0. -1.
         11    1    1    2    0    0  0.84296551636E-01  0.11124590117E+00  0.93878472288E+00  0.94910409133E+00  0.51100000000E-03 0. -1.
    9000002    1    1    2    0    0  0.13090699107E+00  0.18284777946E-01  0.30466904131E-01  0.94775693385E+00  0.93800000000E+00 0. -1.
         22    1    1    2    0    0 -0.21520354271E+00 -0.12953067912E+00  0.30307483404E+01  0.30411389748E+01  0.00000000000E+00 0. -1.
</event>
<event>
 5    1  0.2111786E+001  0.1555494E+01  0.7818608E-02  0.3403132E+00
         11   -1    0    0    0    0  0.00000000000E+00  0.00000000000E+00  0.39999999674E+01  0.40000000000E+01  0.51100000000E-03 0. -1.
    9000002   -1    0    0    0    0 -0.00000000000E+00 -0.00000000000E+00  0.00000000000E+00  0.93800000000E+00  0.93800000000E+00 0. -1.
         11    1    1    2    0    0  0.20244611324E+00 -0.13922151888E+00  0.11608053809E+01  0.11865228415E+01  0.51100000000E-03 0. -1.
    9000002    1    1    2    0    0  0.18573721390E-02  0.10028794972E+00  0.39611288888E-01  0.94417910213E+00  0.93800000000E+00 0. -1.
         22    1    1    2    0    0 -0.20430348538E+00  0.38933569156E-01  0.27995832976E+01  0.28072980563E+01  0.00000000000E+00 0. -1.
</event>
<event>
 5    1  0.2111786E+001  0.1563993E+01  0.7818608E-02  0.3393396E+00
         11   -1    0    0    0    0  0.00000000000E+00  0.00000000000E+00  0.39999999674E+01  0.40000000000E+01  0.51100000000E-03 0.  1.
    9000002   -1    0    0    0    0 -0.00000000000E+00 -0.00000000000E+00  0.00000000000E+00  0.93800000000E+00  0.93800000000E+00 0.  1.
         11    1    1    2    0    0  0.17557517184E+00 -0.21891979429E-01  0.28707567248E+01  0.28762041537E+01  0.51100000000E-03 0.  1.
    9000002    1    1    2    0    0  0.38081098413E-01  0.55054928237E-01  0.29340581370E-01  0.94084328392E+00  0.93800000000E+00 0.  1.
         22    1    1    2    0    0 -0.21365627025E+00 -0.33162948809E-01  0.10999026612E+01  0.11209525624E+01  0.00000000000E+00 0. -1.
</event>
<event>
 5    1  0.2111786E+001  0.1480661E+01  0.7818608E-02  0.3494031E+00
         11   -1    0    0    0    0  0.00000000000E+00  0.00000000000E+00  0.39999999674E+01  0.40000000000E+01  0.51100000000E-03 0. -1.
    9000002   -1    0    0    0    0 -0.00000000000E+00 -0.00000000000E+00  0.00000000000E+00  0.93800000000E+00  0.93800000000E+00 0.  1.
         11    1    1    2    0    0 -0.27347318170E+00  0.15422050190E+00  0.31677658291E+00  0.44600359742E+00  0.51100000000E-03 0. -1.
    9000002    1    1    2    0    0  0.39183985378E-01 -0.80527631462E-01  0.15463372448E+00  0.95486945332E+00  0.93800000000E+00 0.  1.
         22    1    1    2    0    0  0.23428919632E+00 -0.73692870435E-01  0.35285896600E+01  0.35371269493E+01  0.00000000000E+00 0. -1.
</event>
<event>
 5    1  0.2111786E+001  0.1574348E+01  0.7818608E-02  0.3381685E+00
         11   -1    0    0    0    0  0.00000000000E+00  0.00000000000E+00  0.39999999674E+01  0.40000000000E+01  0.51100000000E-03 0.  1.
    9000002   -1    0    0    0    0 -0.00000000000E+00 -0.00000000000E+00  0.00000000000E+00  0.93800000000E+00  0.93800000000E+00 0. -1.
         11    1    1    2    0    0  0.10753837556E+00  0.13528870862E+00  0.19447414895E+01  0.19524055058E+01  0.51100000000E-03 0.  1.
    9000002    1    1    2    0    0 -0.10002354522E-01  0.53851282689E-01  0.20585856477E-01  0.93982327340E+00  0.93800000000E+00 0. -1.
         22    1    1    2    0    0 -0.97536021037E-01 -0.18913999131E+00  0.20346726214E+01  0.20457712208E+01  0.00000000000E+00 0.  1.
</event>
<event>
 5    1  0.2111786E+001  0.1556828E+01  0.7818608E-02  0.3401597E+00
         11   -1    0    0    0    0  0.00000000000E+00  0.00000000000E+00  0.39999999674E+01  0.40000000000E+01  0.51100000000E-03 0. -1.
    9000002   -1    0    0    0    0 -0.00000000000E+00 -0.00000000000E+00  0.00000000000E+00  0.93800000000E+00  0.93800000000E+00 0.  1.
         11    1    1    2    0    0  0.21931103235E+00  0.60179133693E-01  0.12927779101E+01  0.13126286005E+01  0.51100000000E-03 0. -1.
    9000002    1    1    2    0    0  0.19211629277E-01  0.24046354542E-02  0.31934866347E-01  0.93874315159E+00  0.93800000000E+00 0.  1.
         22    1    1    2    0    0 -0.23852266163E+00 -0.62583769147E-01  0.26752871909E+01  0.26866282479E+01  0.00000000000E+00 0. -1.
</event>
<event>
 5    1  0.3677595E+001  0.1573946E+01  0.7818608E-02  0.3382136E+00
         11   -1    0    0    0    0  0.00000000000E+00  0.00000000000E+00  0.39999999674E+01  0.40000000000E+01  0.51100000000E-03 0. -1.
    9000002   -1    0    0    0    0 -0.00000000000E+00 -0.00000000000E+00  0.00000000000E+00  0.93800000000E+00  0.93800000000E+00 0. -1.
         11    1    1    2    0    0  0.42508640461E-03  0.17043891442E+00  0.12855650642E+01  0.12968143274E+01  0.51100000000E-03 0. -1.
    9000002    1    1    2    0    0 -0.12353220837E-01  0.31291576239E-01  0.19623877993E-01  0.93880821332E+00  0.93800000000E+00 0. -1.
         22    1    1    2    0    0  0.11928134432E-01 -0.20173049066E+00  0.26948110251E+01  0.27023774593E+01  0.00000000000E+00 0. -1.
</event>
<event>
 5    1  0.2111786E+001  0.1554183E+01  0.7818608E-02  0.3404644E+00
         11   -1    0    0    0    0  0.00000000000E+00  0.00000000000E+00  0.39999999674E+01  0.40000000000E+01  0.51100000000E-03 0. -1.
    9000002   -1    0    0    0    0 -0.00000000000E+00 -0.00000000000E+00  0.00000000000E+00  0.93800000000E+00  0.93800000000E+00 0. -1.
         11    1    1    2    0    0  0.88584150565E-01  0.20171156684E+00  0.97636861898E+00  0.10009149061E+01  0.51100000000E-03 0. -1.
    9000002    1    1    2    0    0 -0.61517731100E-02  0.89068357952E-02  0.33758500787E-01  0.93866970358E+00  0.93800000000E+00 0. -1.
         22    1    1    2    0    0 -0.82432377455E-01 -0.21061840264E+00  0.29898728476E+01  0.29984153904E+01  0.00000000000E+00 0. -1.
</event>
<event>
 5    1  0.2111786E+001  0.1584795E+01  0.7818608E-02  0.3370034E+00
         11   -1    0    0    0    0  0.00000000000E+00  0.00000000000E+00  0.39999999674E+01  0.40000000000E+01  0.51100000000E-03 0. -1.
    9000002   -1    0    0    0    0 -0.00000000000E+00 -0.00000000000E+00  0.00000000000E+00  0.93800000000E+00  0.93800000000E+00 0. -1.
         11    1    1    2    0    0 -0.19324039247E-02  0.30073409887E-02  0.21395066850E+01  0.21395097323E+01  0.51100000000E-03 0. -1.
    9000002    1    1    2    0    0  0.11761482772E+00  0.23932956617E+00  0.58849002798E-01  0.97694375174E+00  0.93800000000E+00 0. -1.
         22    1    1    2    0    0 -0.11568242380E+00 -0.24233690716E+00  0.18016442796E+01  0.18215465160E+01  0.00000000000E+00 0. -1.
</event>
<event>
 5    1  0.2111786E+001  0.1583924E+01  0.7818608E-02  0.3370999E+00
         11   -1    0    0    0    0  0.00000000000E+00  0.00000000000E+00  0.39999999674E+01  0.40000000000E+01  0.51100000000E-03 0.  1.
    9000002   -1    0    0    0    0 -0.00000000000E+00 -0.00000000000E+00  0.00000000000E+00  0.93800000000E+00  0.93800000000E+00 0. -1.
         11    1    1    2    0    0 -0.76468047204E-03 -0.11553934283E+00  0.16594258487E+01  0.16634435166E+01  0.51100000000E-03 0.  1.
    9000002    1    1    2    0    0 -0.10179680132E+00 -0.64701546976E-01  0.21232038805E-01  0.94596177429E+00  0.93800000000E+00 0. -1.
         22    1    1    2    0    0  0.10256148179E+00  0.18024088981E+00  0.23193420799E+01  0.23285947091E+01  0.00000000000E+00 0.  1.
</event>
<event>
 5    1  0.2111786E+001  0.1469116E+01  0.7818608E-02  0.3508943E+00
         11   -1    0    0    0    0  0.00000000000E+00  0.00000000000E+00  0.39999999674E+01  0.40000000000E+01  0.51100000000E-03 0.  1.
    9000002   -1    0    0    0    0 -0.00000000000E+00 -0.00000000000E+00  0.00000000000E+00  0.93800000000E+00  0.93800000000E+00 0. -1.
         11    1    1    2    0    0 -0.15701681298E+00 -0.37178269681E+00  0.81023554989E+00  0.90518426888E+00  0.51100000000E-03 0.  1.
    9000002    1    1    2    0    0  0.15995791972E-01  0.21248683280E+00  0.13578635249E+00  0.97143628355E+00  0.93800000000E+00 0. -1.
         22    1    1    2    0    0  0.14102102101E+00  0.15929586401E+00  0.30539780650E+01  0.30613794476E+01  0.00000000000E+00 0.  1.
</event>
<event>
 5    1  0.2111786E+001  0.1491160E+01  0.7818608E-02  0.3480685E+00
         11   -1    0    0    0    0  0.00000000000E+00  0.00000000000E+00  0.39999999674E+01  0.40000000000E+01  0.51100000000E-03 0. -1.
    9000002   -1    0    0    0    0 -0.00000000000E+00 -0.00000000000E+00  0.00000000000E+00  0.93800000000E+00  0.93800000000E+00 0. -1.
         11    1    1    2    0    0 -0.41349077789E-02  0.21696375786E+00  0.27861184747E+00  0.35315038207E+00  0.51100000000E-03 0. -1.
    9000002    1    1    2    0    0  0.62670136413E-01 -0.25401369757E-01  0.86453097093E-01  0.94439976365E+00  0.93800000000E+00 0. -1.
         22    1    1    2    0    0 -0.58535228634E-01 -0.19156238811E+00  0.36349350228E+01  0.36404498543E+01  0.00000000000E+00 0. -1.
</event>
<event>
 5    1  0.2111786E+001  0.1563769E+01  0.7818608E-02  0.3393652E+00
         11   -1    0    0    0    0  0.00000000000E+00  0.00000000000E+00  0.39999999674E+01  0.40000000000E+01  0.51100000000E-03 0.  1.
    9000002   -1    0    0    0    0 -0.00000000000E+00 -0.00000000000E+00  0.00000000000E+00  0.93800000000E+00  0.93800000000E+00 0. -1.
         11    1    1    2    0    0  0.20212719048E+00 -0.67838064318E-01  0.16062607434E+01  0.16203491108E+01  0.51100000000E-03 0.  1.
    9000002    1    1    2    0    0  0.31520363553E-01  0.12834701939E-01  0.27243057009E-01  0.93901248503E+00  0.93800000000E+00 0. -1.
         22    1    1    2    0    0 -0.23364755404E+00  0.55003362379E-01  0.23664961670E+01  0.23786384041E+01  0.00000000000E+00 0.  1.
</event>
<event>
 5    1  0.2111786E+001  0.1553429E+01  0.7818608E-02  0.3405515E+00
         11   -1    0    0    0    0  0.00000000000E+00  0.00000000000E+00  0.39999999674E+01  0.40000000000E+01  0.51100000000E-03 0. -1.
    9000002   -1    0    0    0    0 -0.00000000000E+00 -0.00000000000E+00  0.00000000000E+00  0.93800000000E+00  0.93800000000E+00 0.  1.
         11    1    1    2    0    0  0.15708731327E+00  0.15534398124E+00  0.28269753961E+01  0.28355948808E+01  0.51100000000E-03 0. -1.
    9000002    1    1    2    0    0  0.10658898204E-01  0.16530931528E-01  0.34515933740E-01  0.93884089892E+00  0.93800000000E+00 0.  1.
         22    1    1    2    0    0 -0.16774621147E+00 -0.17187491277E+00  0.11385086375E+01  0.11635642203E+01  0.00000000000E+00 0.  1.
</event>
<event>
 5    1  0.2111786E+001  0.1582648E+01  0.7818608E-02  0.3372415E+00
         11   -1    0    0    0    0  0.00000000000E+00  0.00000000000E+00  0.39999999674E+01  0.40000000000E+01  0.51100000000E-03 0.  1.
    9000002   -1    0    0    0    0 -0.00000000000E+00 -0.00000000000E+00  0.00000000000E+00  0.93800000000E+00  0.93800000000E+00 0. -1.
         11    1    1    2    0    0  0.21722367255E-01  0.10925697658E+00  0.57219749281E+00  0.58294011706E+00  0.51100000000E-03 0.  1.
    9000002    1    1    2    0    0  0.21634634953E+00 -0.82791584911E-01  0.48624755960E-01  0.96740299585E+00  0.93800000000E+00 0. -1.
         22    1    1    2    0    0 -0.23806871679E+00 -0.26465391673E-01  0.33791777186E+01  0.33876568871E+01  0.00000000000E+00 0.  1.
</event>
<event>
 5    1  0.2111786E+001  0.1596843E+01  0.7818608E-02  0.3356797E+00
         11   -1    0    0    0    0  0.00000000000E+00  0.00000000000E+00  0.39999999674E+01  0.40000000000E+01  0.51100000000E-03 0.  1.
    9000002   -1    0    0    0    0 -0.00000000000E+00 -0.00000000000E+00  0.00000000000E+00  0.93800000000E+00  0.93800000000E+00 0.  1.
         11    1    1    2    0    0 -0.56492427558E-02 -0.16466475926E+00  0.13921928347E+01  0.14019085373E+01  0.51100000000E-03 0.  1.
    9000002    1    1    2    0    0 -0.12311889527E+00  0.35982026030E+00  0.99645508039E-01  0.10170556078E+01  0.93800000000E+00 0.  1.
         22    1    1    2    0    0  0.12876813803E+00 -0.19515550104E+00  0.25081616246E+01  0.25190358549E+01  0.00000000000E+00 0.  1.
</event>
<event>
 5    1  0.2111786E+001  0.1561302E+01  0.7818608E-02  0.3396466E+00
         11   -1    0    0    0    0  0.00000000000E+00  0.00000000000E+00  0.39999999674E+01  0.40000000000E+01  0.51100000000E-03 0. -1.
    9000002   -1    0    0    0    0 -0.00000000000E+00 -0.00000000000E+00  0.00000000000E+00  0.93800000000E+00  0.93800000000E+00 0.  1.
         11    1    1    2    0    0  0.15347567606E+00  0.12106165603E+00  0.85730771248E+00  0.87931079983E+00  0.51100000000E-03 0. -1.
    9000002    1    1    2    0    0  0.10502520012E+00 -0.17358077015E+00  0.56614182279E-01  0.96135827976E+00  0.93800000000E+00 0.  1.
         22    1    1    2    0    0 -0.25850087618E+00  0.52519114121E-01  0.30860780726E+01  0.30973309204E+01  0.00000000000E+00 0. -1.
</event>
<event>
 5    1  0.2111786E+001  0.1553492E+01  0.7818608E-02  0.3405442E+00
         11   -1    0    0    0    0  0.00000000000E+00  0.00000000000E+00  0.39999999674E+01  0.40000000000E+01  0.51100000000E-03 0.  1.
    9000002   -1    0    0    0    0 -0.00000000000E+00 -0.00000000000E+00  0.00000000000E+00  0.93800000000E+00  0.93800000000E+00 0.  1.
         11    1    1    2    0    0  0.97064542539E-01  0.15632555206E+00  0.65736631449E+00  0.68263455538E+00  0.51100000000E-03 0.  1.
    9000002    1    1    2    0    0  0.65046094295E-02  0.61972999849E-01  0.36877189266E-01  0.94079056635E+00  0.93800000000E+00 0.  1.
         22    1    1    2    0    0 -0.10356915197E+00 -0.21829855191E+00  0.33057564636E+01  0.33145748783E+01  0.00000000000E+00 0.  1.
</event>
<event>
 5    1  0.2111786E+001  0.1436682E+01  0.7818608E-02  0.3552237E+00
         11   -1    0    0    0    0  0.00000000000E+00  0.00000000000E+00  0.39999999674E+01  0.40000000000E+01  0.51100000000E-03 0. -1.
    9000002   -1    0    0    0    0 -0.00000000000E+00 -0.00000000000E+00  0.00000000000E+00  0.93800000000E+00  0.93800000000E+00 0.  1.
         11    1    1    2    0    0  0.95790828925E-01 -0.46532562489E+00  0.24174167426E+01  0.24636574008E+01  0.51100000000E-03 0. -1.
    9000002    1    1    2    0    0 -0.88608120621E-01 -0.65548211683E-02  0.13506015008E+00  0.95182961125E+00  0.93800000000E+00 0.  1.
         22    1    1    2    0    0 -0.71827083035E-02  0.47188044606E+00  0.14475230747E+01  0.15225129880E+01  0.00000000000E+00 0.  1.
</event>
<event>
 5    1  0.2111786E+001  0.1451159E+01  0.7818608E-02  0.3532652E+00
         11   -1    0    0    0    0  0.00000000000E+00  0.00000000000E+00  0.39999999674E+01  0.40000000000E+01  0.51100000000E-03 0. -1.
    9000002   -1    0    0    0    0 -0.00000000000E+00 -0.00000000000E+00  0.00000000000E+00  0.93800000000E+00  0.93800000000E+00 0. -1.
         11    1    1    2    0    0 -0.14331169518E+00  0.16342632277E+00  0.12535815966E+00  0.25092097215E+00  0.51100000000E-03 0. -1.
    9000002    1    1    2    0    0  0.34340515728E+00 -0.55366206133E-01  0.21866513369E+00  0.10240366007E+01  0.93800000000E+00 0. -1.
         22    1    1    2    0    0 -0.20009346210E+00 -0.10806011664E+00  0.36559766740E+01  0.36630424272E+01  0.00000000000E+00 0. -1.
</event>
<event>
 5    1  0.2111786E+001  0.1550601E+01  0.7818608E-02  0.3408788E+00
         11   -1    0    0    0    0  0.00000000000E+00  0.00000000000E+00  0.39999999674E+01  0.40000000000E+01  0.51100000000E-03 0.  1.
    9000002   -1    0    0    0    0 -0.00000000000E+00 -0.00000000000E+00  0.00000000000E+00  0.93800000000E+00  0.93800000000E+00 0.  1.
         11    1    1    2    0    0 -0.17975597497E+00 -0.14347398820E-01  0.76915338616E+00  0.79000965245E+00  0.51100000000E-03 0.  1.
    9000002    1    1    2    0    0 -0.15668890197E+00  0.20522202196E+00  0.82951784588E-01  0.97641819364E+00  0.93800000000E+00 0.  1.
         22    1    1    2    0    0  0.33644487695E+00 -0.19087462314E+00  0.31478947966E+01  0.31715721539E+01  0.00000000000E+00 0.  1.
</event>
<event>
 5    1  0.2111786E+001  0.1548112E+01  0.7818608E-02  0.3411681E+00
         11   -1    0    0    0    0  0.00000000000E+00  0.00000000000E+00  0.39999999674E+01  0.40000000000E+01  0.51100000000E-03 0. -1.
    9000002   -1    0    0    0    0 -0.00000000000E+00 -0.00000000000E+00  0.00000000000E+00  0.93800000000E+00  0.93800000000E+00 0.  1.
         11    1    1    2    0    0  0.12939964212E+00 -0.27309455324E+00  0.25924312375E+01  0.26099856100E+01  0.51100000000E-03 0. -1.
    9000002    1    1    2    0    0 -0.15594068682E+00  0.22766096729E-01  0.55557449176E-01  0.95276776978E+00  0.93800000000E+00 0.  1.
         22    1    1    2    0    0  0.26541044705E-01  0.25032845651E+00  0.13520112807E+01  0.13752466202E+01  0.00000000000E+00 0.  1.
</event>
<event>
 5    1  0.2111786E+001  0.1544226E+01  0.7818608E-02  0.3416216E+00
         11   -1    0    0    0    0  0.00000000000E+00  0.00000000000E+00  0.39999999674E+01  0.40000000000E+01  0.51100000000E-03 0.  1.
    9000002   -1    0    0    0    0 -0.00000000000E+00 -0.00000000000E+00  0.00000000000E+00  0.93800000000E+00  0.93800000000E+00 0. -1.
         11    1    1    2    0    0 -0.17682753649E-01 -0.26043631844E+00  0.33151529933E+01  0.33254141676E+01  0.51100000000E-03 0.  1.
    9000002    1    1    2    0    0 -0.71239581390E-01  0.78133681738E-01  0.49045265419E-01  0.94521393781E+00  0.93800000000E+00 0. -1.
         22    1    1    2    0    0  0.88922335039E-01  0.18230263670E+00  0.63580170864E+00  0.66737189462E+00  0.00000000000E+00 0. -1.
</event>
<event>
 5    1  0.2111786E+001  0.1526915E+01  0.7818608E-02  0.3436719E+00
         11   -1    0    0    0    0  0.00000000000E+00  0.00000000000E+00  0.39999999674E+01  0.40000000000E+01  0.51100000000E-03 0.  1.
    9000002   -1    0    0    0    0 -0.00000000000E+00 -0.00000000000E+00  0.00000000000E+00  0.93800000000E+00  0.93800000000E+00 0.  1.
         11    1    1    2    0    0  0.97567915050E-01  0.36442307477E+00  0.22441055479E+01  0.22755952291E+01  0.51100000000E-03 0.  1.
    9000002    1    1    2    0    0 -0.16562640186E+00 -0.75623898689E-01  0.78230469772E-01  0.95870490008E+00  0.93800000000E+00 0.  1.
         22    1    1    2    0    0  0.68058486806E-01 -0.28879917608E+00  0.16776639497E+01  0.17036998708E+01  0.00000000000E+00 0.  1.
</event>
<event>
 5    1  0.2111786E+001  0.1548075E+01  0.7818608E-02  0.3411724E+00
         11   -1    0    0    0    0  0.00000000000E+00  0.00000000000E+00  0.39999999674E+01  0.40000000000E+01  0.51100000000E-03 0. -1.
    9000002   -1    0    0    0    0 -0.00000000000E+00 -0.00000000000E+00  0.00000000000E+00  0.93800000000E+00  0.93800000000E+00 0.  1.
         11    1    1    2    0    0  0.30291715671E+00  0.57738859491E-01  0.18733730945E+01  0.18985835752E+01  0.51100000000E-03 0. -1.
    9000002    1    1    2    0    0 -0.63990940343E-01 -0.89190912365E-01  0.46678798023E-01  0.94555421287E+00  0.93800000000E+00 0.  1.
         22    1    1    2    0    0 -0.23892621637E+00  0.31452052874E-01  0.20799480748E+01  0.20938622119E+01  0.00000000000E+00 0. -1.
</event>
<event>
 5    1  0.2111786E+001  0.1471691E+01  0.7818608E-02  0.3505596E+00
         11   -1    0    0    0    0  0.00000000000E+00  0.00000000000E+00  0.39999999674E+01  0.40000000000E+01  0.51100000000E-03 0.  1.
    9000002   -1    0    0    0    0 -0.00000000000E+00 -0.00000000000E+00  0.00000000000E+00  0.93800000000E+00  0.93800000000E+00 0.  1.
         11    1    1    2    0    0 -0.96199823461E-01  0.27505735017E+00  0.45329329862E+00  0.53887477915E+00  0.51100000000E-03 0.  1.
    9000002    1    1    2    0    0 -0.37777503005E-01 -0.63805853492E-01  0.10322766940E+00  0.94657185591E+00  0.93800000000E+00 0.  1.
         22    1    1    2    0    0  0.13397732647E+00 -0.21125149667E+00  0.34434789993E+01  0.34525533649E+01  0.00000000000E+00 0.  1.
</event>
<event>
 5    1  0.2111786E+001  0.1543269E+01  0.7818608E-02  0.3417337E+00
         11   -1    0    0    0    0  0.00000000000E+00  0.00000000000E+00  0.39999999674E+01  0.40000000000E+01  0.51100000000E-03 0. -1.
    9000002   -1    0    0    0    0 -0.00000000000E+00 -0.00000000000E+00  0.00000000000E+00  0.93800000000E+00  0.93800000000E+00 0. -1.
         11    1    1    2    0    0  0.13336709556E+00  0.15823562898E-02  0.24915576613E+01  0.24951250723E+01  0.51100000000E-03 0. -1.
    9000002    1    1    2    0    0  0.14042895134E+00  0.25213414104E+00  0.10077379001E+00  0.98655525553E+00  0.93800000000E+00 0. -1.
         22    1    1    2    0    0 -0.27379604690E+00 -0.25371649733E+00  0.14076685161E+01  0.14563196721E+01  0.00000000000E+00 0.  1.
</event>
<event>
 5    1  0.2111786E+001  0.1588779E+01  0.7818608E-02  0.3365633E+00
         11   -1    0    0    0    0  0.00000000000E+00  0.00000000000E+00  0.39999999674E+01  0.40000000000E+01  0.51100000000E-03 0. -1.
    9000002   -1    0    0    0    0 -0.00000000000E+00 -0.00000000000E+00  0.00000000000E+00  0.93800000000E+00  0.93800000000E+00 0. -1.
         11    1    1    2    0    0  0.32102777453E+00 -0.19962757316E-01  0.27310952359E+01  0.27499706893E+01  0.51100000000E-03 0. -1.
    9000002    1    1    2    0    0 -0.54654576354E+00 -0.91437583902E-01  0.22266573973E+00  0.11119789274E+01  0.93800000000E+00 0. -1.
         22    1    1    2    0    0  0.22551798901E+00  0.11140034122E+00  0.10462389918E+01  0.10760503832E+01  0.00000000000E+00 0. -1.
</event>
<event>
 5    1  0.2111786E+001  0.1548670E+01  0.7818608E-02  0.3411032E+00
         11   -1    0    0    0    0  0.00000000000E+00  0.00000000000E+00  0.39999999674E+01  0.40000000000E+01  0.51100000000E-03 0. -1.
    9000002   -1    0    0    0    0 -0.00000000000E+00 -0.00000000000E+00  0.00000000000E+00  0.93800000000E+00  0.93800000000E+00 0. -1.
         11    1    1    2    0    0 -0.66959706790E-01  0.12274254672E+00  0.31164756630E+00  0.34157547015E+00  0.51100000000E-03 0. -1.
    9000002    1    1    2    0    0 -0.22592960014E-01  0.11872889888E+00  0.47998005430E-01  0.94697138383E+00  0.93800000000E+00 0. -1.
         22    1    1    2    0    0  0.89552666803E-01 -0.24147144560E+00  0.36403543956E+01  0.36494531460E+01  0.00000000000E+00 0. -1.
</event>
<event>
 5    1  0.2111786E+001  0.1523424E+01  0.7818608E-02  0.3440914E+00
         11   -1    0    0    0    0  0.00000000000E+00  0.00000000000E+00  0.39999999674E+01  0.40000000000E+01  0.51100000000E-03 0. -1.
    9000002   -1    0    0    0    0 -0.00000000000E+00 -0.00000000000E+00  0.00000000000E+00  0.93800000000E+00  0.93800000000E+00 0. -1.
         11    1    1    2    0    0 -0.12618269511E-02  0.29025825390E+00  0.18834833787E+00  0.34601561188E+00  0.51100000000E-03 0. -1.
    9000002    1    1    2    0    0  0.27106736682E+00  0.19635633127E-01  0.25182772324E+00  0.10085257942E+01  0.93800000000E+00 0. -1.
         22    1    1    2    0    0 -0.26980553987E+00 -0.30989388703E+00  0.35598239063E+01  0.35834585939E+01  0.00000000000E+00 0. -1.
</event>
<event>
 5    1  0.2111786E+001  0.1572816E+01  0.7818608E-02  0.3383407E+00
         11   -1    0    0    0    0  0.00000000000E+00  0.00000000000E+00  0.39999999674E+01  0.40000000000E+01  0.51100000000E-03 0.  1.
    9000002   -1    0    0    0    0 -0.00000000000E+00 -0.00000000000E+00  0.00000000000E+00  0.93800000000E+00  0.93800000000E+00 0. -1.
         11    1    1    2    0    0 -0.53254525592E-01 -0.18622233248E+00  0.20018092684E+01  0.20111577287E+01  0.51100000000E-03 0.  1.
    9000002    1    1    2    0    0 -0.44139984393E-01  0.80184830863E-02  0.21059217601E-01  0.93930832262E+00  0.93800000000E+00 0. -1.
         22    1    1    2    0    0  0.97394509984E-01  0.17820384939E+00  0.19771314813E+01  0.19875339487E+01  0.00000000000E+00 0. -1.
</event>
<event>
 5    1  0.2111786E+001  0.1561920E+01  0.7818608E-02  0.3395761E+00
         11   -1    0    0    0    0  0.00000000000E+00  0.00000000000E+00  0.39999999674E+01  0.40000000000E+01  0.51100000000E-03 0.  1.
    9000002   -1    0    0    0    0 -0.00000000000E+00 -0.00000000000E+00  0.00000000000E+00  0.93800000000E+00  0.93800000000E+00 0. -1.
         11    1    1    2    0    0  0.15380131140E+00 -0.21164646453E+00  0.24485304112E+01  0.24624683764E+01  0.51100000000E-03 0.  1.
    9000002    1    1    2    0    0 -0.67546971227E-02  0.65628001241E-01  0.30815359528E-01  0.94082211223E+00  0.93800000000E+00 0. -1.
         22    1    1    2    0    0 -0.14704661427E+00  0.14601846329E+00  0.15206541967E+01  0.15347095113E+01  0.00000000000E+00 0.  1.
</event>
<event>
 5    1  0.2111786E+001  0.1537021E+01  0.7818608E-02  0.3424689E+00
         11   -1    0    0    0    0  0.00000000000E+00  0.00000000000E+00  0.39999999674E+01  0.40000000000E+01  0.51100000000E-03 0. -1.
    9000002   -1    0    0    0    0 -0.00000000000E+00 -0.00000000000E+00  0.00000000000E+00  0.93800000000E+00  0.93800000000E+00 0.  1.
         11    1    1    2    0    0  0.25813023008E+00  0.12357781550E+00  0.10237275405E+01  0.10629774365E+01  0.51100000000E-03 0. -1.
    9000002    1    1    2    0    0 -0.59176601682E-01 -0.63336639948E-01  0.52063284044E-01  0.94343414486E+00  0.93800000000E+00 0.  1.
         22    1    1    2    0    0 -0.19895362840E+00 -0.60241175547E-01  0.29242091428E+01  0.29315884187E+01  0.00000000000E+00 0.  1.
</event>
<event>
 5    1  0.2111786E+001  0.1568730E+01  0.7818608E-02  0.3388018E+00
         11   -1    0    0    0    0  0.00000000000E+00  0.00000000000E+00  0.39999999674E+01  0.40000000000E+01  0.51100000000E-03 0. -1.
    9000002   -1    0    0    0    0 -0.00000000000E+00 -0.00000000000E+00  0.00000000000E+00  0.93800000000E+00  0.93800000000E+00 0.  1.
         11    1    1    2    0    0 -0.28824236372E+00  0.48327034110E+00  0.75677473691E+00  0.94304938703E+00  0.51100000000E-03 0. -1.
    9000002    1    1    2    0    0  0.22558118409E+00 -0.80118985500E-01  0.28559667443E+00  0.10093143132E+01  0.93800000000E+00 0.  1.
         22    1    1    2    0    0  0.62661179627E-01 -0.40315135560E+00  0.29576285560E+01  0.29856362997E+01  0.00000000000E+00 0. -1.
</event>
<event>
 5    1  0.2111786E+001  0.1543279E+01  0.7818608E-02  0.3417325E+00
         11   -1    0    0    0    0  0.00000000000E+00  0.00000000000E+00  0.39999999674E+01  0.40000000000E+01  0.51100000000E-03 0.  1.
    9000002   -1    0    0    0    0 -0.00000000000E+00 -0.00000000000E+00  0.00000000000E+00  0.93800000000E+00  0.93800000000E+00 0.  1.
         11    1    1    2    0    0  0.21256045846E+00  0.55355852104E-01  0.68284869271E+00  0.71730664093E+00  0.51100000000E-03 0.  1.
    9000002    1    1    2    0    0 -0.24910421625E-01  0.46456183812E-01  0.43918809271E-01  0.94050601695E+00  0.93800000000E+00 0.  1.
         22    1    1    2    0    0 -0.18765003683E+00 -0.10181203592E+00  0.32732324654E+01  0.32801873421E+01  0.00000000000E+00 0.  1.
</event>
<event>
 5    1  0.2111786E+001  0.1564099E+01  0.7818608E-02  0.3393276E+00
         11   -1    0    0    0    0  0.00000000000E+00  0.00000000000E+00  0.39999999674E+01  0.40000000000E+01  0.51100000000E-03 0.  1.
    9000002   -1    0    0    0    0 -0.00000000000E+00 -0.00000000000E+00  0.00000000000E+00  0.93800000000E+00  0.93800000000E+00 0. -1.
         11    1    1    2    0    0  0.31998873313E+00  0.23923824381E+00  0.29850996599E+01  0.30117184409E+01  0.51100000000E-03 0.  1.
    9000002    1    1    2    0    0 -0.22955210689E+00 -0.46124133755E+00  0.21543082930E+00  0.10916465469E+01  0.93800000000E+00 0. -1.
         22    1    1    2    0    0 -0.90436626238E-01  0.22200309374E+00  0.79946947820E+00  0.83463501218E+00  0.00000000000E+00 0.  1.
</event>
<event>
 5    1  0.2111786E+001  0.1500694E+01  0.7818608E-02  0.3468741E+00
         11   -1    0    0    0    0  0.00000000000E+00  0.00000000000E+00  0.39999999674E+01  0.40000000000E+01  0.51100000000E-03 0.  1.
    9000002   -1    0    0    0    0 -0.00000000000E+00 -0.00000000000E+00  0.00000000000E+00  0.93800000000E+00  0.93800000000E+00 0.  1.
         11    1    1    2    0    0 -0.19229165272E+00 -0.16613500883E+00  0.65426937960E+00  0.70188717260E+00  0.51100000000E-03 0.  1.
    9000002    1    1    2    0    0 -0.66659585065E-01 -0.20048619499E+00  0.10814626670E+00  0.96756282983E+00  0.93800000000E+00 0.  1.
         22    1    1    2    0    0  0.25895123778E+00  0.36662120382E+00  0.32375843211E+01  0.32685499976E+01  0.00000000000E+00 0.  1.
</event>
<event>
 5    1  0.2111786E+001  0.1550712E+01  0.7818608E-02  0.3408660E+00
         11   -1    0    0    0    0  0.00000000000E+00  0.00000000000E+00  0.39999999674E+01  0.40000000000E+01  0.51100000000E-03 0. -1.
    9000002   -1    0    0    0    0 -0.00000000000E+00 -0.00000000000E+00  0.00000000000E+00  0.93800000000E+00  0.93800000000E+00 0.  1.
         11    1    1    2    0    0 -0.24144927584E+00  0.13283132555E+00  0.24022820571E+01  0.24180366533E+01  0.51100000000E-03 0. -1.
    9000002    1    1    2    0    0  0.28426731210E-01 -0.11820580993E-02  0.36870861386E-01  0.93915543800E+00  0.93800000000E+00 0.  1.
         22    1    1    2    0    0  0.21302254463E+00 -0.13164926745E+00  0.15608470489E+01  0.15808079087E+01  0.00000000000E+00 0. -1.
</event>
<event>
 5    1  0.2111786E+001  0.1586281E+01  0.7818608E-02  0.3368389E+00
         11   -1    0    0    0    0  0.00000000000E+00  0.00000000000E+00  0.39999999674E+01  0.40000000000E+01  0.51100000000E-03 0.  1.
    9000002   -1    0    0    0    0 -0.00000000000E+00 -0.00000000000E+00  0.00000000000E+00  0.93800000000E+00  0.93800000000E+00 0.  1.
         11    1    1    2    0    0  0.34801568281E+00  0.94095935370E-01  0.20221534052E+01  0.20540383677E+01  0.51100000000E-03 0.  1.
    9000002    1    1    2    0    0 -0.51833051464E+00  0.46695896613E-01  0.19845999455E+00  0.10909066865E+01  0.93800000000E+00 0.  1.
         22    1    1    2    0    0  0.17031483183E+00 -0.14079183198E+00  0.17793865676E+01  0.17930549458E+01  0.00000000000E+00 0.  1.
</event>
<event>
 5    1  0.2111786E+001  0.1353842E+01  0.7818608E-02  0.3683843E+00
         11   -1    0    0    0    0  0.00000000000E+00  0.00000000000E+00  0.39999999674E+01  0.40000000000E+01  0.51100000000E-03 0. -1.
    9000002   -1    0    0    0    0 -0.00000000000E+00 -0.00000000000E+00  0.00000000000E+00  0.93800000000E+00  0.93800000000E+00 0. -1.
         11    1    1    2    0    0  0.48729066446E+00 -0.31008872518E+00  0.12705160148E+01  0.13956426528E+01  0.51100000000E-03 0. -1.
    9000002    1    1    2    0    0  0.95136154832E-01  0.23544321092E+00  0.26269801578E+00  0.10066472277E+01  0.93800000000E+00 0. -1.
         22    1    1    2    0    0 -0.58242681929E+00  0.74645514258E-01  0.24667859367E+01  0.25357101195E+01  0.00000000000E+00 0. -1.
</event>
<event>
 5    1  0.2111786E+001  0.1538594E+01  0.7818608E-02  0.3422832E+00
         11   -1    0    0    0    0  0.00000000000E+00  0.00000000000E+00  0.39999999674E+01  0.40000000000E+01  0.51100000000E-03 0. -1.
    9000002   -1    0    0    0    0 -0.00000000000E+00 -0.00000000000E+00  0.00000000000E+00  0.93800000000E+00  0.93800000000E+00 0. -1.
         11    1    1    2    0    0  0.21973482657E-01  0.37564793305E+00  0.23750635925E+01  0.24046874086E+01  0.51100000000E-03 0. -1.
    9000002    1    1    2    0    0  0.24853562616E-01 -0.14429048685E+00  0.60625196062E-01  0.95129220462E+00  0.93800000000E+00 0. -1.
         22    1    1    2    0    0 -0.46827045272E-01 -0.23135744620E+00  0.15643111788E+01  0.15820203867E+01  0.00000000000E+00 0. -1.
</event>
<event>
 5    1  0.2111786E+001  0.1527154E+01  0.7818608E-02  0.3436432E+00
         11   -1    0    0    0    0  0.00000000000E+00  0.00000000000E+00  0.39999999674E+01  0.40000000000E+01  0.51100000000E-03 0.  1.
    9000002   -1    0    0    0    0 -0.00000000000E+00 -0.00000000000E+00  0.00000000000E+00  0.93800000000E+00  0.93800000000E+00 0. -1.
         11    1    1    2    0    0  0.18538017298E-01  0.60413567404E+00  0.21754727374E+01  0.22578763170E+01  0.51100000000E-03 0.  1.
    9000002    1    1    2    0    0 -0.26683479371E+00 -0.53550969486E+00  0.32562232323E+00  0.11592434334E+01  0.93800000000E+00 0. -1.
         22    1    1    2    0    0  0.24829677642E+00 -0.68625979179E-01  0.14989049068E+01  0.15208802496E+01  0.00000000000E+00 0.  1.
</event>
<event>
 5    1  0.2111786E+001  0.1567782E+01  0.7818608E-02  0.3389092E+00
         11   -1    0    0    0    0  0.00000000000E+00  0.00000000000E+00  0.39999999674E+01  0.40000000000E+01  0.51100000000E-03 0. -1.
    9000002   -1    0    0    0    0 -0.00000000000E+00 -0.00000000000E+00  0.00000000000E+00  0.93800000000E+00  0.93800000000E+00 0. -1.
         11    1    1    2    0    0 -0.18471759639E+00  0.11435064050E+00  0.23680607902E+01  0.23780052201E+01  0.51100000000E-03 0. -1.
    9000002    1    1    2    0    0 -0.30023650369E-01 -0.93662923278E-01  0.30026621810E-01  0.94362055976E+00  0.93800000000E+00 0. -1.
         22    1    1    2    0    0  0.21474124676E+00 -0.20687717224E-01  0.16019125553E+01  0.16163742202E+01  0.00000000000E+00 0.  1.
</event>
<event>
 5    1  0.2111786E+001  0.1567849E+01  0.7818608E-02  0.3389015E+00
         11   -1    0    0    0    0  0.00000000000E+00  0.00000000000E+00  0.39999999674E+01  0.40000000000E+01  0.51100000000E-03 0.  1.
    9000002   -1    0    0    0    0 -0.00000000000E+00 -0.00000000000E+00  0.00000000000E+00  0.93800000000E+00  0.93800000000E+00 0. -1.
         11    1    1    2    0    0 -0.40325267023E-01 -0.18708016857E+00  0.15124192526E+01  0.15244793779E+01  0.51100000000E-03 0.  1.
    9000002    1    1    2    0    0 -0.42895021359E-01 -0.35582142712E-01  0.25508798777E-01  0.94000040987E+00  0.93800000000E+00 0. -1.
         22    1    1    2    0    0  0.83220288381E-01  0.22266231128E+00  0.24620719159E+01  0.24735202123E+01  0.00000000000E+00 0.  1.
</event>
<event>
 5    1  0.2111786E+001  0.1566078E+01  0.7818608E-02  0.3391025E+00
         11   -1    0    0    0    0  0.00000000000E+00  0.00000000000E+00  0.39999999674E+01  0.40000000000E+01  0.51100000000E-03 0.  1.
    9000002   -1    0    0    0    0 -0.00000000000E+00 -0.00000000000E+00  0.00000000000E+00  0.93800000000E+00  0.93800000000E+00 0.  1.
         11    1    1    2    0    0  0.60897940978E-01  0.68905293371E-01  0.28506178944E+01  0.28521008292E+01  0.51100000000E-03 0.  1.
    9000002    1    1    2    0    0 -0.16064134836E+00  0.16795226543E+00  0.61770558226E-01  0.96833527672E+00  0.93800000000E+00 0.  1.
         22    1    1    2    0    0  0.99743407384E-01 -0.23685755880E+00  0.10876115147E+01  0.11175638941E+01  0.00000000000E+00 0.  1.
</event>
<event>
 5    1  0.2111786E+001  0.1524530E+01  0.7818608E-02  0.3439583E+00
         11   -1    0    0    0    0  0.00000000000E+00  0.00000000000E+00  0.39999999674E+01  0.40000000000E+01  0.51100000000E-03 0.  1.
    9000002   -1    0    0    0    0 -0.00000000000E+00 -0.00000000000E+00  0.00000000000E+00  0.93800000000E+00  0.93800000000E+00 0.  1.
         11    1    1    2    0    0 -0.32616092539E+00  0.28227058808E+00  0.21154835930E+01  0.21590110531E+01  0.51100000000E-03 0.  1.
    9000002    1    1    2    0    0  0.20829191532E-01 -0.34428086339E+00  0.14271557914E+00  0.10095419281E+01  0.93800000000E+00 0.  1.
         22    1    1    2    0    0  0.30533173386E+00  0.62010275310E-01  0.17418007952E+01  0.17694470188E+01  0.00000000000E+00 0.  1.
</event>
<event>
 5    1  0.2111786E+001  0.1596132E+01  0.7818608E-02  0.3357572E+00
         11   -1    0    0    0    0  0.00000000000E+00  0.00000000000E+00  0.39999999674E+01  0.40000000000E+01  0.51100000000E-03 0. -1.
    9000002   -1    0    0    0    0 -0.00000000000E+00 -0.00000000000E+00  0.00000000000E+00  0.93800000000E+00  0.93800000000E+00 0. -1.
         11    1    1    2    0    0 -0.16072052857E+00  0.60564625701E-01  0.19179619748E+01  0.19256369232E+01  0.51100000000E-03 0. -1.
    9000002    1    1    2    0    0  0.24977106742E+00 -0.24710816982E+00  0.85647547899E-01  0.10052997245E+01  0.93800000000E+00 0. -1.
         22    1    1    2    0    0 -0.89050538851E-01  0.18654354412E+00  0.19963904447E+01  0.20070633522E+01  0.00000000000E+00 0. -1.
</event>
<event>
 5    1  0.2111786E+001  0.1539443E+01  0.7818608E-02  0.3421832E+00
         11   -1    0    0    0    0  0.00000000000E+00  0.00000000000E+00  0.39999999674E+01  0.40000000000E+01  0.51100000000E-03 0. -1.
    9000002   -1    0    0    0    0 -0.00000000000E+00 -0.00000000000E+00  0.00000000000E+00  0.93800000000E+00  0.93800000000E+00 0.  1.
         11    1    1    2    0    0 -0.19713642562E+00  0.13288122817E+00  0.72631832291E+00  0.76423737047E+00  0.51100000000E-03 0. -1.
    9000002    1    1    2    0    0  0.48086664484E-01  0.17088878262E-02  0.46547661767E-01  0.94038605499E+00  0.93800000000E+00 0.  1.
         22    1    1    2    0    0  0.14904976113E+00 -0.13459011600E+00  0.32271339827E+01  0.32333765745E+01  0.00000000000E+00 0. -1.
</event>
<event>
 5    1  0.2111786E+001  0.1583463E+01  0.7818608E-02  0.3371510E+00
         11   -1    0    0    0    0  0.00000000000E+00  0.00000000000E+00  0.39999999674E+01  0.40000000000E+01  0.51100000000E-03 0.  1.
    9000002   -1    0    0    0    0 -0.00000000000E+00 -0.00000000000E+00  0.00000000000E+00  0.93800000000E+00  0.93800000000E+00 0. -1.
         11    1    1    2    0    0 -0.10965263438E+00 -0.31070675016E-01  0.12890654268E+01  0.12940939002E+01  0.51100000000E-03 0.  1.
    9000002    1    1    2    0    0 -0.43732570648E-01 -0.12739177142E+00  0.23988311782E-01  0.94792438531E+00  0.93800000000E+00 0. -1.
         22    1    1    2    0    0  0.15338520503E+00  0.15846244643E+00  0.26869462288E+01  0.26959817144E+01  0.00000000000E+00 0.  1.
</event>
<event>
 5    1  0.2111786E+001  0.1439016E+01  0.7818608E-02  0.3549051E+00
         11   -1    0    0    0    0  0.00000000000E+00  0.00000000000E+00  0.39999999674E+01  0.40000000000E+01  0.51100000000E-03 0.  1.
    9000002   -1    0    0    0    0 -0.00000000000E+00 -0.00000000000E+00  0.00000000000E+00  0.93800000000E+00  0.93800000000E+00 0. -1.
         11    1    1    2    0    0  0.63707206693E+00 -0.21208927432E+00  0.26131190134E+01  0.26980055445E+01  0.51100000000E-03 0.  1.
    9000002    1    1    2    0    0 -0.29362869287E+00  0.42163322083E+00  0.34601911875E+00  0.11240843441E+01  0.93800000000E+00 0. -1.
         22    1    1    2    0    0 -0.34344337406E+00 -0.20954394650E+00  0.10408618352E+01  0.11159101114E+01  0.00000000000E+00 0. -1.
</event>
<event>
 5    1  0.2111786E+001  0.1508843E+01  0.7818608E-02  0.3458661E+00
         11   -1    0    0    0    0  0.00000000000E+00  0.00000000000E+00  0.39999999674E+01  0.40000000000E+01  0.51100000000E-03 0. -1.
    9000002   -1    0    0    0    0 -0.00000000000E+00 -0.00000000000E+00  0.00000000000E+00  0.93800000000E+00  0.93800000000E+00 0.  1.
         11    1    1    2    0    0 -0.17957559013E+00 -0.49519658647E+00  0.21105694923E+01  0.21753093791E+01  0.51100000000E-03 0. -1.
    9000002    1    1    2    0    0  0.14378281383E+00  0.27062779815E+00  0.13780659102E+00  0.99636718092E+00  0.93800000000E+00 0.  1.
         22    1    1    2    0    0  0.35792776297E-01  0.22456878832E+00  0.17516238840E+01  0.17663234400E+01  0.00000000000E+00 0.  1.
</event>
<event>
 5    1  0.2111786E+001  0.1557217E+01  0.7818608E-02  0.3401149E+00
         11   -1    0    0    0    0  0.00000000000E+00  0.00000000000E+00  0.39999999674E+01  0.40000000000E+01  0.51100000000E-03 0.  1.
    9000002   -1    0    0    0    0 -0.00000000000E+00 -0.00000000000E+00  0.00000000000E+00  0.93800000000E+00  0.93800000000E+00 0.  1.
         11    1    1    2    0    0  0.12626995241E+00 -0.20719260206E+00  0.13880773409E+01  0.14091244943E+01  0.51100000000E-03 0.  1.
    9000002    1    1    2    0    0  0.64010430790E-01  0.65508380014E-01  0.37146051572E-01  0.94319272275E+00  0.93800000000E+00 0.  1.
         22    1    1    2    0    0 -0.19028038320E+00  0.14168422205E+00  0.25747765749E+01  0.25856827829E+01  0.00000000000E+00 0.  1.
</event>
<event>
 5    1  0.2111786E+001  0.1589422E+01  0.7818608E-02  0.3364925E+00
         11   -1    0    0    0    0  0.00000000000E+00  0.00000000000E+00  0.39999999674E+01  0.40000000000E+01  0.51100000000E-03 0.  1.
    9000002   -1    0    0    0    0 -0.00000000000E+00 -0.00000000000E+00  0.00000000000E+00  0.93800000000E+00  0.93800000000E+00 0.  1.
         11    1    1    2    0    0  0.17402011012E-01  0.55225917847E-01  0.29256093112E+00  0.29823630149E+00  0.51100000000E-03 0.  1.
    9000002    1    1    2    0    0 -0.18187507403E+00  0.11582632847E+00  0.38578981010E-01  0.96323757127E+00  0.93800000000E+00 0.  1.
         22    1    1    2    0    0  0.16447306302E+00 -0.17105224632E+00  0.36688600552E+01  0.36765261272E+01  0.00000000000E+00 0.  1.
</event>
<event>
 5    1  0.2111786E+001  0.1550873E+01  0.7818608E-02  0.3408474E+00
         11   -1    0    0    0    0  0.00000000000E+00  0.00000000000E+00  0.39999999674E+01  0.40000000000E+01  0.51100000000E-03 0. -1.
    9000002   -1    0    0    0    0 -0.00000000000E+00 -0.00000000000E+00  0.00000000000E+00  0.93800000000E+00  0.93800000000E+00 0.  1.
         11    1    1    2    0    0 -0.20997002395E+00  0.26415499215E+00  0.19105703795E+01  0.19401403834E+01  0.51100000000E-03 0. -1.
    9000002    1    1    2    0    0  0.24715836806E+00 -0.28374646541E-01  0.79363744229E-01  0.97367088041E+00  0.93800000000E+00 0.  1.
         22    1    1    2    0    0 -0.37188344107E-01 -0.23578034561E+00  0.20100658436E+01  0.20241887362E+01  0.00000000000E+00 0. -1.
</event>
<event>
 5    1  0.2111786E+001  0.1544980E+01  0.7818608E-02  0.3415334E+00
         11   -1    0    0    0    0  0.00000000000E+00  0.00000000000E+00  0.39999999674E+01  0.40000000000E+01  0.51100000000E-03 0. -1.
    9000002   -1    0    0    0    0 -0.00000000000E+00 -0.00000000000E+00  0.00000000000E+00  0.93800000000E+00  0.93800000000E+00 0.  1.
         11    1    1    2    0    0  0.43096598734E+00  0.17386390933E+00  0.10222623980E+01  0.11229341088E+01  0.51100000000E-03 0. -1.
    9000002    1    1    2    0    0 -0.64737819760E+00 -0.28030295826E+00  0.42087614775E+00  0.12468556496E+01  0.93800000000E+00 0.  1.
         22    1    1    2    0    0  0.21641221025E+00  0.10643904893E+00  0.25568614216E+01  0.25682102416E+01  0.00000000000E+00 0. -1.
</event>
<event>
 5    1  0.2111786E+001  0.1539279E+01  0.7818608E-02  0.3422025E+00
         11   -1    0    0    0    0  0.00000000000E+00  0.00000000000E+00  0.39999999674E+01  0.40000000000E+01  0.51100000000E-03 0.  1.
    9000002   -1    0    0    0    0 -0.00000000000E+00 -0.00000000000E+00  0.00000000000E+00  0.93800000000E+00  0.93800000000E+00 0. -1.
         11    1    1    2    0    0  0.34784489431E+00  0.67195530917E-01  0.13038762713E+01  0.13511494743E+01  0.51100000000E-03 0.  1.
    9000002    1    1    2    0    0 -0.20464980113E+00 -0.30428913549E+00  0.14123077906E+00  0.10169874886E+01  0.93800000000E+00 0. -1.
         22    1    1    2    0    0 -0.14319509319E+00  0.23709360457E+00  0.25548929170E+01  0.25698630371E+01  0.00000000000E+00 0.  1.
</event>
<event>
 5    1  0.2111786E+001  0.1585896E+01  0.7818608E-02  0.3368815E+00
         11   -1    0    0    0    0  0.00000000000E+00  0.00000000000E+00  0.39999999674E+01  0.40000000000E+01  0.51100000000E-03 0. -1.
    9000002   -1    0    0    0    0 -0.00000000000E+00 -0.00000000000E+00  0.00000000000E+00  0.93800000000E+00  0.93800000000E+00 0.  1.
         11    1    1    2    0    0 -0.23275402275E+00  0.62799576230E-01  0.22289776953E+01  0.22419768173E+01  0.51100000000E-03 0. -1.
    9000002    1    1    2    0    0  0.28774302115E+00 -0.32154991376E+00  0.13794907708E+00  0.10416642171E+01  0.93800000000E+00 0.  1.
         22    1    1    2    0    0 -0.54988998406E-01  0.25875033753E+00  0.16330731950E+01  0.16543589657E+01  0.00000000000E+00 0. -1.
</event>
<event>
 5    1  0.2111786E+001  0.1551963E+01  0.7818608E-02  0.3407211E+00
         11   -1    0    0    0    0  0.00000000000E+00  0.00000000000E+00  0.39999999674E+01  0.40000000000E+01  0.51100000000E-03 0. -1.
    9000002   -1    0    0    0    0 -0.00000000000E+00 -0.00000000000E+00  0.00000000000E+00  0.93800000000E+00  0.93800000000E+00 0.  1.
         11    1    1    2    0    0  0.31397725241E+00  0.59033257042E-01  0.19702098040E+01  0.19959442811E+01  0.51100000000E-03 0. -1.
    9000002    1    1    2    0    0 -0.12935683010E+00  0.48070978708E-01  0.48536667180E-01  0.94933862059E+00  0.93800000000E+00 0.  1.
         22    1    1    2    0    0 -0.18462042231E+00 -0.10710423575E+00  0.19812534962E+01  0.19927170983E+01  0.00000000000E+00 0. -1.
</event>
<event>
 5    1  0.2111786E+001  0.1537293E+01  0.7818608E-02  0.3424368E+00
         11   -1    0    0    0    0  0.00000000000E+00  0.00000000000E+00  0.39999999674E+01  0.40000000000E+01  0.51100000000E-03 0. -1.
    9000002   -1    0    0    0    0 -0.00000000000E+00 -0.00000000000E+00  0.00000000000E+00  0.93800000000E+00  0.93800000000E+00 0.  1.
         11    1    1    2    0    0  0.28807802920E+00 -0.16642107392E+00  0.23318333100E+01  0.23554472551E+01  0.51100000000E-03 0. -1.
    9000002    1    1    2    0    0 -0.13319957333E+00 -0.71192431805E-01  0.62616904290E-01  0.95214251317E+00  0.93800000000E+00 0.  1.
         22    1    1    2    0    0 -0.15487845587E+00  0.23761350572E+00  0.16055497531E+01  0.16304102317E+01  0.00000000000E+00 0.  1.
</event>
<event>
 5    1  0.2111786E+001  0.1528542E+01  0.7818608E-02  0.3434771E+00
         11   -1    0    0    0    0  0.00000000000E+00  0.00000000000E+00  0.39999999674E+01  0.40000000000E+01  0.51100000000E-03 0.  1.
    9000002   -1    0    0    0    0 -0.00000000000E+00 -0.00000000000E+00  0.00000000000E+00  0.93800000000E+00  0.93800000000E+00 0.  1.
         11    1    1    2    0    0  0.19756541805E+00  0.19041337612E+00  0.85587730542E+00  0.89878560918E+00  0.51100000000E-03 0.  1.
    9000002    1    1    2    0    0 -0.74961599766E-01  0.22496262168E-01  0.57697652742E-01  0.94302616209E+00  0.93800000000E+00 0.  1.
         22    1    1    2    0    0 -0.12260381829E+00 -0.21290963829E+00  0.30864250092E+01  0.30961882287E+01  0.00000000000E+00 0.  1.
</event>
<event>
 5    1  0.2111786E+001  0.1529173E+01  0.7818608E-02  0.3434016E+00
         11   -1    0    0    0    0  0.00000000000E+00  0.00000000000E+00  0.39999999674E+01  0.40000000000E+01  0.51100000000E-03 0. -1.
    9000002   -1    0    0    0    0 -0.00000000000E+00 -0.00000000000E+00  0.00000000000E+00  0.93800000000E+00  0.93800000000E+00 0.  1.
         11    1    1    2    0    0  0.21182713329E+00 -0.20841926693E+00  0.17664979830E+01  0.17913192654E+01  0.51100000000E-03 0. -1.
    9000002    1    1    2    0    0  0.43027340192E-01 -0.21560375521E-01  0.54510186885E-01  0.94081430807E+00  0.93800000000E+00 0.  1.
         22    1    1    2    0    0 -0.25485447348E+00  0.22997964245E+00  0.21789917974E+01  0.22058664266E+01  0.00000000000E+00 0. -1.
</event>
<event>
 5    1  0.5661324E+001  0.1566865E+01  0.7818608E-02  0.3390132E+00
         11   -1    0    0    0    0  0.00000000000E+00  0.00000000000E+00  0.39999999674E+01  0.40000000000E+01  0.51100000000E-03 0. -1.
    9000002   -1    0    0    0    0 -0.00000000000E+00 -0.00000000000E+00  0.00000000000E+00  0.93800000000E+00  0.93800000000E+00 0. -1.
         11    1    1    2    0    0 -0.10456387497E+00 -0.17262497528E+00  0.12396101339E+01  0.12559325345E+01  0.51100000000E-03 0. -1.
    9000002    1    1    2    0    0  0.18496703654E-01 -0.11881420101E-01  0.24463525712E-01  0.93857645415E+00  0.93800000000E+00 0. -1.
         22    1    1    2    0    0  0.86067171319E-01  0.18450639538E+00  0.27359263077E+01  0.27434910113E+01  0.00000000000E+00 0. -1.
</event>
<event>
 5    1  0.2111786E+001  0.1585630E+01  0.7818608E-02  0.3369109E+00
         11   -1    0    0    0    0  0.00000000000E+00  0.00000000000E+00  0.39999999674E+01  0.40000000000E+01  0.51100000000E-03 0. -1.
    9000002   -1    0    0    0    0 -0.00000000000E+00 -0.00000000000E+00  0.00000000000E+00  0.93800000000E+00  0.93800000000E+00 0.  1.
         11    1    1    2    0    0  0.40351820447E-01 -0.44124249692E-01  0.12366914902E+00  0.13736643827E+00  0.51100000000E-03 0. -1.
    9000002    1    1    2    0    0 -0.11631726832E+00  0.25718702257E+00  0.64043823784E-01  0.98164172836E+00  0.93800000000E+00 0.  1.
         22    1    1    2    0    0  0.75965447870E-01 -0.21306277288E+00  0.38122869946E+01  0.38189918334E+01  0.00000000000E+00 0. -1.
</event>
<event>
 5    1  0.2111786E+001  0.1550367E+01  0.7818608E-02  0.3409060E+00
         11   -1    0    0    0    0  0.00000000000E+00  0.00000000000E+00  0.39999999674E+01  0.40000000000E+01  0.51100000000E-03 0.  1.
    9000002   -1    0    0    0    0 -0.00000000000E+00 -0.00000000000E+00  0.00000000000E+00  0.93800000000E+00  0.93800000000E+00 0. -1.
         11    1    1    2    0    0 -0.15862327368E-01 -0.25586377482E+00  0.17415295255E+01  0.17602963484E+01  0.51100000000E-03 0.  1.
    9000002    1    1    2    0    0 -0.71907528228E-01 -0.11612510401E-01  0.40242267795E-01  0.94168412067E+00  0.93800000000E+00 0. -1.
         22    1    1    2    0    0  0.87769855596E-01  0.26747628522E+00  0.22182281740E+01  0.22360195309E+01  0.00000000000E+00 0.  1.
</event>
<event>
 5    1  0.2111786E+001  0.1572602E+01  0.7818608E-02  0.3383647E+00
         11   -1    0    0    0    0  0.00000000000E+00  0.00000000000E+00  0.39999999674E+01  0.40000000000E+01  0.51100000000E-03 0. -1.
    9000002   -1    0    0    0    0 -0.00000000000E+00 -0.00000000000E+00  0.00000000000E+00  0.93800000000E+00  0.93800000000E+00 0.  1.
         11    1    1    2    0    0  0.12605719462E-01  0.40569208711E+00  0.14183703117E+01  0.14753032149E+01  0.51100000000E-03 0. -1.
    9000002    1    1    2    0    0  0.10036598905E+00 -0.57342996629E+00  0.26247191992E+00  0.11347381930E+01  0.93800000000E+00 0.  1.
         22    1    1    2    0    0 -0.11297170852E+00  0.16773787918E+00  0.23191577357E+01  0.23279585920E+01  0.00000000000E+00 0. -1.
</event>
<event>
 5    1  0.2111786E+001  0.1560004E+01  0.7818608E-02  0.3397952E+00
         11   -1    0    0    0    0  0.00000000000E+00  0.00000000000E+00  0.39999999674E+01  0.40000000000E+01  0.51100000000E-03 0. -1.
    9000002   -1    0    0    0    0 -0.00000000000E+00 -0.00000000000E+00  0.00000000000E+00  0.93800000000E+00  0.93800000000E+00 0. -1.
         11    1    1    2    0    0 -0.16613566674E+00 -0.64711178284E-01  0.67293138605E+00  0.69615049221E+00  0.51100000000E-03 0. -1.
    9000002    1    1    2    0    0  0.93455995058E-02 -0.60064805877E-01  0.31811639877E-01  0.94050576902E+00  0.93800000000E+00 0. -1.
         22    1    1    2    0    0  0.15679006723E+00  0.12477598416E+00  0.32952569414E+01  0.33013437388E+01  0.00000000000E+00 0. -1.
</event>
<event>
 5    1  0.2111786E+001  0.1569657E+01  0.7818608E-02  0.3386970E+00
         11   -1    0    0    0    0  0.00000000000E+00  0.00000000000E+00  0.39999999674E+01  0.40000000000E+01  0.51100000000E-03 0. -1.
    9000002   -1    0    0    0    0 -0.00000000000E+00 -0.00000000000E+00  0.00000000000E+00  0.93800000000E+00  0.93800000000E+00 0.  1.
         11    1    1    2    0    0 -0.44980516984E-02  0.20469733546E+00  0.14616166765E+01  0.14758878012E+01  0.51100000000E-03 0. -1.
    9000002    1    1    2    0    0 -0.14765867869E+00 -0.33310448841E-01  0.37630993932E-01  0.95087999406E+00  0.93800000000E+00 0.  1.
         22    1    1    2    0    0  0.15215673038E+00 -0.17138688662E+00  0.25007522969E+01  0.25112322047E+01  0.00000000000E+00 0. -1.
</event>
<event>
 5    1  0.2111786E+001  0.1551914E+01  0.7818608E-02  0.3407267E+00
         11   -1    0    0    0    0  0.00000000000E+00  0.00000000000E+00  0.39999999674E+01  0.40000000000E+01  0.51100000000E-03 0.  1.
    9000002   -1    0    0    0    0 -0.00000000000E+00 -0.00000000000E+00  0.00000000000E+00  0.93800000000E+00  0.93800000000E+00 0.  1.
         11    1    1    2    0    0  0.16123452818E+00  0.16500233241E+00  0.16660688250E+01  0.16819654971E+01  0.51100000000E-03 0.  1.
    9000002    1    1    2    0    0  0.80266127694E-01  0.15250637760E-01  0.40007466776E-01  0.94240109858E+00  0.93800000000E+00 0.  1.
         22    1    1    2    0    0 -0.24150065587E+00 -0.18025297017E+00  0.22939236756E+01  0.23136334043E+01  0.00000000000E+00 0.  1.
</event>
<event>
 5    1  0.2111786E+001  0.1531441E+01  0.7818608E-02  0.3431310E+00
         11   -1    0    0    0    0  0.00000000000E+00  0.00000000000E+00  0.39999999674E+01  0.40000000000E+01  0.51100000000E-03 0.  1.
    9000002   -1    0    0    0    0 -0.00000000000E+00 -0.00000000000E+00  0.00000000000E+00  0.93800000000E+00  0.93800000000E+00 0.  1.
         11    1    1    2    0    0 -0.11099246839E+00 -0.11905223531E+00  0.30554992151E+01  0.30598314459E+01  0.51100000000E-03 0.  1.
    9000002    1    1    2    0    0 -0.17672089452E+00  0.39263306456E-01  0.74326304709E-01  0.95819636890E+00  0.93800000000E+00 0.  1.
         22    1    1    2    0    0  0.28771336291E+00  0.79788928854E-01  0.87017444757E+00  0.91997218521E+00  0.00000000000E+00 0.  1.
</event>
<event>
 5    1  0.2111786E+001  0.1528776E+01  0.7818608E-02  0.3434491E+00
         11   -1    0    0    0    0  0.00000000000E+00  0.00000000000E+00  0.39999999674E+01  0.40000000000E+01  0.51100000000E-03 0. -1.
    9000002   -1    0    0    0    0 -0.00000000000E+00 -0.00000000000E+00  0.00000000000E+00  0.93800000000E+00  0.93800000000E+00 0.  1.
         11    1    1    2    0    0  0.32445135676E+00  0.25821237331E+00  0.17784423132E+01  0.18261433775E+01  0.51100000000E-03 0. -1.
    9000002    1    1    2    0    0 -0.21468248241E+00 -0.72134686355E-01  0.89737627131E-01  0.96911754857E+00  0.93800000000E+00 0.  1.
         22    1    1    2    0    0 -0.10976887435E+00 -0.18607768696E+00  0.21318200270E+01  0.21427390739E+01  0.00000000000E+00 0.  1.
</event>
<event>
 5    1  0.2111786E+001  0.1587018E+01  0.7818608E-02  0.3367575E+00
         11   -1    0    0    0    0  0.00000000000E+00  0.00000000000E+00  0.39999999674E+01  0.40000000000E+01  0.51100000000E-03 0.  1.
    9000002   -1    0    0    0    0 -0.00000000000E+00 -0.00000000000E+00  0.00000000000E+00  0.93800000000E+00  0.93800000000E+00 0. -1.
         11    1    1    2    0    0 -0.43404973823E+00  0.20330067346E+00  0.12628046077E+01  0.13507057702E+01  0.51100000000E-03 0.  1.
    9000002    1    1    2    0    0 -0.39509955513E+00  0.95831593667E-01  0.41482891736E+00  0.11032743917E+01  0.93800000000E+00 0. -1.
         22    1    1    2    0    0  0.82914929336E+00 -0.29913226712E+00  0.23223664423E+01  0.24840198381E+01  0.00000000000E+00 0.  1.
</event>
<event>
 5    1  0.2111786E+001  0.1567718E+01  0.7818608E-02  0.3389164E+00
         11   -1    0    0    0    0  0.00000000000E+00  0.00000000000E+00  0.39999999674E+01  0.40000000000E+01  0.51100000000E-03 0. -1.
    9000002   -1    0    0    0    0 -0.00000000000E+00 -0.00000000000E+00  0.00000000000E+00  0.93800000000E+00  0.93800000000E+00 0.  1.
         11    1    1    2    0    0  0.12075409378E+00 -0.73750577176E-01  0.28658429955E+01  0.28693339008E+01  0.51100000000E-03 0. -1.
    9000002    1    1    2    0    0  0.15028656126E-01 -0.93958678274E-01  0.29652430638E-01  0.94328010706E+00  0.93800000000E+00 0.  1.
         22    1    1    2    0    0 -0.13578274991E+00  0.16770925545E+00  0.11045045413E+01  0.11253859921E+01  0.00000000000E+00 0. -1.
</event>
<event>
 5    1  0.2111786E+001  0.1375467E+01  0.7818608E-02  0.3647022E+00
         11   -1    0    0    0    0  0.00000000000E+00  0.00000000000E+00  0.39999999674E+01  0.40000000000E+01  0.51100000000E-03 0. -1.
    9000002   -1    0    0    0    0 -0.00000000000E+00 -0.00000000000E+00  0.00000000000E+00  0.93800000000E+00  0.93800000000E+00 0.  1.
         11    1    1    2    0    0  0.48885766642E-01  0.31277513921E+00  0.37055151978E+01  0.37190134778E+01  0.51100000000E-03 0. -1.
    9000002    1    1    2    0    0  0.61075057192E-01 -0.10720541370E+00  0.19743546924E+00  0.96646155012E+00  0.93800000000E+00 0.  1.
         22    1    1    2    0    0 -0.10996082383E+00 -0.20556972551E+00  0.97049300306E-01  0.25252497206E+00  0.00000000000E+00 0.  1.
</event>
<event>
 5    1  0.2111786E+001  0.1548674E+01  0.7818608E-02  0.3411026E+00
         11   -1    0    0    0    0  0.00000000000E+00  0.00000000000E+00  0.39999999674E+01  0.40000000000E+01  0.51100000000E-03 0.  1.
    9000002   -1    0    0    0    0 -0.00000000000E+00 -0.00000000000E+00  0.00000000000E+00  0.93800000000E+00  0.93800000000E+00 0.  1.
         11    1    1    2    0    0 -0.48078719879E-01 -0.53598164222E-01  0.24490278458E+01  0.24500861163E+01  0.51100000000E-03 0.  1.
    9000002    1    1    2    0    0  0.26032437112E+00 -0.28791394972E+00  0.14483893831E+00  0.10254196891E+01  0.93800000000E+00 0.  1.
         22    1    1    2    0    0 -0.21224565124E+00  0.34151211394E+00  0.14061331832E+01  0.14624941947E+01  0.00000000000E+00 0. -1.
</event>
<event>
 5    1  0.2111786E+001  0.1555526E+01  0.7818608E-02  0.3403095E+00
         11   -1    0    0    0    0  0.00000000000E+00  0.00000000000E+00  0.39999999674E+01  0.40000000000E+01  0.51100000000E-03 0.  1.
    9000002   -1    0    0    0    0 -0.00000000000E+00 -0.00000000000E+00  0.00000000000E+00  0.93800000000E+00  0.93800000000E+00 0.  1.
         11    1    1    2    0    0 -0.23551523453E+00  0.97537459936E-01  0.30538371187E+01  0.30644579277E+01  0.51100000000E-03 0.  1.
    9000002    1    1    2    0    0  0.87513389813E-01  0.43245255216E-01  0.39219745392E-01  0.94388078375E+00  0.93800000000E+00 0.  1.
         22    1    1    2    0    0  0.14800184472E+00 -0.14078271515E+00  0.90694310324E+00  0.92966128856E+00  0.00000000000E+00 0. -1.
</event>
<event>
 5    1  0.2111786E+001  0.1523886E+01  0.7818608E-02  0.3440358E+00
         11   -1    0    0    0    0  0.00000000000E+00  0.00000000000E+00  0.39999999674E+01  0.40000000000E+01  0.51100000000E-03 0.  1.
    9000002   -1    0    0    0    0 -0.00000000000E+00 -0.00000000000E+00  0.00000000000E+00  0.93800000000E+00  0.93800000000E+00 0. -1.
         11    1    1    2    0    0 -0.33285474421E-01 -0.40267749152E+00  0.20889108677E+01  0.21276291875E+01  0.51100000000E-03 0.  1.
    9000002    1    1    2    0    0 -0.77938435959E-01  0.15138676119E+00  0.77688211109E-01  0.95648931484E+00  0.93800000000E+00 0. -1.
         22    1    1    2    0    0  0.11122391038E+00  0.25129073033E+00  0.18334008885E+01  0.18538814977E+01  0.00000000000E+00 0. -1.
</event>
<event>
 5    1  0.2111786E+001  0.1588266E+01  0.7818608E-02  0.3366199E+00
         11   -1    0    0    0    0  0.00000000000E+00  0.00000000000E+00  0.39999999674E+01  0.40000000000E+01  0.51100000000E-03 0.  1.
    9000002   -1    0    0    0    0 -0.00000000000E+00 -0.00000000000E+00  0.00000000000E+00  0.93800000000E+00  0.93800000000E+00 0.  1.
         11    1    1    2    0    0  0.54086937613E-01 -0.63046586149E-01  0.16948003529E+01  0.16968349260E+01  0.51100000000E-03 0.  1.
    9000002    1    1    2    0    0 -0.12413922646E+00 -0.15016520244E+00  0.33708068601E-01  0.95861377492E+00  0.93800000000E+00 0.  1.
         22    1    1    2    0    0  0.70052288845E-01  0.21321178858E+00  0.22714915459E+01  0.22825512991E+01  0.00000000000E+00 0. -1.
</event>
<event>
 5    1  0.2111786E+001  0.1446070E+01  0.7818608E-02  0.3539488E+00
         11   -1    0    0    0    0  0.00000000000E+00  0.00000000000E+00  0.39999999674E+01  0.40000000000E+01  0.51100000000E-03 0.  1.
    9000002   -1    0    0    0    0 -0.00000000000E+00 -0.00000000000E+00  0.00000000000E+00  0.93800000000E+00  0.93800000000E+00 0. -1.
         11    1    1    2    0    0  0.36248432576E+00 -0.55892496027E+00  0.19928030534E+01  0.21012035285E+01  0.51100000000E-03 0.  1.
    9000002    1    1    2    0    0 -0.16578425643E+00  0.33073449728E+00  0.22996856908E+00  0.10342143250E+01  0.93800000000E+00 0. -1.
         22    1    1    2    0    0 -0.19670006933E+00  0.22819046299E+00  0.17772283449E+01  0.18025821464E+01  0.00000000000E+00 0.  1.
</event>
<event>
 5    1  0.2111786E+001  0.1520924E+01  0.7818608E-02  0.3443932E+00
         11   -1    0    0    0    0  0.00000000000E+00  0.00000000000E+00  0.39999999674E+01  0.40000000000E+01  0.51100000000E-03 0.  1.
    9000002   -1    0    0    0    0 -0.00000000000E+00 -0.00000000000E+00  0.00000000000E+00  0.93800000000E+00  0.93800000000E+00 0.  1.
         11    1    1    2    0    0 -0.70413303321E-01 -0.11887662359E+00  0.15594802308E+00  0.20835002267E+00  0.51100000000E-03 0.  1.
    9000002    1    1    2    0    0 -0.78617384623E-01 -0.34432601614E-01  0.64574064081E-01  0.94412928509E+00  0.93800000000E+00 0.  1.
         22    1    1    2    0    0  0.14903068794E+00  0.15330922520E+00  0.37794778802E+01  0.37855206922E+01  0.00000000000E+00 0.  1.
</event>
<event>
 5    1  0.2111786E+001  0.1558864E+01  0.7818608E-02  0.3399258E+00
         11   -1    0    0    0    0  0.00000000000E+00  0.00000000000E+00  0.39999999674E+01  0.40000000000E+01  0.51100000000E-03 0. -1.
    9000002   -1    0    0    0    0 -0.00000000000E+00 -0.00000000000E+00  0.00000000000E+00  0.93800000000E+00  0.93800000000E+00 0. -1.
         11    1    1    2    0    0  0.24904602857E+00 -0.42340535421E-01  0.24603581474E+01  0.24732931731E+01  0.51100000000E-03 0. -1.
    9000002    1    1    2    0    0 -0.57886659123E-01 -0.94877276367E-01  0.38618016214E-01  0.94535068311E+00  0.93800000000E+00 0. -1.
         22    1    1    2    0    0 -0.19115936945E+00  0.13721781179E+00  0.15010238037E+01  0.15193561438E+01  0.00000000000E+00 0.  1.
</event>
<event>
 5    1  0.2111786E+001  0.1563640E+01  0.7818608E-02  0.3393798E+00
         11   -1    0    0    0    0  0.00000000000E+00  0.00000000000E+00  0.39999999674E+01  0.40000000000E+01  0.51100000000E-03 0. -1.
    9000002   -1    0    0    0    0 -0.00000000000E+00 -0.00000000000E+00  0.00000000000E+00  0.93800000000E+00  0.93800000000E+00 0.  1.
         11    1    1    2    0    0 -0.44454003220E-01 -0.21202146074E+00  0.14527587473E+01  0.14688218058E+01  0.51100000000E-03 0. -1.
    9000002    1    1    2    0    0  0.32054982182E-01 -0.15431314118E-01  0.27412714553E-01  0.93907459994E+00  0.93800000000E+00 0.  1.
         22    1    1    2    0    0  0.12399021038E-01  0.22745277485E+00  0.25198285055E+01  0.25301035943E+01  0.00000000000E+00 0. -1.
</event>
<event>
 5    1  0.2111786E+001  0.1536698E+01  0.7818608E-02  0.3425071E+00
         11   -1    0    0    0    0  0.00000000000E+00  0.00000000000E+00  0.39999999674E+01  0.40000000000E+01  0.51100000000E-03 0. -1.
    9000002   -1    0    0    0    0 -0.00000000000E+00 -0.00000000000E+00  0.00000000000E+00  0.93800000000E+00  0.93800000000E+00 0. -1.
         11    1    1    2    0    0  0.57749171466E+00  0.37712463043E-01  0.21331183537E+01  0.22102291922E+01  0.51100000000E-03 0. -1.
    9000002    1    1    2    0    0 -0.53546943758E+00  0.15950670426E+00  0.27865297886E+00  0.11267925230E+01  0.93800000000E+00 0. -1.
         22    1    1    2    0    0 -0.42022277077E-01 -0.19721916731E+00  0.15882286348E+01  0.16009782848E+01  0.00000000000E+00 0. -1.
</event>
<event>
 5    1  0.2111786E+001  0.1498801E+01  0.7818608E-02  0.3471100E+00
         11   -1    0    0    0    0  0.00000000000E+00  0.00000000000E+00  0.39999999674E+01  0.40000000000E+01  0.51100000000E-03 0. -1.
    9000002   -1    0    0    0    0 -0.00000000000E+00 -0.00000000000E+00  0.00000000000E+00  0.93800000000E+00  0.93800000000E+00 0. -1.
         11    1    1    2    0    0 -0.25411039533E+00 -0.27917065703E+00  0.10145217312E+01  0.10824800012E+01  0.51100000000E-03 0. -1.
    9000002    1    1    2    0    0  0.14620006442E+00  0.71218213270E-01  0.96292073762E-01  0.95685038340E+00  0.93800000000E+00 0. -1.
         22    1    1    2    0    0  0.10791033091E+00  0.20795244376E+00  0.28891861624E+01  0.28986696154E+01  0.00000000000E+00 0. -1.
</event>
<event>
 5    1  0.2111786E+001  0.1527899E+01  0.7818608E-02  0.3435540E+00
         11   -1    0    0    0    0  0.00000000000E+00  0.00000000000E+00  0.39999999674E+01  0.40000000000E+01  0.51100000000E-03 0. -1.
    9000002   -1    0    0    0    0 -0.00000000000E+00 -0.00000000000E+00  0.00000000000E+00  0.93800000000E+00  0.93800000000E+00 0. -1.
         11    1    1    2    0    0  0.24903608480E+00  0.26490291687E+00  0.13229733597E+01  0.13720245255E+01  0.51100000000E-03 0. -1.
    9000002    1    1    2    0    0 -0.36002875287E-01 -0.20882642941E+00  0.85862517313E-01  0.96546416636E+00  0.93800000000E+00 0. -1.
         22    1    1    2    0    0 -0.21303320952E+00 -0.56076487461E-01  0.25911640903E+01  0.26005113081E+01  0.00000000000E+00 0. -1.
</event>
<event>
 5    1  0.2111786E+001  0.1562319E+01  0.7818608E-02  0.3395305E+00
         11   -1    0    0    0    0  0.00000000000E+00  0.00000000000E+00  0.39999999674E+01  0.40000000000E+01  0.51100000000E-03 0.  1.
    9000002   -1    0    0    0    0 -0.00000000000E+00 -0.00000000000E+00  0.00000000000E+00  0.93800000000E+00  0.93800000000E+00 0.  1.
         11    1    1    2    0    0 -0.22667917205E+00  0.16376757748E+00  0.22048574437E+01  0.22225210629E+01  0.51100000000E-03 0.  1.
    9000002    1    1    2    0    0  0.14001950916E+00  0.23483430599E-01  0.41343426511E-01  0.94958423185E+00  0.93800000000E+00 0.  1.
         22    1    1    2    0    0  0.86659662891E-01 -0.18725100807E+00  0.17537990971E+01  0.17658947053E+01  0.00000000000E+00 0.  1.
</event>
<event>
 5    1  0.2111786E+001  0.1579387E+01  0.7818608E-02  0.3376044E+00
         11   -1    0    0    0    0  0.00000000000E+00  0.00000000000E+00  0.39999999674E+01  0.40000000000E+01  0.51100000000E-03 0. -1.
    9000002   -1    0    0    0    0 -0.00000000000E+00 -0.00000000000E+00  0.00000000000E+00  0.93800000000E+00  0.93800000000E+00 0. -1.
         11    1    1    2    0    0  0.19844943605E+00  0.18581300438E+00  0.88513102478E+00  0.92594051829E+00  0.51100000000E-03 0. -1.
    9000002    1    1    2    0    0 -0.24364697620E+00 -0.57659446207E+00  0.29601408216E+00  0.11658873700E+01  0.93800000000E+00 0. -1.
         22    1    1    2    0    0  0.45197540159E-01  0.39078145770E+00  0.28188548604E+01  0.28461721117E+01  0.00000000000E+00 0. -1.
</event>
<event>
 5    1  0.2111786E+001  0.1554944E+01  0.7818608E-02  0.3403766E+00
         11   -1    0    0    0    0  0.00000000000E+00  0.00000000000E+00  0.39999999674E+01  0.40000000000E+01  0.51100000000E-03 0.  1.
    9000002   -1    0    0    0    0 -0.00000000000E+00 -0.00000000000E+00  0.00000000000E+00  0.93800000000E+00  0.93800000000E+00 0. -1.
         11    1    1    2    0    0  0.42786661118E+00 -0.82675669672E-01  0.25445745467E+01  0.25816206128E+01  0.51100000000E-03 0.  1.
    9000002    1    1    2    0    0 -0.44346660658E+00 -0.17606840601E+00  0.19590301004E+00  0.10704600432E+01  0.93800000000E+00 0. -1.
         22    1    1    2    0    0  0.15599995397E-01  0.25874407568E+00  0.12595224106E+01  0.12859193440E+01  0.00000000000E+00 0.  1.
</event>
<event>
 5    1  0.2111786E+001  0.1521650E+01  0.7818608E-02  0.3443054E+00
         11   -1    0    0    0    0  0.00000000000E+00  0.00000000000E+00  0.39999999674E+01  0.40000000000E+01  0.51100000000E-03 0.  1.
    9000002   -1    0    0    0    0 -0.00000000000E+00 -0.00000000000E+00  0.00000000000E+00  0.93800000000E+00  0.93800000000E+00 0. -1.
         11    1    1    2    0    0  0.51471610021E+00 -0.92234288032E-01  0.20770457086E+01  0.21418587639E+01  0.51100000000E-03 0.  1.
    9000002    1    1    2    0    0 -0.37428393020E+00 -0.58366518101E-01  0.16356194468E+00  0.10247397819E+01  0.93800000000E+00 0. -1.
         22    1    1    2    0    0 -0.14043217000E+00  0.15060080613E+00  0.17593923141E+01  0.17714014542E+01  0.00000000000E+00 0. -1.
</event>
<event>
 5    1  0.2111786E+001  0.1568386E+01  0.7818608E-02  0.3388408E+00
         11   -1    0    0    0    0  0.00000000000E+00  0.00000000000E+00  0.39999999674E+01  0.40000000000E+01  0.51100000000E-03 0.  1.
    9000002   -1    0    0    0    0 -0.00000000000E+00 -0.00000000000E+00  0.00000000000E+00  0.93800000000E+00  0.93800000000E+00 0. -1.
         11    1    1    2    0    0 -0.18251842692E+00 -0.12790250437E+00  0.16982930468E+01  0.17128547985E+01  0.51100000000E-03 0.  1.
    9000002    1    1    2    0    0  0.79439071998E-01 -0.50165912354E-01  0.28995597174E-01  0.94313940093E+00  0.93800000000E+00 0. -1.
         22    1    1    2    0    0  0.10307935492E+00  0.17806841673E+00  0.22727113233E+01  0.22820058005E+01  0.00000000000E+00 0.  1.
</event>
<event>
 5    1  0.2111786E+001  0.1509337E+01  0.7818608E-02  0.3458054E+00
         11   -1    0    0    0    0  0.00000000000E+00  0.00000000000E+00  0.39999999674E+01  0.40000000000E+01  0.51100000000E-03 0. -1.
    9000002   -1    0    0    0    0 -0.00000000000E+00 -0.00000000000E+00  0.00000000000E+00  0.93800000000E+00  0.93800000000E+00 0.  1.
         11    1    1    2    0    0  0.39750603977E+00  0.22270217610E+00  0.16183965728E+01  0.16813134862E+01  0.51100000000E-03 0. -1.
    9000002    1    1    2    0    0 -0.12800422247E+00 -0.29159392539E+00  0.14298276553E+00  0.10008497238E+01  0.93800000000E+00 0.  1.
         22    1    1    2    0    0 -0.26950181730E+00  0.68891749291E-01  0.22386206290E+01  0.22558367900E+01  0.00000000000E+00 0. -1.
</event>
<event>
 5    1  0.2111786E+001  0.1535006E+01  0.7818608E-02  0.3427074E+00
         11   -1    0    0    0    0  0.00000000000E+00  0.00000000000E+00  0.39999999674E+01  0.40000000000E+01  0.51100000000E-03 0. -1.
    9000002   -1    0    0    0    0 -0.00000000000E+00 -0.00000000000E+00  0.00000000000E+00  0.93800000000E+00  0.93800000000E+00 0.  1.
         11    1    1    2    0    0  0.38247300664E-01 -0.27671529888E+00  0.30263612555E+01  0.30392263691E+01  0.51100000000E-03 0. -1.
    9000002    1    1    2    0    0 -0.14865722869E+00  0.37639253197E-01  0.64919720120E-01  0.95266691718E+00  0.93800000000E+00 0.  1.
         22    1    1    2    0    0  0.11040992803E+00  0.23907604568E+00  0.90871899170E+00  0.94610671369E+00  0.00000000000E+00 0.  1.
</event>
<event>
 5    1  0.2111786E+001  0.1526921E+01  0.7818608E-02  0.3436712E+00
         11   -1    0    0    0    0  0.00000000000E+00  0.00000000000E+00  0.39999999674E+01  0.40000000000E+01  0.51100000000E-03 0.  1.
    9000002   -1    0    0    0    0 -0.00000000000E+00 -0.00000000000E+00  0.00000000000E+00  0.93800000000E+00  0.93800000000E+00 0.  1.
         11    1    1    2    0    0  0.21581119694E+00  0.25316832366E+00  0.12154120651E+01  0.12601172255E+01  0.51100000000E-03 0.  1.
    9000002    1    1    2    0    0 -0.72151701729E-01 -0.72786165668E-01  0.62075674553E-01  0.94562206158E+00  0.93800000000E+00 0.  1.
         22    1    1    2    0    0 -0.14365949522E+00 -0.18038215799E+00  0.27225122277E+01  0.27322607129E+01  0.00000000000E+00 0. -1.
</event>
<event>
 5    1  0.2111786E+001  0.1559937E+01  0.7818608E-02  0.3398028E+00
         11   -1    0    0    0    0  0.00000000000E+00  0.00000000000E+00  0.39999999674E+01  0.40000000000E+01  0.51100000000E-03 0. -1.
    9000002   -1    0    0    0    0 -0.00000000000E+00 -0.00000000000E+00  0.00000000000E+00  0.93800000000E+00  0.93800000000E+00 0.  1.
         11    1    1    2    0    0  0.24996262525E+00  0.36509457972E-01  0.22289104726E+01  0.22431799773E+01  0.51100000000E-03 0. -1.
    9000002    1    1    2    0    0 -0.21796302762E-01 -0.42944905447E-01  0.30920130715E-01  0.93974432597E+00  0.93800000000E+00 0.  1.
         22    1    1    2    0    0 -0.22816632249E+00  0.64354474743E-02  0.17401693641E+01  0.17550756968E+01  0.00000000000E+00 0. -1.
</event>
<event>
 5    1  0.2111786E+001  0.1563686E+01  0.7818608E-02  0.3393746E+00
         11   -1    0    0    0    0  0.00000000000E+00  0.00000000000E+00  0.39999999674E+01  0.40000000000E+01  0.51100000000E-03 0. -1.
    9000002   -1    0    0    0    0 -0.00000000000E+00 -0.00000000000E+00  0.00000000000E+00  0.93800000000E+00  0.93800000000E+00 0. -1.
         11    1    1    2    0    0 -0.19189725277E+00  0.75886763427E-01  0.21095133242E+01  0.21195825255E+01  0.51100000000E-03 0. -1.
    9000002    1    1    2    0    0 -0.23332196166E-01  0.47130956569E-01  0.28401210575E-01  0.93990230727E+00  0.93800000000E+00 0. -1.
         22    1    1    2    0    0  0.21522944893E+00 -0.12301772000E+00  0.18620854326E+01  0.18785151672E+01  0.00000000000E+00 0.  1.
</event>
<event>
 5    1  0.2111786E+001  0.1512022E+01  0.7818608E-02  0.3454760E+00
         11   -1    0    0    0    0  0.00000000000E+00  0.00000000000E+00  0.39999999674E+01  0.40000000000E+01  0.51100000000E-03 0. -1.
    9000002   -1    0    0    0    0 -0.00000000000E+00 -0.00000000000E+00  0.00000000000E+00  0.93800000000E+00  0.93800000000E+00 0.  1.
         11    1    1    2    0    0 -0.25178190841E+00 -0.48800805654E-01  0.10771017296E+01  0.11072145433E+01  0.51100000000E-03 0. -1.
    9000002    1    1    2    0    0 -0.24299647597E+00  0.16444581311E+00  0.12922275133E+00  0.99127808018E+00  0.93800000000E+00 0.  1.
         22    1    1    2    0    0  0.49477838438E+00 -0.11564500745E+00  0.27936754865E+01  0.28395073765E+01  0.00000000000E+00 0. -1.
</event>
<event>
 5    1  0.2111786E+001  0.1168627E+01  0.7818608E-02  0.4068869E+00
         11   -1    0    0    0    0  0.00000000000E+00  0.00000000000E+00  0.39999999674E+01  0.40000000000E+01  0.51100000000E-03 0. -1.
    9000002   -1    0    0    0    0 -0.00000000000E+00 -0.00000000000E+00  0.00000000000E+00  0.93800000000E+00  0.93800000000E+00 0.  1.
         11    1    1    2    0    0  0.11352764158E+01  0.27411683846E+00  0.15441712786E+01  0.19360934327E+01  0.51100000000E-03 0. -1.
    9000002    1    1    2    0    0 -0.57151464210E+00 -0.32233911066E+00  0.14448246335E+01  0.18433376549E+01  0.93800000000E+00 0.  1.
         22    1    1    2    0    0 -0.56376177369E+00  0.48222272195E-01  0.10110040553E+01  0.11585689124E+01  0.00000000000E+00 0.  1.
</event>
<event>
 5    1  0.2111786E+001  0.1525591E+01  0.7818608E-02  0.3438307E+00
         11   -1    0    0    0    0  0.00000000000E+00  0.00000000000E+00  0.39999999674E+01  0.40000000000E+01  0.51100000000E-03 0. -1.
    9000002   -1    0    0    0    0 -0.00000000000E+00 -0.00000000000E+00  0.00000000000E+00  0.93800000000E+00  0.93800000000E+00 0.  1.
         11    1    1    2    0    0  0.11820398145E+00  0.12335905162E+00  0.27950542274E+00  0.32758690345E+00  0.51100000000E-03 0. -1.
    9000002    1    1    2    0    0  0.73167053431E-01 -0.12426557699E-01  0.59573320453E-01  0.94281536769E+00  0.93800000000E+00 0.  1.
         22    1    1    2    0    0 -0.19137103489E+00 -0.11093249392E+00  0.36609212242E+01  0.36675977289E+01  0.00000000000E+00 0. -1.
</event>
<event>
 5    1  0.2111786E+001  0.1584239E+01  0.7818608E-02  0.3370650E+00
         11   -1    0    0    0    0  0.00000000000E+00  0.00000000000E+00  0.39999999674E+01  0.40000000000E+01  0.51100000000E-03 0.  1.
    9000002   -1    0    0    0    0 -0.00000000000E+00 -0.00000000000E+00  0.00000000000E+00  0.93800000000E+00  0.93800000000E+00 0.  1.
         11    1    1    2    0    0  0.67620888446E-01 -0.56941480853E-01  0.87910184240E+00  0.88353564004E+00  0.51100000000E-03 0.  1.
    9000002    1    1    2    0    0  0.19310028629E+00  0.37870844412E-03  0.36307457286E-01  0.95835802049E+00  0.93800000000E+00 0.  1.
         22    1    1    2    0    0 -0.26072117473E+00  0.56562772409E-01  0.30845906677E+01  0.30961063395E+01  0.00000000000E+00 0.  1.
</event>
<event>
 5    1  0.2111786E+001  0.1567421E+01  0.7818608E-02  0.3389501E+00
         11   -1    0    0    0    0  0.00000000000E+00  0.00000000000E+00  0.39999999674E+01  0.40000000000E+01  0.51100000000E-03 0.  1.
    9000002   -1    0    0    0    0 -0.00000000000E+00 -0.00000000000E+00  0.00000000000E+00  0.93800000000E+00  0.93800000000E+00 0.  1.
         11    1    1    2    0    0 -0.21404621750E+00 -0.24046836405E-01  0.17037913479E+01  0.17173523960E+01  0.51100000000E-03 0.  1.
    9000002    1    1    2    0    0  0.42685713943E-02 -0.64955636931E-02  0.23760586030E-01  0.93833308505E+00  0.93800000000E+00 0.  1.
         22    1    1    2    0    0  0.20977764611E+00  0.30542400098E-01  0.22724480334E+01  0.22823145190E+01  0.00000000000E+00 0.  1.
</event>
<event>
 5    1  0.2111786E+001  0.1594493E+01  0.7818608E-02  0.3359362E+00
         11   -1    0    0    0    0  0.00000000000E+00  0.00000000000E+00  0.39999999674E+01  0.40000000000E+01  0.51100000000E-03 0.  1.
    9000002   -1    0    0    0    0 -0.00000000000E+00 -0.00000000000E+00  0.00000000000E+00  0.93800000000E+00  0.93800000000E+00 0.  1.
         11    1    1    2    0    0  0.61343170080E-01 -0.47678032822E-01  0.53113288864E+00  0.53678541881E+00  0.51100000000E-03 0.  1.
    9000002    1    1    2    0    0 -0.17081467569E-01  0.30953718912E+00  0.68263893183E-01  0.99025704092E+00  0.93800000000E+00 0.  1.
         22    1    1    2    0    0 -0.44261702511E-01 -0.26185915630E+00  0.34006031855E+01  0.34109575403E+01  0.00000000000E+00 0.  1.
</event>
<event>
 5    1  0.2111786E+001  0.1549037E+01  0.7818608E-02  0.3410605E+00
         11   -1    0    0    0    0  0.00000000000E+00  0.00000000000E+00  0.39999999674E+01  0.40000000000E+01  0.51100000000E-03 0. -1.
    9000002   -1    0    0    0    0 -0.00000000000E+00 -0.00000000000E+00  0.00000000000E+00  0.93800000000E+00  0.93800000000E+00 0. -1.
         11    1    1    2    0    0  0.20985344831E+00  0.16504977541E+00  0.17177697024E+01  0.17383937729E+01  0.51100000000E-03 0. -1.
    9000002    1    1    2    0    0  0.99381138993E-01 -0.17307633774E+00  0.65321449005E-01  0.96121949688E+00  0.93800000000E+00 0. -1.
         22    1    1    2    0    0 -0.30923458730E+00  0.80265623305E-02  0.22169088159E+01  0.22383867302E+01  0.00000000000E+00 0. -1.
</event>
<event>
 5    1  0.2111786E+001  0.1543879E+01  0.7818608E-02  0.3416623E+00
         11   -1    0    0    0    0  0.00000000000E+00  0.00000000000E+00  0.39999999674E+01  0.40000000000E+01  0.51100000000E-03 0.  1.
    9000002   -1    0    0    0    0 -0.00000000000E+00 -0.00000000000E+00  0.00000000000E+00  0.93800000000E+00  0.93800000000E+00 0.  1.
         11    1    1    2    0    0  0.21275716503E+00  0.12579296014E+00  0.11287505214E+01  0.11554944746E+01  0.51100000000E-03 0.  1.
    9000002    1    1    2    0    0  0.44547696956E-01 -0.77430645015E-02  0.42947090204E-01  0.94007069144E+00  0.93800000000E+00 0.  1.
         22    1    1    2    0    0 -0.25730486199E+00 -0.11804989564E+00  0.28283023558E+01  0.28424348340E+01  0.00000000000E+00 0.  1.
</event>
<event>
 5    1  0.2111786E+001  0.1562972E+01  0.7818608E-02  0.3394559E+00
         11   -1    0    0    0    0  0.00000000000E+00  0.00000000000E+00  0.39999999674E+01  0.40000000000E+01  0.51100000000E-03 0.  1.
    9000002   -1    0    0    0    0 -0.00000000000E+00 -0.00000000000E+00  0.00000000000E+00  0.93800000000E+00  0.93800000000E+00 0.  1.
         11    1    1    2    0    0  0.31692971996E-02 -0.23511858493E+00  0.19439935495E+01  0.19581629082E+01  0.51100000000E-03 0.  1.
    9000002    1    1    2    0    0 -0.30527377314E-01  0.10112904236E-01  0.27756598400E-01  0.93896145840E+00  0.93800000000E+00 0.  1.
         22    1    1    2    0    0  0.27358080115E-01  0.22500568070E+00  0.20282498195E+01  0.20408756334E+01  0.00000000000E+00 0.  1.
</event>
<event>
 5    1  0.2111786E+001  0.1528192E+01  0.7818608E-02  0.3435190E+00
         11   -1    0    0    0    0  0.00000000000E+00  0.00000000000E+00  0.39999999674E+01  0.40000000000E+01  0.51100000000E-03 0.  1.
    9000002   -1    0    0    0    0 -0.00000000000E+00 -0.00000000000E+00  0.00000000000E+00  0.93800000000E+00  0.93800000000E+00 0.  1.
         11    1    1    2    0    0  0.30988686845E+00  0.35029119028E+00  0.21723346729E+01  0.22221098041E+01  0.51100000000E-03 0.  1.
    9000002    1    1    2    0    0 -0.11779491320E+00 -0.25714969392E+00  0.11098118558E+00  0.98598297663E+00  0.93800000000E+00 0.  1.
         22    1    1    2    0    0 -0.19209195526E+00 -0.93141496361E-01  0.17166841088E+01  0.17299072192E+01  0.00000000000E+00 0. -1.
</event>
<event>
 5    1  0.2111786E+001  0.1537955E+01  0.7818608E-02  0.3423586E+00
         11   -1    0    0    0    0  0.00000000000E+00  0.00000000000E+00  0.39999999674E+01  0.40000000000E+01  0.51100000000E-03 0. -1.
    9000002   -1    0    0    0    0 -0.00000000000E+00 -0.00000000000E+00  0.00000000000E+00  0.93800000000E+00  0.93800000000E+00 0. -1.
         11    1    1    2    0    0  0.16542443220E+00  0.22902016277E+00  0.12432836527E+01  0.12749784233E+01  0.51100000000E-03 0. -1.
    9000002    1    1    2    0    0 -0.48583973275E-01  0.16347693283E-01  0.47914158084E-01  0.94062076103E+00  0.93800000000E+00 0. -1.
         22    1    1    2    0    0 -0.11684045892E+00 -0.24536785605E+00  0.27088021566E+01  0.27224008157E+01  0.00000000000E+00 0. -1.
</event>
<event>
 5    1  0.2111786E+001  0.1559526E+01  0.7818608E-02  0.3398499E+00
         11   -1    0    0    0    0  0.00000000000E+00  0.00000000000E+00  0.39999999674E+01  0.40000000000E+01  0.51100000000E-03 0.  1.
    9000002   -1    0    0    0    0 -0.00000000000E+00 -0.00000000000E+00  0.00000000000E+00  0.93800000000E+00  0.93800000000E+00 0.  1.
         11    1    1    2    0    0 -0.24148339790E+00 -0.90673755675E-01  0.18270067918E+01  0.18451260228E+01  0.51100000000E-03 0.  1.
    9000002    1    1    2    0    0  0.22334798792E-02  0.19231847633E+00  0.55112314271E-01  0.95909996974E+00  0.93800000000E+00 0.  1.
         22    1    1    2    0    0  0.23924991802E+00 -0.10164472065E+00  0.21178808613E+01  0.21337740075E+01  0.00000000000E+00 0.  1.
</event>
<event>
 5    1  0.2111786E+001  0.1452705E+01  0.7818608E-02  0.3530586E+00
         11   -1    0    0    0    0  0.00000000000E+00  0.00000000000E+00  0.39999999674E+01  0.40000000000E+01  0.51100000000E-03 0.  1.
    9000002   -1    0    0    0    0 -0.00000000000E+00 -0.00000000000E+00  0.00000000000E+00  0.93800000000E+00  0.93800000000E+00 0.  1.
         11    1    1    2    0    0 -0.49241251370E+00 -0.15451572535E+00  0.10433918338E+01  0.11640498156E+01  0.51100000000E-03 0.  1.
    9000002    1    1    2    0    0  0.30395596670E+00  0.36564499408E-01  0.19796151157E+00  0.10063592561E+01  0.93800000000E+00 0.  1.
         22    1    1    2    0    0  0.18845654700E+00  0.11795122594E+00  0.27586466219E+01  0.27675909283E+01  0.00000000000E+00 0.  1.
</event>
<event>
 5    1  0.2111786E+001  0.1528133E+01  0.7818608E-02  0.3435261E+00
         11   -1    0    0    0    0  0.00000000000E+00  0.00000000000E+00  0.39999999674E+01  0.40000000000E+01  0.51100000000E-03 0. -1.
    9000002   -1    0    0    0    0 -0.00000000000E+00 -0.00000000000E+00  0.00000000000E+00  0.93800000000E+00  0.93800000000E+00 0. -1.
         11    1    1    2    0    0  0.13781323302E+00  0.23158410988E+00  0.70164316741E+00  0.75161631345E+00  0.51100000000E-03 0. -1.
    9000002    1    1    2    0    0 -0.27837076184E+00  0.17020257082E-01  0.10941620291E+00  0.98468059576E+00  0.93800000000E+00 0. -1.
         22    1    1    2    0    0  0.14055752882E+00 -0.24860436697E+00  0.31889405970E+01  0.32017030908E+01  0.00000000000E+00 0. -1.
</event>
<event>
 5    1  0.2111786E+001  0.1587273E+01  0.7818608E-02  0.3367293E+00
         11   -1    0    0    0    0  0.00000000000E+00  0.00000000000E+00  0.39999999674E+01  0.40000000000E+01  0.51100000000E-03 0. -1.
    9000002   -1    0    0    0    0 -0.00000000000E+00 -0.00000000000E+00  0.00000000000E+00  0.93800000000E+00  0.93800000000E+00 0.  1.
         11    1    1    2    0    0 -0.26234154676E-01 -0.53772145484E-01  0.32148175403E+00  0.32700222292E+00  0.51100000000E-03 0. -1.
    9000002    1    1    2    0    0  0.16514332008E-01 -0.18679530302E+00  0.32577041676E-01  0.95711570462E+00  0.93800000000E+00 0.  1.
         22    1    1    2    0    0  0.97198226677E-02  0.24056744851E+00  0.36459411717E+01  0.36538820725E+01  0.00000000000E+00 0. -1.
</event>
<event>
 5    1  0.2111786E+001  0.1469997E+01  0.7818608E-02  0.3507797E+00
         11   -1    0    0    0    0  0.00000000000E+00  0.00000000000E+00  0.39999999674E+01  0.40000000000E+01  0.51100000000E-03 0. -1.
    9000002   -1    0    0    0    0 -0.00000000000E+00 -0.00000000000E+00  0.00000000000E+00  0.93800000000E+00  0.93800000000E+00 0.  1.
         11    1    1    2    0    0  0.48672348000E-01  0.54194360001E+00  0.14697498842E+01  0.15672386054E+01  0.51100000000E-03 0. -1.
    9000002    1    1    2    0    0  0.85275749930E-01 -0.32318724657E+00  0.18658880371E+00  0.10131047979E+01  0.93800000000E+00 0.  1.
         22    1    1    2    0    0 -0.13394809793E+00 -0.21875635343E+00  0.23436612794E+01  0.23576565967E+01  0.00000000000E+00 0. -1.
</event>
<event>
 5    1  0.2111786E+001  0.1503966E+01  0.7818608E-02  0.3464679E+00
         11   -1    0    0    0    0  0.00000000000E+00  0.00000000000E+00  0.39999999674E+01  0.40000000000E+01  0.51100000000E-03 0. -1.
    9000002   -1    0    0    0    0 -0.00000000000E+00 -0.00000000000E+00  0.00000000000E+00  0.93800000000E+00  0.93800000000E+00 0.  1.
         11    1    1    2    0    0  0.29609023194E+00  0.36303414471E+00  0.22412343359E+01  0.22896713356E+01  0.51100000000E-03 0. -1.
    9000002    1    1    2    0    0 -0.30823821776E+00 -0.25545131228E-01  0.14339219187E+00  0.99803240093E+00  0.93800000000E+00 0.  1.
         22    1    1    2    0    0  0.12147985819E-01 -0.33748901348E+00  0.16153734396E+01  0.16502962635E+01  0.00000000000E+00 0. -1.
</event>
<event>
 5    1  0.2111786E+001  0.1575939E+01  0.7818608E-02  0.3379900E+00
         11   -1    0    0    0    0  0.00000000000E+00  0.00000000000E+00  0.39999999674E+01  0.40000000000E+01  0.51100000000E-03 0.  1.
    9000002   -1    0    0    0    0 -0.00000000000E+00 -0.00000000000E+00  0.00000000000E+00  0.93800000000E+00  0.93800000000E+00 0.  1.
         11    1    1    2    0    0  0.98782774744E-01 -0.66420630671E-01  0.53239435115E+00  0.54553986383E+00  0.51100000000E-03 0.  1.
    9000002    1    1    2    0    0 -0.33678556324E-01 -0.13696111614E+00  0.30818565060E-01  0.94904498125E+00  0.93800000000E+00 0.  1.
         22    1    1    2    0    0 -0.65104218420E-01  0.20338174681E+00  0.34367870511E+01  0.34434151549E+01  0.00000000000E+00 0.  1.
</event>
<event>
 5    1  0.2111786E+001  0.1459824E+01  0.7818608E-02  0.3521133E+00
         11   -1    0    0    0    0  0.00000000000E+00  0.00000000000E+00  0.39999999674E+01  0.40000000000E+01  0.51100000000E-03 0.  1.
    9000002   -1    0    0    0    0 -0.00000000000E+00 -0.00000000000E+00  0.00000000000E+00  0.93800000000E+00  0.93800000000E+00 0.  1.
         11    1    1    2    0    0  0.20364061770E+00 -0.30886127286E+00  0.67378100094E+00  0.76866500207E+00  0.51100000000E-03 0.  1.
    9000002    1    1    2    0    0 -0.64136780679E-01  0.99358958888E-01  0.11972370542E+00  0.95297612509E+00  0.93800000000E+00 0.  1.
         22    1    1    2    0    0 -0.13950383702E+00  0.20950231397E+00  0.32064952610E+01  0.32163588728E+01  0.00000000000E+00 0.  1.
</event>
<event>
 5    1  0.2111786E+001  0.1480402E+01  0.7818608E-02  0.3494363E+00
         11   -1    0    0    0    0  0.00000000000E+00  0.00000000000E+00  0.39999999674E+01  0.40000000000E+01  0.51100000000E-03 0.  1.
    9000002   -1    0    0    0    0 -0.00000000000E+00 -0.00000000000E+00  0.00000000000E+00  0.93800000000E+00  0.93800000000E+00 0.  1.
         11    1    1    2    0    0 -0.29601965392E+00 -0.50679961359E-01  0.48614389136E+00  0.57142999415E+00  0.51100000000E-03 0.  1.
    9000002    1    1    2    0    0  0.14580150962E+00 -0.93736930399E-01  0.11438075091E+00  0.96071413465E+00  0.93800000000E+00 0.  1.
         22    1    1    2    0    0  0.15021814430E+00  0.14441689176E+00  0.33994753251E+01  0.34058558712E+01  0.00000000000E+00 0.  1.
</event>
<event>
 5    1  0.2111786E+001  0.1537415E+01  0.7818608E-02  0.3424224E+00
         11   -1    0    0    0    0  0.00000000000E+00  0.00000000000E+00  0.39999999674E+01  0.40000000000E+01  0.51100000000E-03 0.  1.
    9000002   -1    0    0    0    0 -0.00000000000E+00 -0.00000000000E+00  0.00000000000E+00  0.93800000000E+00  0.93800000000E+00 0.  1.
         11    1    1    2    0    0 -0.15929537449E+00 -0.15980197911E+00  0.72223920357E+00  0.75666466625E+00  0.51100000000E-03 0.  1.
    9000002    1    1    2    0    0 -0.70097825522E-01  0.10517892429E-01  0.50011129109E-01  0.94200288972E+00  0.93800000000E+00 0.  1.
         22    1    1    2    0    0  0.22939320001E+00  0.14928408668E+00  0.32277496347E+01  0.32393324440E+01  0.00000000000E+00 0.  1.
</event>
<event>
 5    1  0.2111786E+001  0.1559881E+01  0.7818608E-02  0.3398093E+00
         11   -1    0    0    0    0  0.00000000000E+00  0.00000000000E+00  0.39999999674E+01  0.40000000000E+01  0.51100000000E-03 0. -1.
    9000002   -1    0    0    0    0 -0.00000000000E+00 -0.00000000000E+00  0.00000000000E+00  0.93800000000E+00  0.93800000000E+00 0. -1.
         11    1    1    2    0    0  0.71239383562E-01  0.14994004811E+00  0.28572632244E+01  0.28620814913E+01  0.51100000000E-03 0. -1.
    9000002    1    1    2    0    0  0.81219841937E-01  0.31674503836E-01  0.34581150687E-01  0.94267692923E+00  0.93800000000E+00 0. -1.
         22    1    1    2    0    0 -0.15245922550E+00 -0.18161455195E+00  0.11081555922E+01  0.11332415795E+01  0.00000000000E+00 0. -1.
</event>
<event>
 5    1  0.2111786E+001  0.1488037E+01  0.7818608E-02  0.3484634E+00
         11   -1    0    0    0    0  0.00000000000E+00  0.00000000000E+00  0.39999999674E+01  0.40000000000E+01  0.51100000000E-03 0. -1.
    9000002   -1    0    0    0    0 -0.00000000000E+00 -0.00000000000E+00  0.00000000000E+00  0.93800000000E+00  0.93800000000E+00 0. -1.
         11    1    1    2    0    0 -0.61976138209E+00 -0.20481896759E+00  0.20213764135E+01  0.21241510884E+01  0.51100000000E-03 0. -1.
    9000002    1    1    2    0    0  0.54117532440E+00 -0.62223326306E-01  0.31842906055E+00  0.11304793411E+01  0.93800000000E+00 0. -1.
         22    1    1    2    0    0  0.78586057691E-01  0.26704229390E+00  0.16601944933E+01  0.16833695705E+01  0.00000000000E+00 0. -1.
</event>
<event>
 5    1  0.2111786E+001  0.1542366E+01  0.7818608E-02  0.3418395E+00
         11   -1    0    0    0    0  0.00000000000E+00  0.00000000000E+00  0.39999999674E+01  0.40000000000E+01  0.51100000000E-03 0.  1.
    9000002   -1    0    0    0    0 -0.00000000000E+00 -0.00000000000E+00  0.00000000000E+00  0.93800000000E+00  0.93800000000E+00 0. -1.
         11    1    1    2    0    0 -0.48537365234E-03  0.29210811608E+00  0.24005124461E+01  0.24182199346E+01  0.51100000000E-03 0.  1.
    9000002    1    1    2    0    0  0.41675837608E-01 -0.19280189494E-01  0.44152924319E-01  0.94016066812E+00  0.93800000000E+00 0. -1.
         22    1    1    2    0    0 -0.41190463955E-01 -0.27282792659E+00  0.15553345969E+01  0.15796193972E+01  0.00000000000E+00 0. -1.
</event>
<event>
 5    1  0.2111786E+001  0.1552519E+01  0.7818608E-02  0.3406567E+00
         11   -1    0    0    0    0  0.00000000000E+00  0.00000000000E+00  0.39999999674E+01  0.40000000000E+01  0.51100000000E-03 0.  1.
    9000002   -1    0    0    0    0 -0.00000000000E+00 -0.00000000000E+00  0.00000000000E+00  0.93800000000E+00  0.93800000000E+00 0.  1.
         11    1    1    2    0    0  0.17518814807E+00  0.10305785924E+00  0.30366275387E+01  0.30434222315E+01  0.51100000000E-03 0.  1.
    9000002    1    1    2    0    0  0.14289422639E-01  0.23711550046E-01  0.35467991185E-01  0.93907848639E+00  0.93800000000E+00 0.  1.
         22    1    1    2    0    0 -0.18947757070E+00 -0.12676940929E+00  0.92790443751E+00  0.95549928210E+00  0.00000000000E+00 0.  1.
</event>
<event>
 5    1  0.2111786E+001  0.1586275E+01  0.7818608E-02  0.3368396E+00
         11   -1    0    0    0    0  0.00000000000E+00  0.00000000000E+00  0.39999999674E+01  0.40000000000E+01  0.51100000000E-03 0.  1.
    9000002   -1    0    0    0    0 -0.00000000000E+00 -0.00000000000E+00  0.00000000000E+00  0.93800000000E+00  0.93800000000E+00 0.  1.
         11    1    1    2    0    0  0.66688737402E-01  0.79262392424E-02  0.47232952587E+00  0.47708034448E+00  0.51100000000E-03 0.  1.
    9000002    1    1    2    0    0  0.18907086471E+00  0.50576639223E-01  0.35449315442E-01  0.95885684139E+00  0.93800000000E+00 0.  1.
         22    1    1    2    0    0 -0.25575960211E+00 -0.58502878466E-01  0.34922211261E+01  0.35020628141E+01  0.00000000000E+00 0.  1.
</event>
<event>
 5    1  0.2111786E+001  0.1561228E+01  0.7818608E-02  0.3396551E+00
         11   -1    0    0    0    0  0.00000000000E+00  0.00000000000E+00  0.39999999674E+01  0.40000000000E+01  0.51100000000E-03 0.  1.
    9000002   -1    0    0    0    0 -0.00000000000E+00 -0.00000000000E+00  0.00000000000E+00  0.93800000000E+00  0.93800000000E+00 0. -1.
         11    1    1    2    0    0 -0.27470784977E+00 -0.14643097447E+00  0.27552437230E+01  0.27727738219E+01  0.51100000000E-03 0.  1.
    9000002    1    1    2    0    0  0.27583122480E+00 -0.76182912501E-01  0.85064825024E-01  0.98436107460E+00  0.93800000000E+00 0. -1.
         22    1    1    2    0    0 -0.11233750331E-02  0.22261388697E+00  0.11596914193E+01  0.11808651035E+01  0.00000000000E+00 0.  1.
</event>
<event>
 5    1  0.2111786E+001  0.1535126E+01  0.7818608E-02  0.3426932E+00
         11   -1    0    0    0    0  0.00000000000E+00  0.00000000000E+00  0.39999999674E+01  0.40000000000E+01  0.51100000000E-03 0.  1.
    9000002   -1    0    0    0    0 -0.00000000000E+00 -0.00000000000E+00  0.00000000000E+00  0.93800000000E+00  0.93800000000E+00 0.  1.
         11    1    1    2    0    0 -0.11516574437E+00 -0.21985739003E+00  0.25746838236E+01  0.25866189269E+01  0.51100000000E-03 0.  1.
    9000002    1    1    2    0    0 -0.13664391138E-01 -0.67931638127E-01  0.51629676914E-01  0.94197189267E+00  0.93800000000E+00 0.  1.
         22    1    1    2    0    0  0.12883013551E+00  0.28778902816E+00  0.13736864669E+01  0.14094091804E+01  0.00000000000E+00 0. -1.
</event>
<event>
 5    1  0.2111786E+001  0.1563202E+01  0.7818608E-02  0.3394297E+00
         11   -1    0    0    0    0  0.00000000000E+00  0.00000000000E+00  0.39999999674E+01  0.40000000000E+01  0.51100000000E-03 0. -1.
    9000002   -1    0    0    0    0 -0.00000000000E+00 -0.00000000000E+00  0.00000000000E+00  0.93800000000E+00  0.93800000000E+00 0. -1.
         11    1    1    2    0    0  0.29952252724E+00 -0.10266366115E+00  0.23344005952E+01  0.23557758747E+01  0.51100000000E-03 0. -1.
    9000002    1    1    2    0    0 -0.13121357130E+00  0.24499447946E+00  0.80214325389E-01  0.98158934094E+00  0.93800000000E+00 0. -1.
         22    1    1    2    0    0 -0.16830895594E+00 -0.14233081830E+00  0.15853850468E+01  0.16006347844E+01  0.00000000000E+00 0. -1.
</event>
<event>
 5    1  0.2111786E+001  0.1538879E+01  0.7818608E-02  0.3422497E+00
         11   -1    0    0    0    0  0.00000000000E+00  0.00000000000E+00  0.39999999674E+01  0.40000000000E+01  0.51100000000E-03 0.  1.
    9000002   -1    0    0    0    0 -0.00000000000E+00 -0.00000000000E+00  0.00000000000E+00  0.93800000000E+00  0.93800000000E+00 0.  1.
         11    1    1    2    0    0 -0.13911348222E+00  0.31693926722E+00  0.18982544934E+01  0.19295526535E+01  0.51100000000E-03 0.  1.
    9000002    1    1    2    0    0 -0.55852438154E-01 -0.14759074958E+00  0.62842946534E-01  0.95325534887E+00  0.93800000000E+00 0.  1.
         22    1    1    2    0    0  0.19496592038E+00 -0.16934851764E+00  0.20389025275E+01  0.20551919976E+01  0.00000000000E+00 0. -1.
</event>
<event>
 5    1  0.2111786E+001  0.1536373E+01  0.7818608E-02  0.3425456E+00
         11   -1    0    0    0    0  0.00000000000E+00  0.00000000000E+00  0.39999999674E+01  0.40000000000E+01  0.51100000000E-03 0.  1.
    9000002   -1    0    0    0    0 -0.00000000000E+00 -0.00000000000E+00  0.00000000000E+00  0.93800000000E+00  0.93800000000E+00 0.  1.
         11    1    1    2    0    0  0.10944459038E+00  0.17958181198E+00  0.55536742636E+00  0.59385266265E+00  0.51100000000E-03 0.  1.
    9000002    1    1    2    0    0 -0.35737388693E-01  0.42045898722E-01  0.49430379296E-01  0.94092102801E+00  0.93800000000E+00 0.  1.
         22    1    1    2    0    0 -0.73707201692E-01 -0.22162771070E+00  0.33952021617E+01  0.34032263093E+01  0.00000000000E+00 0.  1.
</event>
<event>
 5    1  0.2111786E+001  0.1453574E+01  0.7818608E-02  0.3529427E+00
         11   -1    0    0    0    0  0.00000000000E+00  0.00000000000E+00  0.39999999674E+01  0.40000000000E+01  0.51100000000E-03 0. -1.
    9000002   -1    0    0    0    0 -0.00000000000E+00 -0.00000000000E+00  0.00000000000E+00  0.93800000000E+00  0.93800000000E+00 0. -1.
         11    1    1    2    0    0 -0.95143373036E-01  0.27805306615E+00  0.53472043459E+00  0.61015733489E+00  0.51100000000E-03 0. -1.
    9000002    1    1    2    0    0 -0.10070422042E+00  0.19183125319E+00  0.15072574324E+00  0.97442435283E+00  0.93800000000E+00 0. -1.
         22    1    1    2    0    0  0.19584759346E+00 -0.46988431935E+00  0.33145537895E+01  0.33534183123E+01  0.00000000000E+00 0. -1.
</event>
<event>
 5    1  0.2111786E+001  0.1458891E+01  0.7818608E-02  0.3522366E+00
         11   -1    0    0    0    0  0.00000000000E+00  0.00000000000E+00  0.39999999674E+01  0.40000000000E+01  0.51100000000E-03 0. -1.
    9000002   -1    0    0    0    0 -0.00000000000E+00 -0.00000000000E+00  0.00000000000E+00  0.93800000000E+00  0.93800000000E+00 0. -1.
         11    1    1    2    0    0 -0.20921308879E+00 -0.19348352767E+00  0.28901418975E+00  0.40587615721E+00  0.51100000000E-03 0. -1.
    9000002    1    1    2    0    0  0.35649670897E+00  0.53275307355E-01  0.21169656971E+00  0.10269311562E+01  0.93800000000E+00 0. -1.
         22    1    1    2    0    0 -0.14728362018E+00  0.14020822031E+00  0.34992892079E+01  0.35051926866E+01  0.00000000000E+00 0. -1.
</event>
<event>
 5    1  0.2111786E+001  0.1599124E+01  0.7818608E-02  0.3354315E+00
         11   -1    0    0    0    0  0.00000000000E+00  0.00000000000E+00  0.39999999674E+01  0.40000000000E+01  0.51100000000E-03 0. -1.
    9000002   -1    0    0    0    0 -0.00000000000E+00 -0.00000000000E+00  0.00000000000E+00  0.93800000000E+00  0.93800000000E+00 0. -1.
         11    1    1    2    0    0 -0.15095142695E+00 -0.69870640484E-01  0.16735008617E+01  0.16817471971E+01  0.51100000000E-03 0. -1.
    9000002    1    1    2    0    0  0.35280268579E+00  0.97781124987E-01  0.90482974556E-01  0.10109708464E+01  0.93800000000E+00 0. -1.
         22    1    1    2    0    0 -0.20185125884E+00 -0.27910484503E-01  0.22360161311E+01  0.22452819566E+01  0.00000000000E+00 0.  1.
</event>
<event>
 5    1  0.2111786E+001  0.1453377E+01  0.7818608E-02  0.3529690E+00
         11   -1    0    0    0    0  0.00000000000E+00  0.00000000000E+00  0.39999999674E+01  0.40000000000E+01  0.51100000000E-03 0. -1.
    9000002   -1    0    0    0    0 -0.00000000000E+00 -0.00000000000E+00  0.00000000000E+00  0.93800000000E+00  0.93800000000E+00 0. -1.
         11    1    1    2    0    0  0.41664458146E+00  0.31071318233E-01  0.59238510456E+00  0.72489896351E+00  0.51100000000E-03 0. -1.
    9000002    1    1    2    0    0 -0.29358979512E+00 -0.70306299804E+00  0.65008392724E+00  0.13722046711E+01  0.93800000000E+00 0. -1.
         22    1    1    2    0    0 -0.12305478634E+00  0.67199167980E+00  0.27575309356E+01  0.28408963654E+01  0.00000000000E+00 0. -1.
</event>
<event>
 5    1  0.2111786E+001  0.1574032E+01  0.7818608E-02  0.3382040E+00
         11   -1    0    0    0    0  0.00000000000E+00  0.00000000000E+00  0.39999999674E+01  0.40000000000E+01  0.51100000000E-03 0.  1.
    9000002   -1    0    0    0    0 -0.00000000000E+00 -0.00000000000E+00  0.00000000000E+00  0.93800000000E+00  0.93800000000E+00 0.  1.
         11    1    1    2    0    0  0.35194095485E-01 -0.10409456725E+00  0.57093168852E+00  0.58140997357E+00  0.51100000000E-03 0.  1.
    9000002    1    1    2    0    0  0.22273093302E+00 -0.95021184215E-01  0.58723661802E-01  0.97053107237E+00  0.93800000000E+00 0.  1.
         22    1    1    2    0    0 -0.25792502851E+00  0.19911575146E+00  0.33703446170E+01  0.33860589541E+01  0.00000000000E+00 0.  1.
</event>
<event>
 5    1  0.2111786E+001  0.1513724E+01  0.7818608E-02  0.3452680E+00
         11   -1    0    0    0    0  0.00000000000E+00  0.00000000000E+00  0.39999999674E+01  0.40000000000E+01  0.51100000000E-03 0. -1.
    9000002   -1    0    0    0    0 -0.00000000000E+00 -0.00000000000E+00  0.00000000000E+00  0.93800000000E+00  0.93800000000E+00 0.  1.
         11    1    1    2    0    0 -0.31463401386E+00  0.50090834878E-01  0.11314699246E+01  0.11754693130E+01  0.51100000000E-03 0. -1.
    9000002    1    1    2    0    0  0.19407556619E-02  0.46261217837E-01  0.66535090494E-01  0.94149603561E+00  0.93800000000E+00 0.  1.
         22    1    1    2    0    0  0.31269325820E+00 -0.96352052716E-01  0.28019949523E+01  0.28210346514E+01  0.00000000000E+00 0. -1.
</event>
<event>
 5    1  0.2111786E+001  0.1539715E+01  0.7818608E-02  0.3421512E+00
         11   -1    0    0    0    0  0.00000000000E+00  0.00000000000E+00  0.39999999674E+01  0.40000000000E+01  0.51100000000E-03 0. -1.
    9000002   -1    0    0    0    0 -0.00000000000E+00 -0.00000000000E+00  0.00000000000E+00  0.93800000000E+00  0.93800000000E+00 0. -1.
         11    1    1    2    0    0 -0.21782346919E+00 -0.13107315501E+00  0.30823630912E+01  0.30928287574E+01  0.51100000000E-03 0. -1.
    9000002    1    1    2    0    0  0.46850067025E+00  0.34114252798E+00  0.29422698433E+00  0.11411768578E+01  0.93800000000E+00 0. -1.
         22    1    1    2    0    0 -0.25067720105E+00 -0.21006937298E+00  0.62340989186E+00  0.70399438482E+00  0.00000000000E+00 0. -1.
</event>
<event>
 5    1  0.2111786E+001  0.1554872E+01  0.7818608E-02  0.3403849E+00
         11   -1    0    0    0    0  0.00000000000E+00  0.00000000000E+00  0.39999999674E+01  0.40000000000E+01  0.51100000000E-03 0.  1.
    9000002   -1    0    0    0    0 -0.00000000000E+00 -0.00000000000E+00  0.00000000000E+00  0.93800000000E+00  0.93800000000E+00 0. -1.
         11    1    1    2    0    0 -0.12535136062E+00 -0.22019231840E+00  0.22230772991E+01  0.22374696779E+01  0.51100000000E-03 0.  1.
    9000002    1    1    2    0    0  0.17621185049E+00 -0.55269495863E-01  0.56739852197E-01  0.95768927333E+00  0.93800000000E+00 0. -1.
         22    1    1    2    0    0 -0.50860489869E-01  0.27546181426E+00  0.17201828161E+01  0.17428410488E+01  0.00000000000E+00 0. -1.
</event>
<event>
 5    1  0.2111786E+001  0.1570450E+01  0.7818608E-02  0.3386074E+00
         11   -1    0    0    0    0  0.00000000000E+00  0.00000000000E+00  0.39999999674E+01  0.40000000000E+01  0.51100000000E-03 0.  1.
    9000002   -1    0    0    0    0 -0.00000000000E+00 -0.00000000000E+00  0.00000000000E+00  0.93800000000E+00  0.93800000000E+00 0. -1.
         11    1    1    2    0    0  0.29375275008E-01  0.10001997275E-01  0.30765916060E+01  0.30767481401E+01  0.51100000000E-03 0.  1.
    9000002    1    1    2    0    0  0.93596979843E-01  0.16512212206E+00  0.45988703658E-01  0.95811516567E+00  0.93800000000E+00 0. -1.
         22    1    1    2    0    0 -0.12297225485E+00 -0.17512411933E+00  0.87741965773E+00  0.90313669420E+00  0.00000000000E+00 0.  1.
</event>
<event>
 5    1  0.2111786E+001  0.1558029E+01  0.7818608E-02  0.3400216E+00
         11   -1    0    0    0    0  0.00000000000E+00  0.00000000000E+00  0.39999999674E+01  0.40000000000E+01  0.51100000000E-03 0. -1.
    9000002   -1    0    0    0    0 -0.00000000000E+00 -0.00000000000E+00  0.00000000000E+00  0.93800000000E+00  0.93800000000E+00 0.  1.
         11    1    1    2    0    0  0.42593827088E-01 -0.36320394919E+00  0.24092013751E+01  0.24367976670E+01  0.51100000000E-03 0. -1.
    9000002    1    1    2    0    0 -0.18189877576E+00  0.21862872832E+00  0.86956547275E-01  0.98401784871E+00  0.93800000000E+00 0.  1.
         22    1    1    2    0    0  0.13930494867E+00  0.14457522087E+00  0.15038420450E+01  0.15171844843E+01  0.00000000000E+00 0. -1.
</event>
<event>
 5    1  0.2111786E+001  0.1585085E+01  0.7818608E-02  0.3369712E+00
         11   -1    0    0    0    0  0.00000000000E+00  0.00000000000E+00  0.39999999674E+01  0.40000000000E+01  0.51100000000E-03 0. -1.
    9000002   -1    0    0    0    0 -0.00000000000E+00 -0.00000000000E+00  0.00000000000E+00  0.93800000000E+00  0.93800000000E+00 0.  1.
         11    1    1    2    0    0 -0.51899969724E-01  0.72070816443E-01  0.20242409295E+01  0.20261883948E+01  0.51100000000E-03 0. -1.
    9000002    1    1    2    0    0  0.57809959948E-01  0.14054058330E+00  0.26103580271E-01  0.95058878803E+00  0.93800000000E+00 0.  1.
         22    1    1    2    0    0 -0.59099902244E-02 -0.21261139974E+00  0.19496554576E+01  0.19612228171E+01  0.00000000000E+00 0. -1.
</event>
<event>
 5    1  0.2111786E+001  0.1532349E+01  0.7818608E-02  0.3430230E+00
         11   -1    0    0    0    0  0.00000000000E+00  0.00000000000E+00  0.39999999674E+01  0.40000000000E+01  0.51100000000E-03 0.  1.
    9000002   -1    0    0    0    0 -0.00000000000E+00 -0.00000000000E+00  0.00000000000E+00  0.93800000000E+00  0.93800000000E+00 0.  1.
         11    1    1    2    0    0  0.91297304301E-01  0.28137600335E+00  0.15796829704E+01  0.16071422467E+01  0.51100000000E-03 0.  1.
    9000002    1    1    2    0    0 -0.84731078582E-01  0.48100780413E-01  0.57099053799E-01  0.94477369920E+00  0.93800000000E+00 0.  1.
         22    1    1    2    0    0 -0.65662257191E-02 -0.32947678376E+00  0.23632179432E+01  0.23860840541E+01  0.00000000000E+00 0.  1.
</event>
<event>
 5    1  0.2111786E+001  0.1550309E+01  0.7818608E-02  0.3409127E+00
         11   -1    0    0    0    0  0.00000000000E+00  0.00000000000E+00  0.39999999674E+01  0.40000000000E+01  0.51100000000E-03 0. -1.
    9000002   -1    0    0    0    0 -0.00000000000E+00 -0.00000000000E+00  0.00000000000E+00  0.93800000000E+00  0.93800000000E+00 0.  1.
         11    1    1    2    0    0  0.26480433305E+00  0.35118962246E-01  0.23039567498E+01  0.23193903601E+01  0.51100000000E-03 0. -1.
    9000002    1    1    2    0    0 -0.27928970927E-02 -0.28507225483E-01  0.37184724819E-01  0.93917366123E+00  0.93800000000E+00 0.  1.
         22    1    1    2    0    0 -0.26201143596E+00 -0.66117367631E-02  0.16588584927E+01  0.16794359787E+01  0.00000000000E+00 0. -1.
</event>
<event>
 5    1  0.2111786E+001  0.1559656E+01  0.7818608E-02  0.3398350E+00
         11   -1    0    0    0    0  0.00000000000E+00  0.00000000000E+00  0.39999999674E+01  0.40000000000E+01  0.51100000000E-03 0.  1.
    9000002   -1    0    0    0    0 -0.00000000000E+00 -0.00000000000E+00  0.00000000000E+00  0.93800000000E+00  0.93800000000E+00 0.  1.
         11    1    1    2    0    0 -0.79243724897E-01 -0.14506394702E+00  0.92771700815E+00  0.94232808776E+00  0.51100000000E-03 0.  1.
    9000002    1    1    2    0    0  0.22040401632E-01 -0.19270017397E+00  0.55445419549E-01  0.95944636687E+00  0.93800000000E+00 0.  1.
         22    1    1    2    0    0  0.57203323265E-01  0.33776412098E+00  0.30168375397E+01  0.30362255454E+01  0.00000000000E+00 0. -1.
</event>
<event>
 5    1  0.2111786E+001  0.1562820E+01  0.7818608E-02  0.3394732E+00
         11   -1    0    0    0    0  0.00000000000E+00  0.00000000000E+00  0.39999999674E+01  0.40000000000E+01  0.51100000000E-03 0.  1.
    9000002   -1    0    0    0    0 -0.00000000000E+00 -0.00000000000E+00  0.00000000000E+00  0.93800000000E+00  0.93800000000E+00 0. -1.
         11    1    1    2    0    0 -0.17739215899E+00  0.45888124208E-01  0.19455664124E+01  0.19541756892E+01  0.51100000000E-03 0.  1.
    9000002    1    1    2    0    0 -0.96907241888E-01  0.13815313021E-01  0.33711293504E-01  0.94369609924E+00  0.93800000000E+00 0. -1.
         22    1    1    2    0    0  0.27429940088E+00 -0.59703437229E-01  0.20207222615E+01  0.20401282116E+01  0.00000000000E+00 0.  1.
</event>
<event>
 5    1  0.2111786E+001  0.1559523E+01  0.7818608E-02  0.3398502E+00
         11   -1    0    0    0    0  0.00000000000E+00  0.00000000000E+00  0.39999999674E+01  0.40000000000E+01  0.51100000000E-03 0. -1.
    9000002   -1    0    0    0    0 -0.00000000000E+00 -0.00000000000E+00  0.00000000000E+00  0.93800000000E+00  0.93800000000E+00 0. -1.
         11    1    1    2    0    0  0.70085487956E-01  0.22074073966E+00  0.13591940894E+01  0.13787847126E+01  0.51100000000E-03 0. -1.
    9000002    1    1    2    0    0  0.69407818230E-01 -0.34453634380E-01  0.33757902737E-01  0.94180045347E+00  0.93800000000E+00 0. -1.
         22    1    1    2    0    0 -0.13949330619E+00 -0.18628710528E+00  0.26070479752E+01  0.26174148340E+01  0.00000000000E+00 0. -1.
</event>
<event>
 5    1  0.2111786E+001  0.1547599E+01  0.7818608E-02  0.3412279E+00
         11   -1    0    0    0    0  0.00000000000E+00  0.00000000000E+00  0.39999999674E+01  0.40000000000E+01  0.51100000000E-03 0.  1.
    9000002   -1    0    0    0    0 -0.00000000000E+00 -0.00000000000E+00  0.00000000000E+00  0.93800000000E+00  0.93800000000E+00 0. -1.
         11    1    1    2    0    0  0.32941605982E+00 -0.12312886046E+00  0.19666583458E+01  0.19978540905E+01  0.51100000000E-03 0.  1.
    9000002    1    1    2    0    0 -0.10966895140E+00  0.21903850930E+00  0.80669518865E-01  0.97280867530E+00  0.93800000000E+00 0. -1.
         22    1    1    2    0    0 -0.21974710842E+00 -0.95909648847E-01  0.19526721027E+01  0.19673372342E+01  0.00000000000E+00 0.  1.
</event>
<event>
 5    1  0.2111786E+001  0.1546457E+01  0.7818608E-02  0.3413610E+00
         11   -1    0    0    0    0  0.00000000000E+00  0.00000000000E+00  0.39999999674E+01  0.40000000000E+01  0.51100000000E-03 0. -1.
    9000002   -1    0    0    0    0 -0.00000000000E+00 -0.00000000000E+00  0.00000000000E+00  0.93800000000E+00  0.93800000000E+00 0. -1.
         11    1    1    2    0    0  0.18054050963E+00 -0.21285773293E+00  0.27512660265E+01  0.27653875497E+01  0.51100000000E-03 0. -1.
    9000002    1    1    2    0    0 -0.24128503481E-01  0.23238589376E-01  0.40332282317E-01  0.93946416095E+00  0.93800000000E+00 0. -1.
         22    1    1    2    0    0 -0.15641200615E+00  0.18961914355E+00  0.12084016585E+01  0.12331482894E+01  0.00000000000E+00 0.  1.
</event>
<event>
 5    1  0.2111786E+001  0.1562319E+01  0.7818608E-02  0.3395305E+00
         11   -1    0    0    0    0  0.00000000000E+00  0.00000000000E+00  0.39999999674E+01  0.40000000000E+01  0.51100000000E-03 0.  1.
    9000002   -1    0    0    0    0 -0.00000000000E+00 -0.00000000000E+00  0.00000000000E+00  0.93800000000E+00  0.93800000000E+00 0. -1.
         11    1    1    2    0    0  0.13328325430E+00  0.19760683592E+00  0.15340128316E+01  0.15524202125E+01  0.51100000000E-03 0.  1.
    9000002    1    1    2    0    0  0.22232529233E-01 -0.54097702972E-01  0.29877466412E-01  0.94029650102E+00  0.93800000000E+00 0. -1.
         22    1    1    2    0    0 -0.15551578354E+00 -0.14350913295E+00  0.24361096693E+01  0.24452832865E+01  0.00000000000E+00 0.  1.
</event>
<event>
 5    1  0.2111786E+001  0.1559503E+01  0.7818608E-02  0.3398526E+00
         11   -1    0    0    0    0  0.00000000000E+00  0.00000000000E+00  0.39999999674E+01  0.40000000000E+01  0.51100000000E-03 0. -1.
    9000002   -1    0    0    0    0 -0.00000000000E+00 -0.00000000000E+00  0.00000000000E+00  0.93800000000E+00  0.93800000000E+00 0.  1.
         11    1    1    2    0    0 -0.11818172532E+00 -0.82023528234E-01  0.30072371026E+01  0.30106760091E+01  0.51100000000E-03 0. -1.
    9000002    1    1    2    0    0 -0.21176391006E-01 -0.10005742668E+00  0.36830977040E-01  0.94427773935E+00  0.93800000000E+00 0.  1.
         22    1    1    2    0    0  0.13935811632E+00  0.18208095491E+00  0.95593188776E+00  0.98304625158E+00  0.00000000000E+00 0.  1.
</event>
<event>
 5    1  0.2111786E+001  0.1498192E+01  0.7818608E-02  0.3471860E+00
         11   -1    0    0    0    0  0.00000000000E+00  0.00000000000E+00  0.39999999674E+01  0.40000000000E+01  0.51100000000E-03 0. -1.
    9000002   -1    0    0    0    0 -0.00000000000E+00 -0.00000000000E+00  0.00000000000E+00  0.93800000000E+00  0.93800000000E+00 0. -1.
         11    1    1    2    0    0 -0.30563106765E+00 -0.53000637391E-02  0.19208144733E+00  0.36101798254E+00  0.51100000000E-03 0. -1.
    9000002    1    1    2    0    0  0.33104038730E+00  0.22464783307E+00  0.30118313446E+00  0.10633013060E+01  0.93800000000E+00 0. -1.
         22    1    1    2    0    0 -0.25409319647E-01 -0.21934776933E+00  0.35067353856E+01  0.35136807114E+01  0.00000000000E+00 0. -1.
</event>
<event>
 5    1  0.2111786E+001  0.1549016E+01  0.7818608E-02  0.3410629E+00
         11   -1    0    0    0    0  0.00000000000E+00  0.00000000000E+00  0.39999999674E+01  0.40000000000E+01  0.51100000000E-03 0. -1.
    9000002   -1    0    0    0    0 -0.00000000000E+00 -0.00000000000E+00  0.00000000000E+00  0.93800000000E+00  0.93800000000E+00 0. -1.
         11    1    1    2    0    0 -0.22465934000E+00 -0.29788976718E-01  0.16429667279E+01  0.16585231781E+01  0.51100000000E-03 0. -1.
    9000002    1    1    2    0    0 -0.90359916966E-01 -0.48611102924E-01  0.44897205102E-01  0.94466275091E+00  0.93800000000E+00 0. -1.
         22    1    1    2    0    0  0.31501925696E+00  0.78400079642E-01  0.23121360343E+01  0.23348140710E+01  0.00000000000E+00 0. -1.
</event>
<event>
 5    1  0.2111786E+001  0.1577364E+01  0.7818608E-02  0.3378304E+00
         11   -1    0    0    0    0  0.00000000000E+00  0.00000000000E+00  0.39999999674E+01  0.40000000000E+01  0.51100000000E-03 0.  1.
    9000002   -1    0    0    0    0 -0.00000000000E+00 -0.00000000000E+00  0.00000000000E+00  0.93800000000E+00  0.93800000000E+00 0.  1.
         11    1    1    2    0    0 -0.11437053378E+00  0.88545758084E-01  0.10979256497E+01  0.11074122826E+01  0.51100000000E-03 0.  1.
    9000002    1    1    2    0    0 -0.63241104215E-01  0.12389133676E-01  0.19121077783E-01  0.94040552078E+00  0.93800000000E+00 0.  1.
         22    1    1    2    0    0  0.17761163800E+00 -0.10093489176E+00  0.28829532398E+01  0.28901821966E+01  0.00000000000E+00 0.  1.
</event>
<event>
 5    1  0.2111786E+001  0.1487962E+01  0.7818608E-02  0.3484729E+00
         11   -1    0    0    0    0  0.00000000000E+00  0.00000000000E+00  0.39999999674E+01  0.40000000000E+01  0.51100000000E-03 0. -1.
    9000002   -1    0    0    0    0 -0.00000000000E+00 -0.00000000000E+00  0.00000000000E+00  0.93800000000E+00  0.93800000000E+00 0.  1.
         11    1    1    2    0    0  0.25047652918E+00  0.47684155474E+00  0.11884588356E+01  0.13048183878E+01  0.51100000000E-03 0. -1.
    9000002    1    1    2    0    0  0.72268556796E-01 -0.62676213184E+00  0.40550592749E+00  0.12009715115E+01  0.93800000000E+00 0.  1.
         22    1    1    2    0    0 -0.32274508598E+00  0.14992057711E+00  0.24060352042E+01  0.24322101007E+01  0.00000000000E+00 0. -1.
</event>
<event>
 5    1  0.2111786E+001  0.1551135E+01  0.7818608E-02  0.3408169E+00
         11   -1    0    0    0    0  0.00000000000E+00  0.00000000000E+00  0.39999999674E+01  0.40000000000E+01  0.51100000000E-03 0.  1.
    9000002   -1    0    0    0    0 -0.00000000000E+00 -0.00000000000E+00  0.00000000000E+00  0.93800000000E+00  0.93800000000E+00 0. -1.
         11    1    1    2    0    0 -0.20618071666E+00 -0.40068347201E+00  0.14142304113E+01  0.14842862427E+01  0.51100000000E-03 0.  1.
    9000002    1    1    2    0    0  0.46431972880E+00  0.37177672499E+00  0.29628170703E+00  0.11495379914E+01  0.93800000000E+00 0. -1.
         22    1    1    2    0    0 -0.25813901214E+00  0.28906747016E-01  0.22894878490E+01  0.23041757659E+01  0.00000000000E+00 0.  1.
</event>
<event>
 5    1  0.2111786E+001  0.1521209E+01  0.7818608E-02  0.3443587E+00
         11   -1    0    0    0    0  0.00000000000E+00  0.00000000000E+00  0.39999999674E+01  0.40000000000E+01  0.51100000000E-03 0.  1.
    9000002   -1    0    0    0    0 -0.00000000000E+00 -0.00000000000E+00  0.00000000000E+00  0.93800000000E+00  0.93800000000E+00 0.  1.
         11    1    1    2    0    0 -0.21160360239E+00  0.16706907147E+00  0.84323724857E+00  0.88528948807E+00  0.51100000000E-03 0.  1.
    9000002    1    1    2    0    0 -0.72813524245E-01 -0.30888622630E-01  0.63556252840E-01  0.94347194637E+00  0.93800000000E+00 0.  1.
         22    1    1    2    0    0  0.28441712663E+00 -0.13618044884E+00  0.30932064659E+01  0.31092385656E+01  0.00000000000E+00 0.  1.
</event>
<event>
 5    1  0.2111786E+001  0.1511239E+01  0.7818608E-02  0.3455719E+00
         11   -1    0    0    0    0  0.00000000000E+00  0.00000000000E+00  0.39999999674E+01  0.40000000000E+01  0.51100000000E-03 0. -1.
    9000002   -1    0    0    0    0 -0.00000000000E+00 -0.00000000000E+00  0.00000000000E+00  0.93800000000E+00  0.93800000000E+00 0. -1.
         11    1    1    2    0    0  0.15530763170E+00  0.15651835541E+00  0.27081187350E+00  0.34922455239E+00  0.51100000000E-03 0. -1.
    9000002    1    1    2    0    0 -0.79289209200E-01 -0.39065220788E+00  0.18474535180E+00  0.10357947534E+01  0.93800000000E+00 0. -1.
         22    1    1    2    0    0 -0.76018422501E-01  0.23413385247E+00  0.35444427421E+01  0.35529806942E+01  0.00000000000E+00 0. -1.
</event>
<event>
 5    1  0.2111786E+001  0.1516761E+01  0.7818608E-02  0.3448979E+00
         11   -1    0    0    0    0  0.00000000000E+00  0.00000000000E+00  0.39999999674E+01  0.40000000000E+01  0.51100000000E-03 0.  1.
    9000002   -1    0    0    0    0 -0.00000000000E+00 -0.00000000000E+00  0.00000000000E+00  0.93800000000E+00  0.93800000000E+00 0.  1.
         11    1    1    2    0    0 -0.36323780948E+00 -0.84563118307E-01  0.21807379333E+01  0.22123993360E+01  0.51100000000E-03 0.  1.
    9000002    1    1    2    0    0  0.60948775497E-01 -0.28664763147E-01  0.65844253137E-01  0.94271728930E+00  0.93800000000E+00 0.  1.
         22    1    1    2    0    0  0.30228903398E+00  0.11322788145E+00  0.17534177810E+01  0.17828833747E+01  0.00000000000E+00 0.  1.
</event>
<event>
 5    1  0.2111786E+001  0.1520547E+01  0.7818608E-02  0.3444387E+00
         11   -1    0    0    0    0  0.00000000000E+00  0.00000000000E+00  0.39999999674E+01  0.40000000000E+01  0.51100000000E-03 0. -1.
    9000002   -1    0    0    0    0 -0.00000000000E+00 -0.00000000000E+00  0.00000000000E+00  0.93800000000E+00  0.93800000000E+00 0.  1.
         11    1    1    2    0    0 -0.33538112904E-01  0.43992249013E+00  0.14311919490E+01  0.14976539181E+01  0.51100000000E-03 0. -1.
    9000002    1    1    2    0    0  0.22203040201E+00 -0.30582656255E+00  0.16405522275E+00  0.10244928023E+01  0.93800000000E+00 0.  1.
         22    1    1    2    0    0 -0.18849228911E+00 -0.13409592758E+00  0.24047527956E+01  0.24158532796E+01  0.00000000000E+00 0. -1.
</event>
<event>
 5    1  0.2111786E+001  0.1565568E+01  0.7818608E-02  0.3391604E+00
         11   -1    0    0    0    0  0.00000000000E+00  0.00000000000E+00  0.39999999674E+01  0.40000000000E+01  0.51100000000E-03 0.  1.
    9000002   -1    0    0    0    0 -0.00000000000E+00 -0.00000000000E+00  0.00000000000E+00  0.93800000000E+00  0.93800000000E+00 0.  1.
         11    1    1    2    0    0 -0.42238348884E-01 -0.57724352950E+00  0.30601559454E+01  0.31144098706E+01  0.51100000000E-03 0.  1.
    9000002    1    1    2    0    0 -0.14270655616E+00  0.66146105708E+00  0.36336683754E+00  0.12123429176E+01  0.93800000000E+00 0.  1.
         22    1    1    2    0    0  0.18494490504E+00 -0.84217527582E-01  0.57647718441E+00  0.61124721185E+00  0.00000000000E+00 0.  1.
</event>
<event>
 5    1  0.2111786E+001  0.1545632E+01  0.7818608E-02  0.3414572E+00
         11   -1    0    0    0    0  0.00000000000E+00  0.00000000000E+00  0.39999999674E+01  0.40000000000E+01  0.51100000000E-03 0.  1.
    9000002   -1    0    0    0    0 -0.00000000000E+00 -0.00000000000E+00  0.00000000000E+00  0.93800000000E+00  0.93800000000E+00 0.  1.
         11    1    1    2    0    0 -0.12705089244E+00 -0.19897586018E+00  0.11847995827E+01  0.12080909049E+01  0.51100000000E-03 0.  1.
    9000002    1    1    2    0    0 -0.31431947926E+00  0.22773041201E+00  0.14750749598E+00  0.10257974152E+01  0.93800000000E+00 0.  1.
         22    1    1    2    0    0  0.44137037170E+00 -0.28754551832E-01  0.26676928886E+01  0.27041116799E+01  0.00000000000E+00 0.  1.
</event>
<event>
 5    1  0.2111786E+001  0.1554058E+01  0.7818608E-02  0.3404788E+00
         11   -1    0    0    0    0  0.00000000000E+00  0.00000000000E+00  0.39999999674E+01  0.40000000000E+01  0.51100000000E-03 0.  1.
    9000002   -1    0    0    0    0 -0.00000000000E+00 -0.00000000000E+00  0.00000000000E+00  0.93800000000E+00  0.93800000000E+00 0. -1.
         11    1    1    2    0    0 -0.22937243432E+00 -0.51082541688E-01  0.18159868080E+01  0.18311279277E+01  0.51100000000E-03 0.  1.
    9000002    1    1    2    0    0 -0.14073997394E-01 -0.10641532055E+00  0.41717098342E-01  0.94504318110E+00  0.93800000000E+00 0. -1.
         22    1    1    2    0    0  0.24344643171E+00  0.15749786224E+00  0.21422960610E+01  0.21618288912E+01  0.00000000000E+00 0.  1.
</event>
<event>
 5    1  0.2111786E+001  0.1420469E+01  0.7818608E-02  0.3574689E+00
         11   -1    0    0    0    0  0.00000000000E+00  0.00000000000E+00  0.39999999674E+01  0.40000000000E+01  0.51100000000E-03 0. -1.
    9000002   -1    0    0    0    0 -0.00000000000E+00 -0.00000000000E+00  0.00000000000E+00  0.93800000000E+00  0.93800000000E+00 0.  1.
         11    1    1    2    0    0  0.46721057316E+00  0.25677737390E-02  0.35661828742E+01  0.35966585696E+01  0.51100000000E-03 0. -1.
    9000002    1    1    2    0    0 -0.21509868016E+00 -0.59423022600E-01  0.18337890168E+00  0.98146337650E+00  0.93800000000E+00 0.  1.
         22    1    1    2    0    0 -0.25211189300E+00  0.56855248861E-01  0.25043819152E+00  0.35987805391E+00  0.00000000000E+00 0. -1.
</event>
<event>
 5    1  0.2111786E+001  0.1596285E+01  0.7818608E-02  0.3357405E+00
         11   -1    0    0    0    0  0.00000000000E+00  0.00000000000E+00  0.39999999674E+01  0.40000000000E+01  0.51100000000E-03 0.  1.
    9000002   -1    0    0    0    0 -0.00000000000E+00 -0.00000000000E+00  0.00000000000E+00  0.93800000000E+00  0.93800000000E+00 0. -1.
         11    1    1    2    0    0 -0.17263397759E+00 -0.33532749065E-02  0.24220836821E+01  0.24282304996E+01  0.51100000000E-03 0.  1.
    9000002    1    1    2    0    0  0.38522479684E+00  0.28694765076E-01  0.10328021408E+00  0.10196726613E+01  0.93800000000E+00 0. -1.
         22    1    1    2    0    0 -0.21259081925E+00 -0.25341490169E-01  0.14746360712E+01  0.14900968391E+01  0.00000000000E+00 0.  1.
</event>
<event>
 5    1  0.2111786E+001  0.1561166E+01  0.7818608E-02  0.3396621E+00
         11   -1    0    0    0    0  0.00000000000E+00  0.00000000000E+00  0.39999999674E+01  0.40000000000E+01  0.51100000000E-03 0.  1.
    9000002   -1    0    0    0    0 -0.00000000000E+00 -0.00000000000E+00  0.00000000000E+00  0.93800000000E+00  0.93800000000E+00 0. -1.
         11    1    1    2    0    0  0.17955968626E+00 -0.16734314354E+00  0.17547547903E+01  0.17718380410E+01  0.51100000000E-03 0.  1.
    9000002    1    1    2    0    0 -0.46014509945E-01 -0.11119157949E-01  0.29939449218E-01  0.93967086867E+00  0.93800000000E+00 0. -1.
         22    1    1    2    0    0 -0.13354517631E+00  0.17846230149E+00  0.22153057279E+01  0.22264910903E+01  0.00000000000E+00 0. -1.
</event>
<event>
 5    1  0.2111786E+001  0.1561623E+01  0.7818608E-02  0.3396100E+00
         11   -1    0    0    0    0  0.00000000000E+00  0.00000000000E+00  0.39999999674E+01  0.40000000000E+01  0.51100000000E-03 0. -1.
    9000002   -1    0    0    0    0 -0.00000000000E+00 -0.00000000000E+00  0.00000000000E+00  0.93800000000E+00  0.93800000000E+00 0. -1.
         11    1    1    2    0    0  0.10095860350E+00  0.24289185010E+00  0.23721144118E+01  0.23866537525E+01  0.51100000000E-03 0. -1.
    9000002    1    1    2    0    0  0.10183415464E-01 -0.65395424903E-01  0.31058236804E-01  0.94084476808E+00  0.93800000000E+00 0. -1.
         22    1    1    2    0    0 -0.11114201897E+00 -0.17749642519E+00  0.15968273188E+01  0.16105014794E+01  0.00000000000E+00 0.  1.
</event>
<event>
 5    1  0.2111786E+001  0.1516048E+01  0.7818608E-02  0.3449846E+00
         11   -1    0    0    0    0  0.00000000000E+00  0.00000000000E+00  0.39999999674E+01  0.40000000000E+01  0.51100000000E-03 0. -1.
    9000002   -1    0    0    0    0 -0.00000000000E+00 -0.00000000000E+00  0.00000000000E+00  0.93800000000E+00  0.93800000000E+00 0.  1.
         11    1    1    2    0    0  0.42538949322E+00  0.53973372529E-01  0.19038402053E+01  0.19515319968E+01  0.51100000000E-03 0. -1.
    9000002    1    1    2    0    0 -0.22461904555E+00  0.19169423931E+00  0.12657932223E+00  0.99149721221E+00  0.93800000000E+00 0.  1.
         22    1    1    2    0    0 -0.20077044767E+00 -0.24566761184E+00  0.19695804398E+01  0.19949707910E+01  0.00000000000E+00 0. -1.
</event>
<event>
 5    1  0.4521667E+001  0.1570102E+01  0.7818608E-02  0.3386467E+00
         11   -1    0    0    0    0  0.00000000000E+00  0.00000000000E+00  0.39999999674E+01  0.40000000000E+01  0.51100000000E-03 0. -1.
    9000002   -1    0    0    0    0 -0.00000000000E+00 -0.00000000000E+00  0.00000000000E+00  0.93800000000E+00  0.93800000000E+00 0. -1.
         11    1    1    2    0    0  0.18702160633E+00 -0.87213875210E-01  0.19717008354E+01  0.19824701225E+01  0.51100000000E-03 0. -1.
    9000002    1    1    2    0    0  0.10296803318E-01  0.20956153976E-01  0.22088507264E-01  0.93855052432E+00  0.93800000000E+00 0. -1.
         22    1    1    2    0    0 -0.19731840965E+00  0.66257721234E-01  0.20062106247E+01  0.20169793532E+01  0.00000000000E+00 0. -1.
</event>
<event>
 5    1  0.2111786E+001  0.1519744E+01  0.7818608E-02  0.3445358E+00
         11   -1    0    0    0    0  0.00000000000E+00  0.00000000000E+00  0.39999999674E+01  0.40000000000E+01  0.51100000000E-03 0.  1.
    9000002   -1    0    0    0    0 -0.00000000000E+00 -0.00000000000E+00  0.00000000000E+00  0.93800000000E+00  0.93800000000E+00 0.  1.
         11    1    1    2    0    0  0.13871047261E+00  0.24822233411E+00  0.29307229335E+01  0.29444850308E+01  0.51100000000E-03 0.  1.
    9000002    1    1    2    0    0 -0.18668495277E+00  0.64907151857E-01  0.88297615928E-01  0.96265501553E+00  0.93800000000E+00 0.  1.
         22    1    1    2    0    0  0.47974480165E-01 -0.31312948597E+00  0.98097941792E+00  0.10308599537E+01  0.00000000000E+00 0. -1.
</event>
<event>
 5    1  0.2111786E+001  0.1517889E+01  0.7818608E-02  0.3447608E+00
         11   -1    0    0    0    0  0.00000000000E+00  0.00000000000E+00  0.39999999674E+01  0.40000000000E+01  0.51100000000E-03 0.  1.
    9000002   -1    0    0    0    0 -0.00000000000E+00 -0.00000000000E+00  0.00000000000E+00  0.93800000000E+00  0.93800000000E+00 0. -1.
         11    1    1    2    0    0  0.80369400051E-01  0.16240964344E+00  0.27188135293E+00  0.32673515871E+00  0.51100000000E-03 0.  1.
    9000002    1    1    2    0    0 -0.72429110590E-01  0.43536445271E-01  0.66816159407E-01  0.94416619156E+00  0.93800000000E+00 0. -1.
         22    1    1    2    0    0 -0.79402894612E-02 -0.20594608872E+00  0.36613024550E+01  0.36670986497E+01  0.00000000000E+00 0.  1.
</event>
<event>
 5    1  0.2111786E+001  0.1461356E+01  0.7818608E-02  0.3519111E+00
         11   -1    0    0    0    0  0.00000000000E+00  0.00000000000E+00  0.39999999674E+01  0.40000000000E+01  0.51100000000E-03 0. -1.
    9000002   -1    0    0    0    0 -0.00000000000E+00 -0.00000000000E+00  0.00000000000E+00  0.93800000000E+00  0.93800000000E+00 0. -1.
         11    1    1    2    0    0  0.33677658245E+00  0.46413640347E+00  0.19210131697E+01  0.20047775255E+01  0.51100000000E-03 0. -1.
    9000002    1    1    2    0    0 -0.67943601306E-01 -0.26634170643E+00  0.16612442978E+00  0.99146132739E+00  0.93800000000E+00 0. -1.
         22    1    1    2    0    0 -0.26883298115E+00 -0.19779469704E+00  0.19128623678E+01  0.19417611471E+01  0.00000000000E+00 0. -1.
</event>
<event>
 5    1  0.2111786E+001  0.1564918E+01  0.7818608E-02  0.3392343E+00
         11   -1    0    0    0    0  0.00000000000E+00  0.00000000000E+00  0.39999999674E+01  0.40000000000E+01  0.51100000000E-03 0. -1.
    9000002   -1    0    0    0    0 -0.00000000000E+00 -0.00000000000E+00  0.00000000000E+00  0.93800000000E+00  0.93800000000E+00 0.  1.
         11    1    1    2    0    0  0.48332213525E-01 -0.51804215387E+00  0.93576142377E+00  0.10706789338E+01  0.51100000000E-03 0. -1.
    9000002    1    1    2    0    0 -0.18331348852E+00 -0.11738400393E+00  0.27212986915E+00  0.10006405474E+01  0.93800000000E+00 0.  1.
         22    1    1    2    0    0  0.13498127500E+00  0.63542615780E+00  0.27921086744E+01  0.28666805187E+01  0.00000000000E+00 0. -1.
</event>
<event>
 5    1  0.2111786E+001  0.1584911E+01  0.7818608E-02  0.3369905E+00
         11   -1    0    0    0    0  0.00000000000E+00  0.00000000000E+00  0.39999999674E+01  0.40000000000E+01  0.51100000000E-03 0.  1.
    9000002   -1    0    0    0    0 -0.00000000000E+00 -0.00000000000E+00  0.00000000000E+00  0.93800000000E+00  0.93800000000E+00 0. -1.
         11    1    1    2    0    0  0.28310274259E-01 -0.57604936584E-01  0.17778888683E+01  0.17790471859E+01  0.51100000000E-03 0.  1.
    9000002    1    1    2    0    0  0.18792211493E-01 -0.18563015266E+00  0.34125639524E-01  0.95698498424E+00  0.93800000000E+00 0. -1.
         22    1    1    2    0    0 -0.47102485752E-01  0.24323508924E+00  0.21879854595E+01  0.22019678299E+01  0.00000000000E+00 0.  1.
</event>
<event>
 5    1  0.2111786E+001  0.1508353E+01  0.7818608E-02  0.3459264E+00
         11   -1    0    0    0    0  0.00000000000E+00  0.00000000000E+00  0.39999999674E+01  0.40000000000E+01  0.51100000000E-03 0. -1.
    9000002   -1    0    0    0    0 -0.00000000000E+00 -0.00000000000E+00  0.00000000000E+00  0.93800000000E+00  0.93800000000E+00 0.  1.
         11    1    1    2    0    0  0.38690315356E+00  0.11837660575E+00  0.10189652555E+01  0.10963564767E+01  0.51100000000E-03 0. -1.
    9000002    1    1    2    0    0 -0.23969240671E+00 -0.28303210842E+00  0.17113785061E+00  0.10230795610E+01  0.93800000000E+00 0.  1.
         22    1    1    2    0    0 -0.14721074685E+00  0.16465550267E+00  0.28098968613E+01  0.28185639623E+01  0.00000000000E+00 0. -1.
</event>
<event>
 5    1  0.2111786E+001  0.1557172E+01  0.7818608E-02  0.3401201E+00
         11   -1    0    0    0    0  0.00000000000E+00  0.00000000000E+00  0.39999999674E+01  0.40000000000E+01  0.51100000000E-03 0. -1.
    9000002   -1    0    0    0    0 -0.00000000000E+00 -0.00000000000E+00  0.00000000000E+00  0.93800000000E+00  0.93800000000E+00 0.  1.
         11    1    1    2    0    0  0.22936564003E+00 -0.15950258338E+00  0.17270186626E+01  0.17494694605E+01  0.51100000000E-03 0. -1.
    9000002    1    1    2    0    0 -0.42583854443E-01  0.74388307416E-01  0.36463808551E-01  0.94261371424E+00  0.93800000000E+00 0.  1.
         22    1    1    2    0    0 -0.18678178559E+00  0.85114275965E-01  0.22365174962E+01  0.22459168253E+01  0.00000000000E+00 0. -1.
</event>
<event>
 5    1  0.2111786E+001  0.1542776E+01  0.7818608E-02  0.3417914E+00
         11   -1    0    0    0    0  0.00000000000E+00  0.00000000000E+00  0.39999999674E+01  0.40000000000E+01  0.51100000000E-03 0.  1.
    9000002   -1    0    0    0    0 -0.00000000000E+00 -0.00000000000E+00  0.00000000000E+00  0.93800000000E+00  0.93800000000E+00 0. -1.
         11    1    1    2    0    0 -0.26310617067E+00  0.11038084053E+00  0.12675482007E+01  0.12992642107E+01  0.51100000000E-03 0.  1.
    9000002    1    1    2    0    0  0.26528861420E-01 -0.77984603418E-01  0.47098803312E-01  0.94278718496E+00  0.93800000000E+00 0. -1.
         22    1    1    2    0    0  0.23657730925E+00 -0.32396237116E-01  0.26853529633E+01  0.26959486043E+01  0.00000000000E+00 0.  1.
</event>
<event>
 5    1  0.2111786E+001  0.1529384E+01  0.7818608E-02  0.3433764E+00
         11   -1    0    0    0    0  0.00000000000E+00  0.00000000000E+00  0.39999999674E+01  0.40000000000E+01  0.51100000000E-03 0.  1.
    9000002   -1    0    0    0    0 -0.00000000000E+00 -0.00000000000E+00  0.00000000000E+00  0.93800000000E+00  0.93800000000E+00 0. -1.
         11    1    1    2    0    0 -0.14220206550E+00  0.12049652272E+00  0.26923228730E+01  0.26987670431E+01  0.51100000000E-03 0.  1.
    9000002    1    1    2    0    0 -0.14314227674E+00  0.81060243857E-01  0.71901434429E-01  0.95502580635E+00  0.93800000000E+00 0. -1.
         22    1    1    2    0    0  0.28534434223E+00 -0.20155676657E+00  0.12357756599E+01  0.12842071505E+01  0.00000000000E+00 0.  1.
</event>
<event>
 5    1  0.2111786E+001  0.1571928E+01  0.7818608E-02  0.3384407E+00
         11   -1    0    0    0    0  0.00000000000E+00  0.00000000000E+00  0.39999999674E+01  0.40000000000E+01  0.51100000000E-03 0. -1.
    9000002   -1    0    0    0    0 -0.00000000000E+00 -0.00000000000E+00  0.00000000000E+00  0.93800000000E+00  0.93800000000E+00 0. -1.
         11    1    1    2    0    0 -0.17594165220E-01  0.71929553121E-01  0.16158740434E+00  0.17774747712E+00  0.51100000000E-03 0. -1.
    9000002    1    1    2    0    0 -0.61341656624E-01  0.15363320743E+00  0.38939396515E-01  0.95327133486E+00  0.93800000000E+00 0. -1.
         22    1    1    2    0    0  0.78935821844E-01 -0.22556276055E+00  0.37994731665E+01  0.38069811880E+01  0.00000000000E+00 0. -1.
</event>
<event>
 5    1  0.2111786E+001  0.1477051E+01  0.7818608E-02  0.3498666E+00
         11   -1    0    0    0    0  0.00000000000E+00  0.00000000000E+00  0.39999999674E+01  0.40000000000E+01  0.51100000000E-03 0. -1.
    9000002   -1    0    0    0    0 -0.00000000000E+00 -0.00000000000E+00  0.00000000000E+00  0.93800000000E+00  0.93800000000E+00 0. -1.
         11    1    1    2    0    0 -0.36601663497E+00 -0.14700537230E+00  0.35384498467E+01  0.35603660395E+01  0.51100000000E-03 0. -1.
    9000002    1    1    2    0    0  0.17547488438E+00  0.10323197985E-01  0.11787508353E+00  0.96158023003E+00  0.93800000000E+00 0. -1.
         22    1    1    2    0    0  0.19054175059E+00  0.13668217432E+00  0.34367503716E+00  0.41605373050E+00  0.00000000000E+00 0. -1.
</event>
<event>
 5    1  0.2111786E+001  0.1538643E+01  0.7818608E-02  0.3422775E+00
         11   -1    0    0    0    0  0.00000000000E+00  0.00000000000E+00  0.39999999674E+01  0.40000000000E+01  0.51100000000E-03 0. -1.
    9000002   -1    0    0    0    0 -0.00000000000E+00 -0.00000000000E+00  0.00000000000E+00  0.93800000000E+00  0.93800000000E+00 0. -1.
         11    1    1    2    0    0  0.29039670250E+00 -0.12559241409E+00  0.12518100747E+01  0.12911748230E+01  0.51100000000E-03 0. -1.
    9000002    1    1    2    0    0 -0.92612629944E-01  0.95383267780E-01  0.57939393633E-01  0.94914489954E+00  0.93800000000E+00 0. -1.
         22    1    1    2    0    0 -0.19778407255E+00  0.30209146307E-01  0.26902504990E+01  0.26976802775E+01  0.00000000000E+00 0. -1.
</event>
<event>
 5    1  0.2111786E+001  0.1556047E+01  0.7818608E-02  0.3402495E+00
         11   -1    0    0    0    0  0.00000000000E+00  0.00000000000E+00  0.39999999674E+01  0.40000000000E+01  0.51100000000E-03 0. -1.
    9000002   -1    0    0    0    0 -0.00000000000E+00 -0.00000000000E+00  0.00000000000E+00  0.93800000000E+00  0.93800000000E+00 0.  1.
         11    1    1    2    0    0 -0.10548891088E+00  0.20147944561E+00  0.19767646481E+01  0.19898041644E+01  0.51100000000E-03 0. -1.
    9000002    1    1    2    0    0 -0.99143596059E-01 -0.71847560739E-02  0.39065066894E-01  0.94406098998E+00  0.93800000000E+00 0.  1.
         22    1    1    2    0    0  0.20463250694E+00 -0.19429468954E+00  0.19841702523E+01  0.20041348456E+01  0.00000000000E+00 0. -1.
</event>
<event>
 5    1  0.2111786E+001  0.1588358E+01  0.7818608E-02  0.3366097E+00
         11   -1    0    0    0    0  0.00000000000E+00  0.00000000000E+00  0.39999999674E+01  0.40000000000E+01  0.51100000000E-03 0.  1.
    9000002   -1    0    0    0    0 -0.00000000000E+00 -0.00000000000E+00  0.00000000000E+00  0.93800000000E+00  0.93800000000E+00 0.  1.
         11    1    1    2    0    0  0.11508223078E+00 -0.41665370167E-01  0.19245784376E+01  0.19284663198E+01  0.51100000000E-03 0.  1.
    9000002    1    1    2    0    0 -0.19669749693E+00 -0.17413827624E+00  0.54641194643E-01  0.97562477659E+00  0.93800000000E+00 0.  1.
         22    1    1    2    0    0  0.81615266151E-01  0.21580364641E+00  0.20207803351E+01  0.20339089036E+01  0.00000000000E+00 0.  1.
</event>
<event>
 5    1  0.2111786E+001  0.1409830E+01  0.7818608E-02  0.3591248E+00
         11   -1    0    0    0    0  0.00000000000E+00  0.00000000000E+00  0.39999999674E+01  0.40000000000E+01  0.51100000000E-03 0. -1.
    9000002   -1    0    0    0    0 -0.00000000000E+00 -0.00000000000E+00  0.00000000000E+00  0.93800000000E+00  0.93800000000E+00 0.  1.
         11    1    1    2    0    0  0.34679621079E+00 -0.19229770313E+00  0.34649554650E+01  0.34875726020E+01  0.51100000000E-03 0. -1.
    9000002    1    1    2    0    0 -0.40311476594E-01  0.94731465278E-01  0.16126849540E+00  0.95731426045E+00  0.93800000000E+00 0.  1.
         22    1    1    2    0    0 -0.30648473420E+00  0.97566237855E-01  0.37377600694E+00  0.49311313755E+00  0.00000000000E+00 0.  1.
</event>
<event>
 5    1  0.2111786E+001  0.1546763E+01  0.7818608E-02  0.3413253E+00
         11   -1    0    0    0    0  0.00000000000E+00  0.00000000000E+00  0.39999999674E+01  0.40000000000E+01  0.51100000000E-03 0. -1.
    9000002   -1    0    0    0    0 -0.00000000000E+00 -0.00000000000E+00  0.00000000000E+00  0.93800000000E+00  0.93800000000E+00 0.  1.
         11    1    1    2    0    0  0.27303591912E+00 -0.67591766317E-01  0.30078457546E+01  0.30209689844E+01  0.51100000000E-03 0. -1.
    9000002    1    1    2    0    0 -0.50217507969E-01  0.47413695633E-01  0.42629952011E-01  0.94150473682E+00  0.93800000000E+00 0.  1.
         22    1    1    2    0    0 -0.22281841115E+00  0.20178070684E-01  0.94952426074E+00  0.97552627879E+00  0.00000000000E+00 0. -1.
</event>
<event>
 5    1  0.2111786E+001  0.1567750E+01  0.7818608E-02  0.3389128E+00
         11   -1    0    0    0    0  0.00000000000E+00  0.00000000000E+00  0.39999999674E+01  0.40000000000E+01  0.51100000000E-03 0. -1.
    9000002   -1    0    0    0    0 -0.00000000000E+00 -0.00000000000E+00  0.00000000000E+00  0.93800000000E+00  0.93800000000E+00 0.  1.
         11    1    1    2    0    0 -0.13731882814E+00 -0.39782685840E-01  0.16334311215E+01  0.16396757644E+01  0.51100000000E-03 0. -1.
    9000002    1    1    2    0    0 -0.18007110847E+00  0.86957466903E-01  0.50791740895E-01  0.96042230612E+00  0.93800000000E+00 0.  1.
         22    1    1    2    0    0  0.31738993661E+00 -0.47174781063E-01  0.23157771050E+01  0.23379019295E+01  0.00000000000E+00 0. -1.
</event>
<event>
 5    1  0.2111786E+001  0.1496849E+01  0.7818608E-02  0.3473538E+00
         11   -1    0    0    0    0  0.00000000000E+00  0.00000000000E+00  0.39999999674E+01  0.40000000000E+01  0.51100000000E-03 0.  1.
    9000002   -1    0    0    0    0 -0.00000000000E+00 -0.00000000000E+00  0.00000000000E+00  0.93800000000E+00  0.93800000000E+00 0. -1.
         11    1    1    2    0    0 -0.38446043402E+00 -0.35558264999E+00  0.19059989303E+01  0.19766337621E+01  0.51100000000E-03 0.  1.
    9000002    1    1    2    0    0  0.21410947283E+00  0.17736583943E+00  0.13581340252E+00  0.98771999456E+00  0.93800000000E+00 0. -1.
         22    1    1    2    0    0  0.17035096118E+00  0.17821681056E+00  0.19581876346E+01  0.19736462433E+01  0.00000000000E+00 0. -1.
</event>
<event>
 5    1  0.2111786E+001  0.1552100E+01  0.7818608E-02  0.3407051E+00
         11   -1    0    0    0    0  0.00000000000E+00  0.00000000000E+00  0.39999999674E+01  0.40000000000E+01  0.51100000000E-03 0.  1.
    9000002   -1    0    0    0    0 -0.00000000000E+00 -0.00000000000E+00  0.00000000000E+00  0.93800000000E+00  0.93800000000E+00 0.  1.
         11    1    1    2    0    0 -0.22839202695E+00  0.12322131309E+00  0.26504484872E+01  0.26631229514E+01  0.51100000000E-03 0.  1.
    9000002    1    1    2    0    0  0.12282875378E+00  0.11294495904E+00  0.54545147714E-01  0.95428645577E+00  0.93800000000E+00 0.  1.
         22    1    1    2    0    0  0.10556327317E+00 -0.23616627213E+00  0.12950063325E+01  0.13205905929E+01  0.00000000000E+00 0.  1.
</event>
<event>
 5    1  0.2111786E+001  0.1598173E+01  0.7818608E-02  0.3355349E+00
         11   -1    0    0    0    0  0.00000000000E+00  0.00000000000E+00  0.39999999674E+01  0.40000000000E+01  0.51100000000E-03 0. -1.
    9000002   -1    0    0    0    0 -0.00000000000E+00 -0.00000000000E+00  0.00000000000E+00  0.93800000000E+00  0.93800000000E+00 0. -1.
         11    1    1    2    0    0 -0.22755172128E+00 -0.45611897797E+00  0.17591859486E+01  0.18315457326E+01  0.51100000000E-03 0. -1.
    9000002    1    1    2    0    0  0.34166928366E+00  0.87018316422E+00  0.68210585485E+00  0.14896539987E+01  0.93800000000E+00 0. -1.
         22    1    1    2    0    0 -0.11411756239E+00 -0.41406418626E+00  0.15587081639E+01  0.16168002687E+01  0.00000000000E+00 0. -1.
</event>
<event>
 5    1  0.2111786E+001  0.1400177E+01  0.7818608E-02  0.3606590E+00
         11   -1    0    0    0    0  0.00000000000E+00  0.00000000000E+00  0.39999999674E+01  0.40000000000E+01  0.51100000000E-03 0. -1.
    9000002   -1    0    0    0    0 -0.00000000000E+00 -0.00000000000E+00  0.00000000000E+00  0.93800000000E+00  0.93800000000E+00 0. -1.
         11    1    1    2    0    0 -0.36262757348E+00  0.10153057753E+01  0.26485752538E+01  0.28595971238E+01  0.51100000000E-03 0. -1.
    9000002    1    1    2    0    0  0.15356097206E+00 -0.83582529496E+00  0.91322206585E+00  0.15607701424E+01  0.93800000000E+00 0. -1.
         22    1    1    2    0    0  0.20906660142E+00 -0.17948048030E+00  0.43820264770E+00  0.51763273379E+00  0.00000000000E+00 0. -1.
</event>
<event>
 5    1  0.2111786E+001  0.1505700E+01  0.7818608E-02  0.3462535E+00
         11   -1    0    0    0    0  0.00000000000E+00  0.00000000000E+00  0.39999999674E+01  0.40000000000E+01  0.51100000000E-03 0. -1.
    9000002   -1    0    0    0    0 -0.00000000000E+00 -0.00000000000E+00  0.00000000000E+00  0.93800000000E+00  0.93800000000E+00 0. -1.
         11    1    1    2    0    0  0.31109208370E+00  0.53134280305E-01  0.79488700043E+00  0.85524683037E+00  0.51100000000E-03 0. -1.
    9000002    1    1    2    0    0 -0.71267918391E-01 -0.38827052403E-01  0.76148683596E-01  0.94457888935E+00  0.93800000000E+00 0. -1.
         22    1    1    2    0    0 -0.23982416531E+00 -0.14307227902E-01  0.31289642833E+01  0.31381742803E+01  0.00000000000E+00 0. -1.
</event>
<event>
 5    1  0.2111786E+001  0.1559209E+01  0.7818608E-02  0.3398863E+00
         11   -1    0    0    0    0  0.00000000000E+00  0.00000000000E+00  0.39999999674E+01  0.40000000000E+01  0.51100000000E-03 0. -1.
    9000002   -1    0    0    0    0 -0.00000000000E+00 -0.00000000000E+00  0.00000000000E+00  0.93800000000E+00  0.93800000000E+00 0.  1.
         11    1    1    2    0    0 -0.24614130875E-01 -0.12367421028E+00  0.34062118067E+00  0.36321373262E+00  0.51100000000E-03 0. -1.
    9000002    1    1    2    0    0 -0.66780768157E-01 -0.11782758913E+00  0.42476813480E-01  0.94867870823E+00  0.93800000000E+00 0.  1.
         22    1    1    2    0    0  0.91394899032E-01  0.24150179942E+00  0.36169019732E+01  0.36261075592E+01  0.00000000000E+00 0. -1.
</event>
<event>
 5    1  0.2111786E+001  0.1574461E+01  0.7818608E-02  0.3381557E+00
         11   -1    0    0    0    0  0.00000000000E+00  0.00000000000E+00  0.39999999674E+01  0.40000000000E+01  0.51100000000E-03 0. -1.
    9000002   -1    0    0    0    0 -0.00000000000E+00 -0.00000000000E+00  0.00000000000E+00  0.93800000000E+00  0.93800000000E+00 0. -1.
         11    1    1    2    0    0 -0.11507725902E+00  0.12385790209E+00  0.18798725937E+01  0.18874598764E+01  0.51100000000E-03 0. -1.
    9000002    1    1    2    0    0 -0.31584038173E-01  0.33393586476E-01  0.19902681213E-01  0.93933636138E+00  0.93800000000E+00 0. -1.
         22    1    1    2    0    0  0.14666129719E+00 -0.15725148857E+00  0.21002246924E+01  0.21112037622E+01  0.00000000000E+00 0. -1.
</event>
<event>
 5    1  0.2111786E+001  0.1563439E+01  0.7818608E-02  0.3394027E+00
         11   -1    0    0    0    0  0.00000000000E+00  0.00000000000E+00  0.39999999674E+01  0.40000000000E+01  0.51100000000E-03 0. -1.
    9000002   -1    0    0    0    0 -0.00000000000E+00 -0.00000000000E+00  0.00000000000E+00  0.93800000000E+00  0.93800000000E+00 0.  1.
         11    1    1    2    0    0  0.14883444728E+00  0.53449215595E-01  0.66331309330E+00  0.68190397580E+00  0.51100000000E-03 0. -1.
    9000002    1    1    2    0    0  0.49876074140E-01  0.91122102095E-01  0.34069791965E-01  0.94434930560E+00  0.93800000000E+00 0.  1.
         22    1    1    2    0    0 -0.19871052142E+00 -0.14457131769E+00  0.33026170821E+01  0.33117467186E+01  0.00000000000E+00 0. -1.
</event>
<event>
 5    1  0.2111786E+001  0.1570668E+01  0.7818608E-02  0.3385828E+00
         11   -1    0    0    0    0  0.00000000000E+00  0.00000000000E+00  0.39999999674E+01  0.40000000000E+01  0.51100000000E-03 0. -1.
    9000002   -1    0    0    0    0 -0.00000000000E+00 -0.00000000000E+00  0.00000000000E+00  0.93800000000E+00  0.93800000000E+00 0.  1.
         11    1    1    2    0    0  0.13092235971E+00 -0.15041955624E+00  0.15023329229E+01  0.15155102043E+01  0.51100000000E-03 0. -1.
    9000002    1    1    2    0    0 -0.18958379880E+00 -0.10440086755E+00  0.53239452980E-01  0.96411617416E+00  0.93800000000E+00 0.  1.
         22    1    1    2    0    0  0.58661439093E-01  0.25482042379E+00  0.24444275915E+01  0.24583736215E+01  0.00000000000E+00 0. -1.
</event>
<event>
 5    1  0.2111786E+001  0.1532430E+01  0.7818608E-02  0.3430133E+00
         11   -1    0    0    0    0  0.00000000000E+00  0.00000000000E+00  0.39999999674E+01  0.40000000000E+01  0.51100000000E-03 0. -1.
    9000002   -1    0    0    0    0 -0.00000000000E+00 -0.00000000000E+00  0.00000000000E+00  0.93800000000E+00  0.93800000000E+00 0. -1.
         11    1    1    2    0    0 -0.13866053687E+00  0.15384456785E+00  0.60883825712E+00  0.64310122065E+00  0.51100000000E-03 0. -1.
    9000002    1    1    2    0    0 -0.21975123745E+00 -0.36992526081E-01  0.85588502424E-01  0.96789898496E+00  0.93800000000E+00 0. -1.
         22    1    1    2    0    0  0.35841177432E+00 -0.11685204177E+00  0.33055732078E+01  0.33269997944E+01  0.00000000000E+00 0. -1.
</event>
<event>
 5    1  0.2111786E+001  0.1518444E+01  0.7818608E-02  0.3446934E+00
         11   -1    0    0    0    0  0.00000000000E+00  0.00000000000E+00  0.39999999674E+01  0.40000000000E+01  0.51100000000E-03 0.  1.
    9000002   -1    0    0    0    0 -0.00000000000E+00 -0.00000000000E+00  0.00000000000E+00  0.93800000000E+00  0.93800000000E+00 0.  1.
         11    1    1    2    0    0 -0.34362579055E+00 -0.43634333789E+00  0.17268385205E+01  0.18139585799E+01  0.51100000000E-03 0.  1.
    9000002    1    1    2    0    0  0.14158766415E+00  0.50378618315E+00  0.26724420346E+00  0.11068473469E+01  0.93800000000E+00 0.  1.
         22    1    1    2    0    0  0.20203812640E+00 -0.67442845254E-01  0.20059172434E+01  0.20171940733E+01  0.00000000000E+00 0.  1.
</event>
<event>
 5    1  0.2111786E+001  0.1575223E+01  0.7818608E-02  0.3380702E+00
         11   -1    0    0    0    0  0.00000000000E+00  0.00000000000E+00  0.39999999674E+01  0.40000000000E+01  0.51100000000E-03 0. -1.
    9000002   -1    0    0    0    0 -0.00000000000E+00 -0.00000000000E+00  0.00000000000E+00  0.93800000000E+00  0.93800000000E+00 0.  1.
         11    1    1    2    0    0 -0.39254315644E-01 -0.14065352596E+00  0.12518481334E+01  0.12603365923E+01  0.51100000000E-03 0. -1.
    9000002    1    1    2    0    0  0.20722711563E-01 -0.98637779357E-01  0.24768445062E-01  0.94372470465E+00  0.93800000000E+00 0.  1.
         22    1    1    2    0    0  0.18531604081E-01  0.23929130531E+00  0.27233833889E+01  0.27339387030E+01  0.00000000000E+00 0. -1.
</event>
<event>
 5    1  0.2111786E+001  0.1549017E+01  0.7818608E-02  0.3410628E+00
         11   -1    0    0    0    0  0.00000000000E+00  0.00000000000E+00  0.39999999674E+01  0.40000000000E+01  0.51100000000E-03 0.  1.
    9000002   -1    0    0    0    0 -0.00000000000E+00 -0.00000000000E+00  0.00000000000E+00  0.93800000000E+00  0.93800000000E+00 0.  1.
         11    1    1    2    0    0 -0.14929389873E+00  0.25199668380E+00  0.18313815721E+01  0.18546562270E+01  0.51100000000E-03 0.  1.
    9000002    1    1    2    0    0 -0.52528631028E-01 -0.97249554185E-01  0.46069034904E-01  0.94561254689E+00  0.93800000000E+00 0.  1.
         22    1    1    2    0    0  0.20182252976E+00 -0.15474712961E+00  0.21225493604E+01  0.21377312261E+01  0.00000000000E+00 0. -1.
</event>
<event>
 5    1  0.2111786E+001  0.1257198E+01  0.7818608E-02  0.3867250E+00
         11   -1    0    0    0    0  0.00000000000E+00  0.00000000000E+00  0.39999999674E+01  0.40000000000E+01  0.51100000000E-03 0. -1.
    9000002   -1    0    0    0    0 -0.00000000000E+00 -0.00000000000E+00  0.00000000000E+00  0.93800000000E+00  0.93800000000E+00 0. -1.
         11    1    1    2    0    0 -0.37132905383E+00 -0.85994521156E+00  0.13088459176E+01  0.16094933769E+01  0.51100000000E-03 0. -1.
    9000002    1    1    2    0    0  0.74979668376E-01  0.59314428133E+00  0.73759320520E+00  0.13346646865E+01  0.93800000000E+00 0. -1.
         22    1    1    2    0    0  0.29634938546E+00  0.26680093024E+00  0.19535608445E+01  0.19938419366E+01  0.00000000000E+00 0. -1.
</event>
<event>
 5    1  0.2111786E+001  0.1595809E+01  0.7818608E-02  0.3357925E+00
         11   -1    0    0    0    0  0.00000000000E+00  0.00000000000E+00  0.39999999674E+01  0.40000000000E+01  0.51100000000E-03 0.  1.
    9000002   -1    0    0    0    0 -0.00000000000E+00 -0.00000000000E+00  0.00000000000E+00  0.93800000000E+00  0.93800000000E+00 0. -1.
         11    1    1    2    0    0 -0.48610774877E-01  0.51528325526E-01  0.12023788009E+01  0.12044638715E+01  0.51100000000E-03 0.  1.
    9000002    1    1    2    0    0 -0.46011009197E-01 -0.26358034479E+00  0.50609410731E-01  0.97672766091E+00  0.93800000000E+00 0. -1.
         22    1    1    2    0    0  0.94621784073E-01  0.21205201926E+00  0.27470117558E+01  0.27568084676E+01  0.00000000000E+00 0.  1.
</event>
<event>
 5    1  0.2111786E+001  0.1515323E+01  0.7818608E-02  0.3450728E+00
         11   -1    0    0    0    0  0.00000000000E+00  0.00000000000E+00  0.39999999674E+01  0.40000000000E+01  0.51100000000E-03 0.  1.
    9000002   -1    0    0    0    0 -0.00000000000E+00 -0.00000000000E+00  0.00000000000E+00  0.93800000000E+00  0.93800000000E+00 0.  1.
         11    1    1    2    0    0  0.16374168446E-02  0.34508776527E+00  0.13133011853E+01  0.13578838357E+01  0.51100000000E-03 0.  1.
    9000002    1    1    2    0    0 -0.29325523095E-01 -0.44128263530E-01  0.65743328382E-01  0.94179269225E+00  0.93800000000E+00 0.  1.
         22    1    1    2    0    0  0.27688106250E-01 -0.30095950174E+00  0.26209554537E+01  0.26383234720E+01  0.00000000000E+00 0.  1.
</event>
<event>
 5    1  0.2111786E+001  0.1548915E+01  0.7818608E-02  0.3410747E+00
         11   -1    0    0    0    0  0.00000000000E+00  0.00000000000E+00  0.39999999674E+01  0.40000000000E+01  0.51100000000E-03 0. -1.
    9000002   -1    0    0    0    0 -0.00000000000E+00 -0.00000000000E+00  0.00000000000E+00  0.93800000000E+00  0.93800000000E+00 0.  1.
         11    1    1    2    0    0 -0.17840841579E+00 -0.37909075812E-01  0.22900562627E+01  0.22973081222E+01  0.51100000000E-03 0. -1.
    9000002    1    1    2    0    0 -0.13034836524E+00  0.20783293937E+00  0.79735888264E-01  0.97282425899E+00  0.93800000000E+00 0.  1.
         22    1    1    2    0    0  0.30875678103E+00 -0.16992386356E+00  0.16302078164E+01  0.16678676188E+01  0.00000000000E+00 0. -1.
</event>
<event>
 5    1  0.2111786E+001  0.1573647E+01  0.7818608E-02  0.3382473E+00
         11   -1    0    0    0    0  0.00000000000E+00  0.00000000000E+00  0.39999999674E+01  0.40000000000E+01  0.51100000000E-03 0. -1.
    9000002   -1    0    0    0    0 -0.00000000000E+00 -0.00000000000E+00  0.00000000000E+00  0.93800000000E+00  0.93800000000E+00 0. -1.
         11    1    1    2    0    0 -0.14614455685E+00 -0.38601623087E-01  0.25146158498E+01  0.25191549079E+01  0.51100000000E-03 0. -1.
    9000002    1    1    2    0    0 -0.65044419782E-01  0.68336589032E-01  0.25097395620E-01  0.94306656457E+00  0.93800000000E+00 0. -1.
         22    1    1    2    0    0  0.21118897663E+00 -0.29734965945E-01  0.14602867220E+01  0.14757785276E+01  0.00000000000E+00 0. -1.
</event>
<event>
 5    1  0.2111786E+001  0.1579182E+01  0.7818608E-02  0.3376273E+00
         11   -1    0    0    0    0  0.00000000000E+00  0.00000000000E+00  0.39999999674E+01  0.40000000000E+01  0.51100000000E-03 0.  1.
    9000002   -1    0    0    0    0 -0.00000000000E+00 -0.00000000000E+00  0.00000000000E+00  0.93800000000E+00  0.93800000000E+00 0. -1.
         11    1    1    2    0    0  0.44631589248E-01 -0.12291828653E+00  0.11010528255E+01  0.11087914455E+01  0.51100000000E-03 0.  1.
    9000002    1    1    2    0    0  0.12328893206E+00 -0.34823539212E-01  0.26027884184E-01  0.94706614891E+00  0.93800000000E+00 0. -1.
         22    1    1    2    0    0 -0.16792052131E+00  0.15774182574E+00  0.28729192576E+01  0.28821424056E+01  0.00000000000E+00 0.  1.
</event>
<event>
 5    1  0.2111786E+001  0.1591955E+01  0.7818608E-02  0.3362142E+00
         11   -1    0    0    0    0  0.00000000000E+00  0.00000000000E+00  0.39999999674E+01  0.40000000000E+01  0.51100000000E-03 0.  1.
    9000002   -1    0    0    0    0 -0.00000000000E+00 -0.00000000000E+00  0.00000000000E+00  0.93800000000E+00  0.93800000000E+00 0. -1.
         11    1    1    2    0    0 -0.29909770184E-01 -0.64249519384E-01  0.61361045332E+00  0.61768976407E+00  0.51100000000E-03 0.  1.
    9000002    1    1    2    0    0  0.22247693301E+00 -0.78580263194E-01  0.42832351995E-01  0.96816809174E+00  0.93800000000E+00 0. -1.
         22    1    1    2    0    0 -0.19256716283E+00  0.14282978258E+00  0.33435571620E+01  0.33521421442E+01  0.00000000000E+00 0.  1.
</event>
<event>
 5    1  0.2111786E+001  0.1569769E+01  0.7818608E-02  0.3386843E+00
         11   -1    0    0    0    0  0.00000000000E+00  0.00000000000E+00  0.39999999674E+01  0.40000000000E+01  0.51100000000E-03 0. -1.
    9000002   -1    0    0    0    0 -0.00000000000E+00 -0.00000000000E+00  0.00000000000E+00  0.93800000000E+00  0.93800000000E+00 0.  1.
         11    1    1    2    0    0  0.89988393640E-01 -0.16837530746E+00  0.18533558319E+01  0.18631629709E+01  0.51100000000E-03 0. -1.
    9000002    1    1    2    0    0 -0.61539767523E-02 -0.43054504338E-01  0.23249035631E-01  0.93929552295E+00  0.93800000000E+00 0.  1.
         22    1    1    2    0    0 -0.83834416888E-01  0.21142981180E+00  0.21233950998E+01  0.21355415062E+01  0.00000000000E+00 0. -1.
</event>
<event>
 5    1  0.2111786E+001  0.1453683E+01  0.7818608E-02  0.3529281E+00
         11   -1    0    0    0    0  0.00000000000E+00  0.00000000000E+00  0.39999999674E+01  0.40000000000E+01  0.51100000000E-03 0. -1.
    9000002   -1    0    0    0    0 -0.00000000000E+00 -0.00000000000E+00  0.00000000000E+00  0.93800000000E+00  0.93800000000E+00 0. -1.
         11    1    1    2    0    0  0.14529307995E+00  0.46060611690E+00  0.11302805540E+01  0.12291470481E+01  0.51100000000E-03 0. -1.
    9000002    1    1    2    0    0 -0.16840823644E+00 -0.16191541436E+00  0.15661685579E+00  0.97926032036E+00  0.93800000000E+00 0. -1.
         22    1    1    2    0    0  0.23115156493E-01 -0.29869070254E+00  0.27131025576E+01  0.27295926315E+01  0.00000000000E+00 0. -1.
</event>
<event>
 5    1  0.2111786E+001  0.1544696E+01  0.7818608E-02  0.3415666E+00
         11   -1    0    0    0    0  0.00000000000E+00  0.00000000000E+00  0.39999999674E+01  0.40000000000E+01  0.51100000000E-03 0. -1.
    9000002   -1    0    0    0    0 -0.00000000000E+00 -0.00000000000E+00  0.00000000000E+00  0.93800000000E+00  0.93800000000E+00 0. -1.
         11    1    1    2    0    0 -0.73661173356E-01  0.28902513376E+00  0.19509543550E+01  0.19736222163E+01  0.51100000000E-03 0. -1.
    9000002    1    1    2    0    0  0.19493860638E+00 -0.15814011505E-01  0.67646568067E-01  0.96055775536E+00  0.93800000000E+00 0. -1.
         22    1    1    2    0    0 -0.12127743302E+00 -0.27321112226E+00  0.19813990443E+01  0.20038200283E+01  0.00000000000E+00 0. -1.
</event>
<event>
 5    1  0.2111786E+001  0.1555904E+01  0.7818608E-02  0.3402659E+00
         11   -1    0    0    0    0  0.00000000000E+00  0.00000000000E+00  0.39999999674E+01  0.40000000000E+01  0.51100000000E-03 0. -1.
    9000002   -1    0    0    0    0 -0.00000000000E+00 -0.00000000000E+00  0.00000000000E+00  0.93800000000E+00  0.93800000000E+00 0.  1.
         11    1    1    2    0    0  0.19078429820E+00 -0.68741584180E-01  0.39695226220E+00  0.44575263703E+00  0.51100000000E-03 0. -1.
    9000002    1    1    2    0    0 -0.51170174532E+00 -0.13549250829E+00  0.23449340577E+00  0.11022831094E+01  0.93800000000E+00 0.  1.
         22    1    1    2    0    0  0.32091744713E+00  0.20423409247E+00  0.33685542994E+01  0.33899642535E+01  0.00000000000E+00 0. -1.
</event>
<event>
 5    1  0.2111786E+001  0.1584573E+01  0.7818608E-02  0.3370279E+00
         11   -1    0    0    0    0  0.00000000000E+00  0.00000000000E+00  0.39999999674E+01  0.40000000000E+01  0.51100000000E-03 0. -1.
    9000002   -1    0    0    0    0 -0.00000000000E+00 -0.00000000000E+00  0.00000000000E+00  0.93800000000E+00  0.93800000000E+00 0. -1.
         11    1    1    2    0    0  0.40958454915E+00  0.44672261019E+00  0.22658519123E+01  0.23455075661E+01  0.51100000000E-03 0. -1.
    9000002    1    1    2    0    0 -0.41320700387E+00 -0.70006444833E+00  0.50921651852E+00  0.13416317388E+01  0.93800000000E+00 0. -1.
         22    1    1    2    0    0  0.36224547222E-02  0.25334183815E+00  0.12249315366E+01  0.12508606950E+01  0.00000000000E+00 0. -1.
</event>
<event>
 5    1  0.2111786E+001  0.1527676E+01  0.7818608E-02  0.3435807E+00
         11   -1    0    0    0    0  0.00000000000E+00  0.00000000000E+00  0.39999999674E+01  0.40000000000E+01  0.51100000000E-03 0.  1.
    9000002   -1    0    0    0    0 -0.00000000000E+00 -0.00000000000E+00  0.00000000000E+00  0.93800000000E+00  0.93800000000E+00 0. -1.
         11    1    1    2    0    0 -0.23123926642E+00  0.20174296786E+00  0.23404326586E+01  0.23604654444E+01  0.51100000000E-03 0.  1.
    9000002    1    1    2    0    0 -0.10716732179E+00 -0.14402476158E+00  0.76958030414E-01  0.95812029790E+00  0.93800000000E+00 0. -1.
         22    1    1    2    0    0  0.33840658821E+00 -0.57718206280E-01  0.15826092783E+01  0.16194142577E+01  0.00000000000E+00 0. -1.
</event>
<event>
 5    1  0.2111786E+001  0.1559648E+01  0.7818608E-02  0.3398359E+00
         11   -1    0    0    0    0  0.00000000000E+00  0.00000000000E+00  0.39999999674E+01  0.40000000000E+01  0.51100000000E-03 0.  1.
    9000002   -1    0    0    0    0 -0.00000000000E+00 -0.00000000000E+00  0.00000000000E+00  0.93800000000E+00  0.93800000000E+00 0.  1.
         11    1    1    2    0    0 -0.18943995282E+00  0.35233127586E-01  0.91211425168E+00  0.93224542812E+00  0.51100000000E-03 0.  1.
    9000002    1    1    2    0    0 -0.41938710769E-01  0.19457266726E-01  0.31013735560E-01  0.93965062256E+00  0.93800000000E+00 0.  1.
         22    1    1    2    0    0  0.23137866359E+00 -0.54690394312E-01  0.30568719801E+01  0.30661039493E+01  0.00000000000E+00 0.  1.
</event>
<event>
 5    1  0.2111786E+001  0.1535027E+01  0.7818608E-02  0.3427049E+00
         11   -1    0    0    0    0  0.00000000000E+00  0.00000000000E+00  0.39999999674E+01  0.40000000000E+01  0.51100000000E-03 0. -1.
    9000002   -1    0    0    0    0 -0.00000000000E+00 -0.00000000000E+00  0.00000000000E+00  0.93800000000E+00  0.93800000000E+00 0. -1.
         11    1    1    2    0    0  0.11788123881E+00 -0.26365302971E+00  0.17456970451E+01  0.17694257093E+01  0.51100000000E-03 0. -1.
    9000002    1    1    2    0    0  0.21854769514E+00  0.10961363153E+00  0.90717687748E-01  0.97357688044E+00  0.93800000000E+00 0. -1.
         22    1    1    2    0    0 -0.33642893394E+00  0.15403939818E+00  0.21635852345E+01  0.21949974102E+01  0.00000000000E+00 0. -1.
</event>
<event>
 5    1  0.2111786E+001  0.1533233E+01  0.7818608E-02  0.3429179E+00
         11   -1    0    0    0    0  0.00000000000E+00  0.00000000000E+00  0.39999999674E+01  0.40000000000E+01  0.51100000000E-03 0. -1.
    9000002   -1    0    0    0    0 -0.00000000000E+00 -0.00000000000E+00  0.00000000000E+00  0.93800000000E+00  0.93800000000E+00 0.  1.
         11    1    1    2    0    0 -0.42786738873E-01 -0.45216594688E+00  0.26808132333E+01  0.27190153735E+01  0.51100000000E-03 0. -1.
    9000002    1    1    2    0    0 -0.10411518759E+00  0.27409187966E+00  0.11107308018E+00  0.98901342758E+00  0.93800000000E+00 0.  1.
         22    1    1    2    0    0  0.14690192647E+00  0.17807406722E+00  0.12081136539E+01  0.12299711989E+01  0.00000000000E+00 0.  1.
</event>
<event>
 5    1  0.2111786E+001  0.1556898E+01  0.7818608E-02  0.3401516E+00
         11   -1    0    0    0    0  0.00000000000E+00  0.00000000000E+00  0.39999999674E+01  0.40000000000E+01  0.51100000000E-03 0. -1.
    9000002   -1    0    0    0    0 -0.00000000000E+00 -0.00000000000E+00  0.00000000000E+00  0.93800000000E+00  0.93800000000E+00 0.  1.
         11    1    1    2    0    0  0.11578519376E+00  0.34619584258E-01  0.21729090416E+00  0.24863693382E+00  0.51100000000E-03 0. -1.
    9000002    1    1    2    0    0 -0.17415598890E+00  0.30442249716E+00  0.11778327095E+00  0.10083254753E+01  0.93800000000E+00 0.  1.
         22    1    1    2    0    0  0.58370795146E-01 -0.33904208141E+00  0.36649257922E+01  0.36810375909E+01  0.00000000000E+00 0. -1.
</event>
<event>
 5    1  0.2111786E+001  0.1535728E+01  0.7818608E-02  0.3426219E+00
         11   -1    0    0    0    0  0.00000000000E+00  0.00000000000E+00  0.39999999674E+01  0.40000000000E+01  0.51100000000E-03 0.  1.
    9000002   -1    0    0    0    0 -0.00000000000E+00 -0.00000000000E+00  0.00000000000E+00  0.93800000000E+00  0.93800000000E+00 0. -1.
         11    1    1    2    0    0  0.21650348075E+00  0.36043952342E-01  0.34119688763E+01  0.34190210291E+01  0.51100000000E-03 0.  1.
    9000002    1    1    2    0    0 -0.31875946904E-01 -0.14715371311E+00  0.63751621257E-01  0.95214419102E+00  0.93800000000E+00 0. -1.
         22    1    1    2    0    0 -0.18462753385E+00  0.11110976077E+00  0.52427946980E+00  0.56683477985E+00  0.00000000000E+00 0.  1.
</event>
<event>
 5    1  0.2111786E+001  0.1541060E+01  0.7818608E-02  0.3419929E+00
         11   -1    0    0    0    0  0.00000000000E+00  0.00000000000E+00  0.39999999674E+01  0.40000000000E+01  0.51100000000E-03 0.  1.
    9000002   -1    0    0    0    0 -0.00000000000E+00 -0.00000000000E+00  0.00000000000E+00  0.93800000000E+00  0.93800000000E+00 0.  1.
         11    1    1    2    0    0 -0.27839081179E+00 -0.49751745828E-01  0.23750262907E+01  0.23918040938E+01  0.51100000000E-03 0.  1.
    9000002    1    1    2    0    0  0.29498074604E-01  0.27115544767E+00  0.96230732259E-01  0.98158023973E+00  0.93800000000E+00 0.  1.
         22    1    1    2    0    0  0.24889273719E+00 -0.22140370184E+00  0.15287429444E+01  0.15646156665E+01  0.00000000000E+00 0.  1.
</event>
<event>
 5    1  0.2111786E+001  0.1487599E+01  0.7818608E-02  0.3485189E+00
         11   -1    0    0    0    0  0.00000000000E+00  0.00000000000E+00  0.39999999674E+01  0.40000000000E+01  0.51100000000E-03 0. -1.
    9000002   -1    0    0    0    0 -0.00000000000E+00 -0.00000000000E+00  0.00000000000E+00  0.93800000000E+00  0.93800000000E+00 0.  1.
         11    1    1    2    0    0 -0.26009260306E+00  0.45935517606E+00  0.61531121333E+00  0.81071788577E+00  0.51100000000E-03 0. -1.
    9000002    1    1    2    0    0  0.12748577798E-01 -0.63689543989E+00  0.52165543346E+00  0.12481052515E+01  0.93800000000E+00 0.  1.
         22    1    1    2    0    0  0.24734402526E+00  0.17754026383E+00  0.28630333206E+01  0.28791768627E+01  0.00000000000E+00 0. -1.
</event>
<event>
 5    1  0.2111786E+001  0.1595237E+01  0.7818608E-02  0.3358549E+00
         11   -1    0    0    0    0  0.00000000000E+00  0.00000000000E+00  0.39999999674E+01  0.40000000000E+01  0.51100000000E-03 0. -1.
    9000002   -1    0    0    0    0 -0.00000000000E+00 -0.00000000000E+00  0.00000000000E+00  0.93800000000E+00  0.93800000000E+00 0.  1.
         11    1    1    2    0    0 -0.23112623302E-01 -0.30734045581E+00  0.17826648670E+01  0.18091121132E+01  0.51100000000E-03 0. -1.
    9000002    1    1    2    0    0  0.12318140217E+00  0.50182625680E+00  0.18737453237E+00  0.10871782123E+01  0.93800000000E+00 0.  1.
         22    1    1    2    0    0 -0.10006877887E+00 -0.19448580100E+00  0.20299605680E+01  0.20417096745E+01  0.00000000000E+00 0. -1.
</event>
<event>
 5    1  0.2111786E+001  0.1559959E+01  0.7818608E-02  0.3398003E+00
         11   -1    0    0    0    0  0.00000000000E+00  0.00000000000E+00  0.39999999674E+01  0.40000000000E+01  0.51100000000E-03 0. -1.
    9000002   -1    0    0    0    0 -0.00000000000E+00 -0.00000000000E+00  0.00000000000E+00  0.93800000000E+00  0.93800000000E+00 0. -1.
         11    1    1    2    0    0  0.42797861484E-01 -0.24016433774E+00  0.11307887500E+01  0.11568033646E+01  0.51100000000E-03 0. -1.
    9000002    1    1    2    0    0 -0.28631764367E+00  0.89648165871E-01  0.91814562301E-01  0.98908467816E+00  0.93800000000E+00 0. -1.
         22    1    1    2    0    0  0.24351978219E+00  0.15051617187E+00  0.27773966550E+01  0.27921119572E+01  0.00000000000E+00 0. -1.
</event>
<event>
 5    1  0.2111786E+001  0.1452542E+01  0.7818608E-02  0.3530803E+00
         11   -1    0    0    0    0  0.00000000000E+00  0.00000000000E+00  0.39999999674E+01  0.40000000000E+01  0.51100000000E-03 0. -1.
    9000002   -1    0    0    0    0 -0.00000000000E+00 -0.00000000000E+00  0.00000000000E+00  0.93800000000E+00  0.93800000000E+00 0. -1.
         11    1    1    2    0    0  0.30806205512E+00 -0.42562195110E+00  0.13393336865E+01  0.14387047160E+01  0.51100000000E-03 0. -1.
    9000002    1    1    2    0    0 -0.48527864793E+00 -0.16824577600E-02  0.30588168043E+00  0.10995025235E+01  0.93800000000E+00 0. -1.
         22    1    1    2    0    0  0.17721659282E+00  0.42730440886E+00  0.23547846005E+01  0.23997927605E+01  0.00000000000E+00 0. -1.
</event>
<event>
 5    1  0.2111786E+001  0.1498011E+01  0.7818608E-02  0.3472086E+00
         11   -1    0    0    0    0  0.00000000000E+00  0.00000000000E+00  0.39999999674E+01  0.40000000000E+01  0.51100000000E-03 0. -1.
    9000002   -1    0    0    0    0 -0.00000000000E+00 -0.00000000000E+00  0.00000000000E+00  0.93800000000E+00  0.93800000000E+00 0. -1.
         11    1    1    2    0    0  0.11504284902E+00  0.34741360064E+00  0.90698434298E+00  0.97803472666E+00  0.51100000000E-03 0. -1.
    9000002    1    1    2    0    0 -0.17964116394E+00 -0.11577109554E+00  0.11117246435E+00  0.96844060797E+00  0.93800000000E+00 0. -1.
         22    1    1    2    0    0  0.64598314917E-01 -0.23164250511E+00  0.29818431600E+01  0.29915246654E+01  0.00000000000E+00 0. -1.
</event>
<event>
 5    1  0.2111786E+001  0.1427991E+01  0.7818608E-02  0.3564203E+00
         11   -1    0    0    0    0  0.00000000000E+00  0.00000000000E+00  0.39999999674E+01  0.40000000000E+01  0.51100000000E-03 0. -1.
    9000002   -1    0    0    0    0 -0.00000000000E+00 -0.00000000000E+00  0.00000000000E+00  0.93800000000E+00  0.93800000000E+00 0. -1.
         11    1    1    2    0    0 -0.24602440983E+00 -0.46464586913E+00  0.35882926150E+01  0.36266055681E+01  0.51100000000E-03 0. -1.
    9000002    1    1    2    0    0  0.10383597122E+00  0.28774464853E+00  0.21213914854E+00  0.10091709023E+01  0.93800000000E+00 0. -1.
         22    1    1    2    0    0  0.14218843861E+00  0.17690122059E+00  0.19956820378E+00  0.30222352966E+00  0.00000000000E+00 0. -1.
</event>
<event>
 5    1  0.2111786E+001  0.1547393E+01  0.7818608E-02  0.3412518E+00
         11   -1    0    0    0    0  0.00000000000E+00  0.00000000000E+00  0.39999999674E+01  0.40000000000E+01  0.51100000000E-03 0. -1.
    9000002   -1    0    0    0    0 -0.00000000000E+00 -0.00000000000E+00  0.00000000000E+00  0.93800000000E+00  0.93800000000E+00 0. -1.
         11    1    1    2    0    0  0.15740154880E+00 -0.21627778490E+00  0.17041164663E+01  0.17249824693E+01  0.51100000000E-03 0. -1.
    9000002    1    1    2    0    0 -0.15118990926E+00 -0.93293826409E-01  0.60823105256E-01  0.95661150779E+00  0.93800000000E+00 0. -1.
         22    1    1    2    0    0 -0.62116395425E-02  0.30957161131E+00  0.22350603958E+01  0.22564060229E+01  0.00000000000E+00 0. -1.
</event>
<event>
 5    1  0.2111786E+001  0.1551592E+01  0.7818608E-02  0.3407640E+00
         11   -1    0    0    0    0  0.00000000000E+00  0.00000000000E+00  0.39999999674E+01  0.40000000000E+01  0.51100000000E-03 0.  1.
    9000002   -1    0    0    0    0 -0.00000000000E+00 -0.00000000000E+00  0.00000000000E+00  0.93800000000E+00  0.93800000000E+00 0. -1.
         11    1    1    2    0    0 -0.20781225290E+00  0.17822118219E+00  0.19754139812E+01  0.19942942061E+01  0.51100000000E-03 0.  1.
    9000002    1    1    2    0    0 -0.35077320432E-01 -0.82032059794E-01  0.41141678335E-01  0.94313112288E+00  0.93800000000E+00 0. -1.
         22    1    1    2    0    0  0.24288957333E+00 -0.96189122394E-01  0.19834443079E+01  0.20005746711E+01  0.00000000000E+00 0. -1.
</event>
<event>
 5    1  0.2111786E+001  0.1543591E+01  0.7818608E-02  0.3416960E+00
         11   -1    0    0    0    0  0.00000000000E+00  0.00000000000E+00  0.39999999674E+01  0.40000000000E+01  0.51100000000E-03 0.  1.
    9000002   -1    0    0    0    0 -0.00000000000E+00 -0.00000000000E+00  0.00000000000E+00  0.93800000000E+00  0.93800000000E+00 0.  1.
         11    1    1    2    0    0  0.12882706815E+00  0.23403536967E+00  0.22880943057E+01  0.23036372936E+01  0.51100000000E-03 0.  1.
    9000002    1    1    2    0    0 -0.18507905083E+00  0.79823777260E-01  0.70197553865E-01  0.96197598049E+00  0.93800000000E+00 0.  1.
         22    1    1    2    0    0  0.56251982677E-01 -0.31385914693E+00  0.16417081078E+01  0.16723867259E+01  0.00000000000E+00 0.  1.
</event>
<event>
 5    1  0.2111786E+001  0.1560122E+01  0.7818608E-02  0.3397817E+00
         11   -1    0    0    0    0  0.00000000000E+00  0.00000000000E+00  0.39999999674E+01  0.40000000000E+01  0.51100000000E-03 0.  1.
    9000002   -1    0    0    0    0 -0.00000000000E+00 -0.00000000000E+00  0.00000000000E+00  0.93800000000E+00  0.93800000000E+00 0.  1.
         11    1    1    2    0    0  0.13648975219E+00  0.18844769908E+00  0.14319651900E+01  0.14507468953E+01  0.51100000000E-03 0.  1.
    9000002    1    1    2    0    0  0.30544891234E-01 -0.33259847943E-01  0.30588841343E-01  0.93958442148E+00  0.93800000000E+00 0.  1.
         22    1    1    2    0    0 -0.16703464343E+00 -0.15518785114E+00  0.25374459360E+01  0.25476686832E+01  0.00000000000E+00 0.  1.
</event>
<event>
 5    1  0.2111786E+001  0.1582952E+01  0.7818608E-02  0.3372077E+00
         11   -1    0    0    0    0  0.00000000000E+00  0.00000000000E+00  0.39999999674E+01  0.40000000000E+01  0.51100000000E-03 0.  1.
    9000002   -1    0    0    0    0 -0.00000000000E+00 -0.00000000000E+00  0.00000000000E+00  0.93800000000E+00  0.93800000000E+00 0. -1.
         11    1    1    2    0    0  0.10338863477E+00 -0.23086165978E+00  0.25752405812E+01  0.25876341758E+01  0.51100000000E-03 0.  1.
    9000002    1    1    2    0    0  0.66936802075E-01  0.34488234321E+00  0.96371874351E-01  0.10062583686E+01  0.93800000000E+00 0. -1.
         22    1    1    2    0    0 -0.17032543685E+00 -0.11402068343E+00  0.13283875118E+01  0.13441074556E+01  0.00000000000E+00 0.  1.
</event>
<event>
 5    1  0.2111786E+001  0.1567891E+01  0.7818608E-02  0.3388968E+00
         11   -1    0    0    0    0  0.00000000000E+00  0.00000000000E+00  0.39999999674E+01  0.40000000000E+01  0.51100000000E-03 0.  1.
    9000002   -1    0    0    0    0 -0.00000000000E+00 -0.00000000000E+00  0.00000000000E+00  0.93800000000E+00  0.93800000000E+00 0. -1.
         11    1    1    2    0    0 -0.24283946416E-01 -0.19304952277E+00  0.16813940198E+01  0.16926145276E+01  0.51100000000E-03 0.  1.
    9000002    1    1    2    0    0 -0.35374097528E-01 -0.36044927215E-01  0.25099804203E-01  0.93969386703E+00  0.93800000000E+00 0. -1.
         22    1    1    2    0    0  0.59658043943E-01  0.22909444998E+00  0.22935061434E+01  0.23056916053E+01  0.00000000000E+00 0.  1.
</event>
<event>
 5    1  0.2111786E+001  0.1457848E+01  0.7818608E-02  0.3523746E+00
         11   -1    0    0    0    0  0.00000000000E+00  0.00000000000E+00  0.39999999674E+01  0.40000000000E+01  0.51100000000E-03 0.  1.
    9000002   -1    0    0    0    0 -0.00000000000E+00 -0.00000000000E+00  0.00000000000E+00  0.93800000000E+00  0.93800000000E+00 0.  1.
         11    1    1    2    0    0 -0.43147733797E+00  0.10085521355E+00  0.10597458539E+01  0.11486539963E+01  0.51100000000E-03 0.  1.
    9000002    1    1    2    0    0  0.17084907019E+00  0.13939914140E+00  0.14822231667E+00  0.97490275442E+00  0.93800000000E+00 0.  1.
         22    1    1    2    0    0  0.26062826778E+00 -0.24025435495E+00  0.27920317968E+01  0.28144432493E+01  0.00000000000E+00 0. -1.
</event>
<event>
 5    1  0.2111786E+001  0.1574088E+01  0.7818608E-02  0.3381977E+00
         11   -1    0    0    0    0  0.00000000000E+00  0.00000000000E+00  0.39999999674E+01  0.40000000000E+01  0.51100000000E-03 0.  1.
    9000002   -1    0    0    0    0 -0.00000000000E+00 -0.00000000000E+00  0.00000000000E+00  0.93800000000E+00  0.93800000000E+00 0. -1.
         11    1    1    2    0    0  0.38653935004E+00 -0.10272650825E-01  0.19409602303E+01  0.19791020876E+01  0.51100000000E-03 0.  1.
    9000002    1    1    2    0    0 -0.45828202843E+00  0.25179980016E+00  0.21184562359E+00  0.10945995273E+01  0.93800000000E+00 0. -1.
         22    1    1    2    0    0  0.71742678390E-01 -0.24152714933E+00  0.18471941134E+01  0.18642983850E+01  0.00000000000E+00 0. -1.
</event>
<event>
 5    1  0.2111786E+001  0.1580225E+01  0.7818608E-02  0.3375110E+00
         11   -1    0    0    0    0  0.00000000000E+00  0.00000000000E+00  0.39999999674E+01  0.40000000000E+01  0.51100000000E-03 0. -1.
    9000002   -1    0    0    0    0 -0.00000000000E+00 -0.00000000000E+00  0.00000000000E+00  0.93800000000E+00  0.93800000000E+00 0. -1.
         11    1    1    2    0    0  0.12070372501E+00  0.36815143379E-01  0.14961932641E+01  0.15015056739E+01  0.51100000000E-03 0. -1.
    9000002    1    1    2    0    0  0.10200744856E+00 -0.85016649945E-02  0.21250846435E-01  0.94380792344E+00  0.93800000000E+00 0. -1.
         22    1    1    2    0    0 -0.22271117358E+00 -0.28313478385E-01  0.24825558568E+01  0.24926864027E+01  0.00000000000E+00 0. -1.
</event>
<event>
 5    1  0.2111786E+001  0.1570816E+01  0.7818608E-02  0.3385660E+00
         11   -1    0    0    0    0  0.00000000000E+00  0.00000000000E+00  0.39999999674E+01  0.40000000000E+01  0.51100000000E-03 0. -1.
    9000002   -1    0    0    0    0 -0.00000000000E+00 -0.00000000000E+00  0.00000000000E+00  0.93800000000E+00  0.93800000000E+00 0.  1.
         11    1    1    2    0    0 -0.18751063195E+00 -0.64119928772E-02  0.13411081516E+01  0.13541686329E+01  0.51100000000E-03 0. -1.
    9000002    1    1    2    0    0 -0.33691419093E-02 -0.10746223517E+00  0.29023978302E-01  0.94458767429E+00  0.93800000000E+00 0.  1.
         22    1    1    2    0    0  0.19087977386E+00  0.11387422805E+00  0.26298678374E+01  0.26392436928E+01  0.00000000000E+00 0. -1.
</event>
<event>
 5    1  0.2111786E+001  0.1540269E+01  0.7818608E-02  0.3420859E+00
         11   -1    0    0    0    0  0.00000000000E+00  0.00000000000E+00  0.39999999674E+01  0.40000000000E+01  0.51100000000E-03 0.  1.
    9000002   -1    0    0    0    0 -0.00000000000E+00 -0.00000000000E+00  0.00000000000E+00  0.93800000000E+00  0.93800000000E+00 0.  1.
         11    1    1    2    0    0 -0.78986133426E-01 -0.25701463570E+00  0.15672425984E+01  0.15901399170E+01  0.51100000000E-03 0.  1.
    9000002    1    1    2    0    0 -0.37075857817E-01 -0.35877642683E-01  0.46152779721E-01  0.94055085113E+00  0.93800000000E+00 0.  1.
         22    1    1    2    0    0  0.11606199124E+00  0.29289227838E+00  0.23866045892E+01  0.24073092318E+01  0.00000000000E+00 0.  1.
</event>
<event>
 5    1  0.2111786E+001  0.1555356E+01  0.7818608E-02  0.3403291E+00
         11   -1    0    0    0    0  0.00000000000E+00  0.00000000000E+00  0.39999999674E+01  0.40000000000E+01  0.51100000000E-03 0. -1.
    9000002   -1    0    0    0    0 -0.00000000000E+00 -0.00000000000E+00  0.00000000000E+00  0.93800000000E+00  0.93800000000E+00 0. -1.
         11    1    1    2    0    0  0.24648292197E+00  0.67002852811E-01  0.28735118475E+01  0.28848420775E+01  0.51100000000E-03 0. -1.
    9000002    1    1    2    0    0 -0.94302337283E-01  0.99957713651E-01  0.45809123030E-01  0.94911903947E+00  0.93800000000E+00 0. -1.
         22    1    1    2    0    0 -0.15218058469E+00 -0.16696056646E+00  0.10806789968E+01  0.11040388830E+01  0.00000000000E+00 0. -1.
</event>
<event>
 5    1  0.2111786E+001  0.1234271E+01  0.7818608E-02  0.3915968E+00
         11   -1    0    0    0    0  0.00000000000E+00  0.00000000000E+00  0.39999999674E+01  0.40000000000E+01  0.51100000000E-03 0. -1.
    9000002   -1    0    0    0    0 -0.00000000000E+00 -0.00000000000E+00  0.00000000000E+00  0.93800000000E+00  0.93800000000E+00 0. -1.
         11    1    1    2    0    0  0.77057711128E+00  0.18925614509E+00  0.75367654860E+00  0.10943653750E+01  0.51100000000E-03 0. -1.
    9000002    1    1    2    0    0 -0.50616259057E+00 -0.26540212772E+00  0.74499077663E+00  0.13272129124E+01  0.93800000000E+00 0. -1.
         22    1    1    2    0    0 -0.26441452071E+00  0.76145982629E-01  0.25013326421E+01  0.25164217127E+01  0.00000000000E+00 0. -1.
</event>
<event>
 5    1  0.2111786E+001  0.1570281E+01  0.7818608E-02  0.3386265E+00
         11   -1    0    0    0    0  0.00000000000E+00  0.00000000000E+00  0.39999999674E+01  0.40000000000E+01  0.51100000000E-03 0.  1.
    9000002   -1    0    0    0    0 -0.00000000000E+00 -0.00000000000E+00  0.00000000000E+00  0.93800000000E+00  0.93800000000E+00 0. -1.
         11    1    1    2    0    0  0.44955490519E-01 -0.19560609118E+00  0.29477353215E+01  0.29545602931E+01  0.51100000000E-03 0.  1.
    9000002    1    1    2    0    0  0.15671881844E+00  0.15742398318E+00  0.55260359925E-01  0.96552618085E+00  0.93800000000E+00 0. -1.
         22    1    1    2    0    0 -0.20167430896E+00  0.38182108006E-01  0.99700428594E+00  0.10179135260E+01  0.00000000000E+00 0.  1.
</event>
<event>
 5    1  0.2111786E+001  0.1560216E+01  0.7818608E-02  0.3397709E+00
         11   -1    0    0    0    0  0.00000000000E+00  0.00000000000E+00  0.39999999674E+01  0.40000000000E+01  0.51100000000E-03 0.  1.
    9000002   -1    0    0    0    0 -0.00000000000E+00 -0.00000000000E+00  0.00000000000E+00  0.93800000000E+00  0.93800000000E+00 0. -1.
         11    1    1    2    0    0 -0.21194423465E+00 -0.32426271110E-01  0.12131943457E+01  0.12319953747E+01  0.51100000000E-03 0.  1.
    9000002    1    1    2    0    0 -0.18561538163E-01 -0.87731078750E-02  0.29411068850E-01  0.93868552194E+00  0.93800000000E+00 0. -1.
         22    1    1    2    0    0  0.23050577281E+00  0.41199378985E-01  0.27573945528E+01  0.27673191034E+01  0.00000000000E+00 0.  1.
</event>
<event>
 5    1  0.2111786E+001  0.1590444E+01  0.7818608E-02  0.3363801E+00
         11   -1    0    0    0    0  0.00000000000E+00  0.00000000000E+00  0.39999999674E+01  0.40000000000E+01  0.51100000000E-03 0. -1.
    9000002   -1    0    0    0    0 -0.00000000000E+00 -0.00000000000E+00  0.00000000000E+00  0.93800000000E+00  0.93800000000E+00 0.  1.
         11    1    1    2    0    0 -0.21412004446E+00  0.11573291030E+00  0.16549825739E+01  0.16727848281E+01  0.51100000000E-03 0. -1.
    9000002    1    1    2    0    0  0.23764249079E+00 -0.31629449720E+00  0.11321288458E+00  0.10242935710E+01  0.93800000000E+00 0.  1.
         22    1    1    2    0    0 -0.23522446326E-01  0.20056158690E+00  0.22318045089E+01  0.22409216009E+01  0.00000000000E+00 0. -1.
</event>
<event>
 5    1  0.2111786E+001  0.1550274E+01  0.7818608E-02  0.3409169E+00
         11   -1    0    0    0    0  0.00000000000E+00  0.00000000000E+00  0.39999999674E+01  0.40000000000E+01  0.51100000000E-03 0.  1.
    9000002   -1    0    0    0    0 -0.00000000000E+00 -0.00000000000E+00  0.00000000000E+00  0.93800000000E+00  0.93800000000E+00 0. -1.
         11    1    1    2    0    0  0.35677173265E+00  0.68906709819E+00  0.22140720105E+01  0.23461062772E+01  0.51100000000E-03 0.  1.
    9000002    1    1    2    0    0 -0.64457976584E+00 -0.66539211395E+00  0.75063235365E+00  0.15170770152E+01  0.93800000000E+00 0. -1.
         22    1    1    2    0    0  0.28780803319E+00 -0.23674984241E-01  0.10352956032E+01  0.10748167075E+01  0.00000000000E+00 0.  1.
</event>
<event>
 5    1  0.2111786E+001  0.1593181E+01  0.7818608E-02  0.3360798E+00
         11   -1    0    0    0    0  0.00000000000E+00  0.00000000000E+00  0.39999999674E+01  0.40000000000E+01  0.51100000000E-03 0. -1.
    9000002   -1    0    0    0    0 -0.00000000000E+00 -0.00000000000E+00  0.00000000000E+00  0.93800000000E+00  0.93800000000E+00 0.  1.
         11    1    1    2    0    0  0.13967767234E+00 -0.15605471238E+00  0.16782588416E+01  0.16912764192E+01  0.51100000000E-03 0. -1.
    9000002    1    1    2    0    0 -0.45816739190E+00  0.18642304053E+00  0.17318793820E+00  0.10744807913E+01  0.93800000000E+00 0.  1.
         22    1    1    2    0    0  0.31848971956E+00 -0.30368328151E-01  0.21485531875E+01  0.21722427895E+01  0.00000000000E+00 0. -1.
</event>
<event>
 5    1  0.2111786E+001  0.1552295E+01  0.7818608E-02  0.3406826E+00
         11   -1    0    0    0    0  0.00000000000E+00  0.00000000000E+00  0.39999999674E+01  0.40000000000E+01  0.51100000000E-03 0.  1.
    9000002   -1    0    0    0    0 -0.00000000000E+00 -0.00000000000E+00  0.00000000000E+00  0.93800000000E+00  0.93800000000E+00 0. -1.
         11    1    1    2    0    0  0.19286095020E-01  0.20647425986E+00  0.13833488408E+01  0.13988058657E+01  0.51100000000E-03 0.  1.
    9000002    1    1    2    0    0  0.97604012149E-01  0.10745310962E+00  0.49688002939E-01  0.95046599707E+00  0.93800000000E+00 0. -1.
         22    1    1    2    0    0 -0.11689010717E+00 -0.31392736948E+00  0.25669631236E+01  0.25887281372E+01  0.00000000000E+00 0. -1.
</event>
<event>
 5    1  0.2111786E+001  0.1333841E+01  0.7818608E-02  0.3719171E+00
         11   -1    0    0    0    0  0.00000000000E+00  0.00000000000E+00  0.39999999674E+01  0.40000000000E+01  0.51100000000E-03 0. -1.
    9000002   -1    0    0    0    0 -0.00000000000E+00 -0.00000000000E+00  0.00000000000E+00  0.93800000000E+00  0.93800000000E+00 0.  1.
         11    1    1    2    0    0  0.59157294729E+00  0.27437063843E+00  0.62141602168E+00  0.90077518412E+00  0.51100000000E-03 0. -1.
    9000002    1    1    2    0    0 -0.69034908242E+00 -0.10473686422E-02  0.73386237528E+00  0.13765830663E+01  0.93800000000E+00 0.  1.
         22    1    1    2    0    0  0.98776135135E-01 -0.27332326979E+00  0.26447215704E+01  0.26606417496E+01  0.00000000000E+00 0. -1.
</event>
<event>
 5    1  0.2111786E+001  0.1511693E+01  0.7818608E-02  0.3455163E+00
         11   -1    0    0    0    0  0.00000000000E+00  0.00000000000E+00  0.39999999674E+01  0.40000000000E+01  0.51100000000E-03 0. -1.
    9000002   -1    0    0    0    0 -0.00000000000E+00 -0.00000000000E+00  0.00000000000E+00  0.93800000000E+00  0.93800000000E+00 0. -1.
         11    1    1    2    0    0 -0.35802299696E+00  0.76167302102E-02  0.17056145572E+01  0.17428022722E+01  0.51100000000E-03 0. -1.
    9000002    1    1    2    0    0  0.12298387318E-01 -0.85303316660E-01  0.71954264216E-01  0.94469535952E+00  0.93800000000E+00 0. -1.
         22    1    1    2    0    0  0.34572460964E+00  0.77686586450E-01  0.22224311459E+01  0.22505023683E+01  0.00000000000E+00 0.  1.
</event>
<event>
 5    1  0.2111786E+001  0.1585649E+01  0.7818608E-02  0.3369088E+00
         11   -1    0    0    0    0  0.00000000000E+00  0.00000000000E+00  0.39999999674E+01  0.40000000000E+01  0.51100000000E-03 0. -1.
    9000002   -1    0    0    0    0 -0.00000000000E+00 -0.00000000000E+00  0.00000000000E+00  0.93800000000E+00  0.93800000000E+00 0. -1.
         11    1    1    2    0    0 -0.11821846726E+00  0.53580295574E-01  0.12013305347E+01  0.12083218812E+01  0.51100000000E-03 0. -1.
    9000002    1    1    2    0    0  0.17513329947E+00  0.19842477589E+00  0.57452823588E-01  0.97631393066E+00  0.93800000000E+00 0. -1.
         22    1    1    2    0    0 -0.56914832216E-01 -0.25200507147E+00  0.27412166091E+01  0.27533641881E+01  0.00000000000E+00 0. -1.
</event>
<event>
 5    1  0.2111786E+001  0.1549427E+01  0.7818608E-02  0.3410151E+00
         11   -1    0    0    0    0  0.00000000000E+00  0.00000000000E+00  0.39999999674E+01  0.40000000000E+01  0.51100000000E-03 0.  1.
    9000002   -1    0    0    0    0 -0.00000000000E+00 -0.00000000000E+00  0.00000000000E+00  0.93800000000E+00  0.93800000000E+00 0. -1.
         11    1    1    2    0    0 -0.31798144774E-01  0.18764933466E+00  0.59448811886E+00  0.62421132591E+00  0.51100000000E-03 0.  1.
    9000002    1    1    2    0    0  0.15561355163E+00  0.43884851641E-01  0.55442543677E-01  0.95344603062E+00  0.93800000000E+00 0. -1.
         22    1    1    2    0    0 -0.12381540686E+00 -0.23153418630E+00  0.33500693048E+01  0.33603426435E+01  0.00000000000E+00 0.  1.
</event>
<event>
 5    1  0.2111786E+001  0.1569937E+01  0.7818608E-02  0.3386654E+00
         11   -1    0    0    0    0  0.00000000000E+00  0.00000000000E+00  0.39999999674E+01  0.40000000000E+01  0.51100000000E-03 0.  1.
    9000002   -1    0    0    0    0 -0.00000000000E+00 -0.00000000000E+00  0.00000000000E+00  0.93800000000E+00  0.93800000000E+00 0.  1.
         11    1    1    2    0    0  0.18109370686E+00 -0.66062900558E-01  0.17496291720E+01  0.17602163895E+01  0.51100000000E-03 0.  1.
    9000002    1    1    2    0    0 -0.41711455523E-02 -0.80569404085E-01  0.26255314180E-01  0.94182916118E+00  0.93800000000E+00 0.  1.
         22    1    1    2    0    0 -0.17692256131E+00  0.14663230464E+00  0.22241154812E+01  0.22359544493E+01  0.00000000000E+00 0.  1.
</event>
<event>
 5    1  0.2111786E+001  0.1471844E+01  0.7818608E-02  0.3505397E+00
         11   -1    0    0    0    0  0.00000000000E+00  0.00000000000E+00  0.39999999674E+01  0.40000000000E+01  0.51100000000E-03 0.  1.
    9000002   -1    0    0    0    0 -0.00000000000E+00 -0.00000000000E+00  0.00000000000E+00  0.93800000000E+00  0.93800000000E+00 0. -1.
         11    1    1    2    0    0 -0.40078846767E+00  0.32430794597E+00  0.75033133888E+00  0.91038696106E+00  0.51100000000E-03 0.  1.
    9000002    1    1    2    0    0  0.47599453921E+00 -0.11758061352E+00  0.34296027940E+00  0.11125923581E+01  0.93800000000E+00 0. -1.
         22    1    1    2    0    0 -0.75206071533E-01 -0.20672733246E+00  0.29067083491E+01  0.29150206809E+01  0.00000000000E+00 0.  1.
</event>
<event>
 5    1  0.2111786E+001  0.1521661E+01  0.7818608E-02  0.3443041E+00
         11   -1    0    0    0    0  0.00000000000E+00  0.00000000000E+00  0.39999999674E+01  0.40000000000E+01  0.51100000000E-03 0.  1.
    9000002   -1    0    0    0    0 -0.00000000000E+00 -0.00000000000E+00  0.00000000000E+00  0.93800000000E+00  0.93800000000E+00 0.  1.
         11    1    1    2    0    0  0.95204131414E-01  0.16948414237E+00  0.31821516591E+00  0.37289389119E+00  0.51100000000E-03 0.  1.
    9000002    1    1    2    0    0 -0.16351373714E+00  0.26096970053E-01  0.78348744901E-01  0.95571979152E+00  0.93800000000E+00 0.  1.
         22    1    1    2    0    0  0.68309605725E-01 -0.19558111242E+00  0.36034360566E+01  0.36093863173E+01  0.00000000000E+00 0.  1.
</event>
<event>
 5    1  0.2111786E+001  0.1501645E+01  0.7818608E-02  0.3467559E+00
         11   -1    0    0    0    0  0.00000000000E+00  0.00000000000E+00  0.39999999674E+01  0.40000000000E+01  0.51100000000E-03 0. -1.
    9000002   -1    0    0    0    0 -0.00000000000E+00 -0.00000000000E+00  0.00000000000E+00  0.93800000000E+00  0.93800000000E+00 0.  1.
         11    1    1    2    0    0 -0.21171258168E+00 -0.28031670004E+00  0.20140892776E+01  0.20444939591E+01  0.51100000000E-03 0. -1.
    9000002    1    1    2    0    0 -0.86730289282E-01  0.83580871081E-02  0.80149654107E-01  0.94544167866E+00  0.93800000000E+00 0.  1.
         22    1    1    2    0    0  0.29844287096E+00  0.27195861293E+00  0.19057610357E+01  0.19480643623E+01  0.00000000000E+00 0. -1.
</event>
<event>
 5    1  0.2111786E+001  0.1582821E+01  0.7818608E-02  0.3372222E+00
         11   -1    0    0    0    0  0.00000000000E+00  0.00000000000E+00  0.39999999674E+01  0.40000000000E+01  0.51100000000E-03 0.  1.
    9000002   -1    0    0    0    0 -0.00000000000E+00 -0.00000000000E+00  0.00000000000E+00  0.93800000000E+00  0.93800000000E+00 0. -1.
         11    1    1    2    0    0  0.67716673147E-01 -0.11368328336E+00  0.26737006861E+01  0.26769731147E+01  0.51100000000E-03 0.  1.
    9000002    1    1    2    0    0 -0.27395363462E+00  0.40844724245E-01  0.64232138723E-01  0.98014726091E+00  0.93800000000E+00 0. -1.
         22    1    1    2    0    0  0.20623696147E+00  0.72838559115E-01  0.12620671425E+01  0.12808796244E+01  0.00000000000E+00 0.  1.
</event>
<event>
 5    1  0.2111786E+001  0.1545016E+01  0.7818608E-02  0.3415292E+00
         11   -1    0    0    0    0  0.00000000000E+00  0.00000000000E+00  0.39999999674E+01  0.40000000000E+01  0.51100000000E-03 0.  1.
    9000002   -1    0    0    0    0 -0.00000000000E+00 -0.00000000000E+00  0.00000000000E+00  0.93800000000E+00  0.93800000000E+00 0. -1.
         11    1    1    2    0    0 -0.23913059482E+00 -0.18433051784E+00  0.17712763588E+01  0.17968253620E+01  0.51100000000E-03 0.  1.
    9000002    1    1    2    0    0  0.87144379220E-01 -0.25368673363E-01  0.46384305474E-01  0.94352170945E+00  0.93800000000E+00 0. -1.
         22    1    1    2    0    0  0.15198621560E+00  0.20969919120E+00  0.21823393030E+01  0.21976529285E+01  0.00000000000E+00 0.  1.
</event>
<event>
 5    1  0.2111786E+001  0.1568633E+01  0.7818608E-02  0.3388127E+00
         11   -1    0    0    0    0  0.00000000000E+00  0.00000000000E+00  0.39999999674E+01  0.40000000000E+01  0.51100000000E-03 0.  1.
    9000002   -1    0    0    0    0 -0.00000000000E+00 -0.00000000000E+00  0.00000000000E+00  0.93800000000E+00  0.93800000000E+00 0. -1.
         11    1    1    2    0    0 -0.75434882884E-02  0.20288614356E+00  0.17314637682E+01  0.17433263415E+01  0.51100000000E-03 0.  1.
    9000002    1    1    2    0    0 -0.11123105203E+00 -0.51887485592E-03  0.31221846523E-01  0.94508804874E+00  0.93800000000E+00 0. -1.
         22    1    1    2    0    0  0.11877454032E+00 -0.20236726870E+00  0.22373143527E+01  0.22495856097E+01  0.00000000000E+00 0.  1.
</event>
<event>
 5    1  0.2111786E+001  0.1572369E+01  0.7818608E-02  0.3383910E+00
         11   -1    0    0    0    0  0.00000000000E+00  0.00000000000E+00  0.39999999674E+01  0.40000000000E+01  0.51100000000E-03 0. -1.
    9000002   -1    0    0    0    0 -0.00000000000E+00 -0.00000000000E+00  0.00000000000E+00  0.93800000000E+00  0.93800000000E+00 0.  1.
         11    1    1    2    0    0 -0.18526775746E+00  0.75575195102E-01  0.17270266781E+01  0.17385790635E+01  0.51100000000E-03 0. -1.
    9000002    1    1    2    0    0  0.39329658038E-01  0.62741887370E-01  0.23739668106E-01  0.94121779534E+00  0.93800000000E+00 0.  1.
         22    1    1    2    0    0  0.14593809942E+00 -0.13831708247E+00  0.22492336212E+01  0.22582031412E+01  0.00000000000E+00 0. -1.
</event>
<event>
 5    1  0.2111786E+001  0.1568237E+01  0.7818608E-02  0.3388576E+00
         11   -1    0    0    0    0  0.00000000000E+00  0.00000000000E+00  0.39999999674E+01  0.40000000000E+01  0.51100000000E-03 0.  1.
    9000002   -1    0    0    0    0 -0.00000000000E+00 -0.00000000000E+00  0.00000000000E+00  0.93800000000E+00  0.93800000000E+00 0.  1.
         11    1    1    2    0    0 -0.90988110029E-01  0.63671933460E-01  0.31296976150E+00  0.33208927114E+00  0.51100000000E-03 0.  1.
    9000002    1    1    2    0    0  0.20008034151E-01  0.13620257270E+00  0.36007068663E-01  0.94873176991E+00  0.93800000000E+00 0.  1.
         22    1    1    2    0    0  0.70980075879E-01 -0.19987450616E+00  0.36510231372E+01  0.36571789589E+01  0.00000000000E+00 0.  1.
</event>
<event>
 5    1  0.2111786E+001  0.1496055E+01  0.7818608E-02  0.3474533E+00
         11   -1    0    0    0    0  0.00000000000E+00  0.00000000000E+00  0.39999999674E+01  0.40000000000E+01  0.51100000000E-03 0. -1.
    9000002   -1    0    0    0    0 -0.00000000000E+00 -0.00000000000E+00  0.00000000000E+00  0.93800000000E+00  0.93800000000E+00 0.  1.
         11    1    1    2    0    0  0.46694389364E+00  0.43003309824E+00  0.19932739407E+01  0.20919145129E+01  0.51100000000E-03 0. -1.
    9000002    1    1    2    0    0 -0.25561858313E+00 -0.42315909649E+00  0.26679732423E+00  0.10933568920E+01  0.93800000000E+00 0.  1.
         22    1    1    2    0    0 -0.21132531051E+00 -0.68740017544E-02  0.17399287024E+01  0.17527285951E+01  0.00000000000E+00 0. -1.
</event>
<event>
 5    1  0.2111786E+001  0.1159935E+01  0.7818608E-02  0.4090779E+00
         11   -1    0    0    0    0  0.00000000000E+00  0.00000000000E+00  0.39999999674E+01  0.40000000000E+01  0.51100000000E-03 0.  1.
    9000002   -1    0    0    0    0 -0.00000000000E+00 -0.00000000000E+00  0.00000000000E+00  0.93800000000E+00  0.93800000000E+00 0.  1.
         11    1    1    2    0    0  0.11469398583E-01 -0.37149501604E+00  0.69699825488E-02  0.37173772451E+00  0.51100000000E-03 0.  1.
    9000002    1    1    2    0    0 -0.27470318592E+00  0.25240700623E+00  0.62802720081E+00  0.11888790107E+01  0.93800000000E+00 0.  1.
         22    1    1    2    0    0  0.26323378734E+00  0.11908800981E+00  0.33650027840E+01  0.33773832648E+01  0.00000000000E+00 0.  1.
</event>
<event>
 5    1  0.2111786E+001  0.1541952E+01  0.7818608E-02  0.3418882E+00
         11   -1    0    0    0    0  0.00000000000E+00  0.00000000000E+00  0.39999999674E+01  0.40000000000E+01  0.51100000000E-03 0.  1.
    9000002   -1    0    0    0    0 -0.00000000000E+00 -0.00000000000E+00  0.00000000000E+00  0.93800000000E+00  0.93800000000E+00 0.  1.
         11    1    1    2    0    0 -0.22333540659E+00 -0.11470538916E+00  0.96288782660E+00  0.99508253823E+00  0.51100000000E-03 0.  1.
    9000002    1    1    2    0    0 -0.67573047084E-01  0.18770975588E+00  0.70919973826E-01  0.96160007895E+00  0.93800000000E+00 0.  1.
         22    1    1    2    0    0  0.29090845368E+00 -0.73004366714E-01  0.29661921669E+01  0.29813173828E+01  0.00000000000E+00 0.  1.
</event>
<event>
 5    1  0.2111786E+001  0.1566524E+01  0.7818608E-02  0.3390518E+00
         11   -1    0    0    0    0  0.00000000000E+00  0.00000000000E+00  0.39999999674E+01  0.40000000000E+01  0.51100000000E-03 0. -1.
    9000002   -1    0    0    0    0 -0.00000000000E+00 -0.00000000000E+00  0.00000000000E+00  0.93800000000E+00  0.93800000000E+00 0.  1.
         11    1    1    2    0    0  0.18404547324E+00 -0.10866658386E+00  0.20235313964E+01  0.20347876390E+01  0.51100000000E-03 0. -1.
    9000002    1    1    2    0    0  0.47295290689E-01  0.79354231219E-01  0.30197821574E-01  0.94302165774E+00  0.93800000000E+00 0.  1.
         22    1    1    2    0    0 -0.23134076393E+00  0.29312352643E-01  0.19462707494E+01  0.19601907032E+01  0.00000000000E+00 0. -1.
</event>
<event>
 5    1  0.2111786E+001  0.1523782E+01  0.7818608E-02  0.3440483E+00
         11   -1    0    0    0    0  0.00000000000E+00  0.00000000000E+00  0.39999999674E+01  0.40000000000E+01  0.51100000000E-03 0.  1.
    9000002   -1    0    0    0    0 -0.00000000000E+00 -0.00000000000E+00  0.00000000000E+00  0.93800000000E+00  0.93800000000E+00 0. -1.
         11    1    1    2    0    0  0.70021845539E-01 -0.33436381951E+00  0.19673725703E+01  0.19968117873E+01  0.51100000000E-03 0.  1.
    9000002    1    1    2    0    0 -0.12431591342E+00  0.59522233718E-02  0.68109385695E-01  0.94866894316E+00  0.93800000000E+00 0. -1.
         22    1    1    2    0    0  0.54294067885E-01  0.32841159613E+00  0.19645180114E+01  0.19925192695E+01  0.00000000000E+00 0. -1.
</event>
<event>
 5    1  0.2111786E+001  0.1451218E+01  0.7818608E-02  0.3532573E+00
         11   -1    0    0    0    0  0.00000000000E+00  0.00000000000E+00  0.39999999674E+01  0.40000000000E+01  0.51100000000E-03 0. -1.
    9000002   -1    0    0    0    0 -0.00000000000E+00 -0.00000000000E+00  0.00000000000E+00  0.93800000000E+00  0.93800000000E+00 0.  1.
         11    1    1    2    0    0  0.36486671155E-01 -0.16565198781E+00  0.35152778584E+01  0.35193679178E+01  0.51100000000E-03 0. -1.
    9000002    1    1    2    0    0 -0.17229165260E+00 -0.96585362222E-01  0.14662246230E+00  0.96971918213E+00  0.93800000000E+00 0.  1.
         22    1    1    2    0    0  0.13580498144E+00  0.26223735003E+00  0.33809964666E+00  0.44891290002E+00  0.00000000000E+00 0.  1.
</event>
<event>
 5    1  0.2111786E+001  0.1598000E+01  0.7818608E-02  0.3355537E+00
         11   -1    0    0    0    0  0.00000000000E+00  0.00000000000E+00  0.39999999674E+01  0.40000000000E+01  0.51100000000E-03 0. -1.
    9000002   -1    0    0    0    0 -0.00000000000E+00 -0.00000000000E+00  0.00000000000E+00  0.93800000000E+00  0.93800000000E+00 0.  1.
         11    1    1    2    0    0  0.16543079250E-01  0.20623258675E-02  0.86180534533E+00  0.86196672849E+00  0.51100000000E-03 0. -1.
    9000002    1    1    2    0    0 -0.25978984170E+00 -0.42342718871E-01  0.47362334920E-01  0.97538241652E+00  0.93800000000E+00 0.  1.
         22    1    1    2    0    0  0.24324676245E+00  0.40280393003E-01  0.30908322871E+01  0.31006508550E+01  0.00000000000E+00 0. -1.
</event>
<event>
 5    1  0.2111786E+001  0.1570543E+01  0.7818608E-02  0.3385969E+00
         11   -1    0    0    0    0  0.00000000000E+00  0.00000000000E+00  0.39999999674E+01  0.40000000000E+01  0.51100000000E-03 0. -1.
    9000002   -1    0    0    0    0 -0.00000000000E+00 -0.00000000000E+00  0.00000000000E+00  0.93800000000E+00  0.93800000000E+00 0.  1.
         11    1    1    2    0    0  0.11651691120E-01  0.15975064682E+00  0.22695324487E+01  0.22751777574E+01  0.51100000000E-03 0. -1.
    9000002    1    1    2    0    0 -0.63570930677E-02  0.76183426292E-01  0.25350446181E-01  0.94145152408E+00  0.93800000000E+00 0.  1.
         22    1    1    2    0    0 -0.52945980520E-02 -0.23593407311E+00  0.17051170725E+01  0.17213707185E+01  0.00000000000E+00 0. -1.
</event>
<event>
 5    1  0.2111786E+001  0.1338069E+01  0.7818608E-02  0.3711597E+00
         11   -1    0    0    0    0  0.00000000000E+00  0.00000000000E+00  0.39999999674E+01  0.40000000000E+01  0.51100000000E-03 0.  1.
    9000002   -1    0    0    0    0 -0.00000000000E+00 -0.00000000000E+00  0.00000000000E+00  0.93800000000E+00  0.93800000000E+00 0. -1.
         11    1    1    2    0    0  0.39459439686E+00 -0.23152381448E+00  0.24648200155E+01  0.25069196207E+01  0.51100000000E-03 0.  1.
    9000002    1    1    2    0    0  0.16777801610E+00 -0.11337862975E+00  0.25816978801E+00  0.99373025304E+00  0.93800000000E+00 0. -1.
         22    1    1    2    0    0 -0.56237241295E+00  0.34490244423E+00  0.12770101639E+01  0.14373501263E+01  0.00000000000E+00 0. -1.
</event>
<event>
 5    1  0.2111786E+001  0.1532733E+01  0.7818608E-02  0.3429773E+00
         11   -1    0    0    0    0  0.00000000000E+00  0.00000000000E+00  0.39999999674E+01  0.40000000000E+01  0.51100000000E-03 0. -1.
    9000002   -1    0    0    0    0 -0.00000000000E+00 -0.00000000000E+00  0.00000000000E+00  0.93800000000E+00  0.93800000000E+00 0. -1.
         11    1    1    2    0    0 -0.13271314210E-01 -0.31053995147E+00  0.16041666875E+01  0.16340019008E+01  0.51100000000E-03 0. -1.
    9000002    1    1    2    0    0 -0.11184773070E+00  0.25079312206E-01  0.59373000139E-01  0.94684108482E+00  0.93800000000E+00 0. -1.
         22    1    1    2    0    0  0.12511904491E+00  0.28546063926E+00  0.23364602797E+01  0.23571570144E+01  0.00000000000E+00 0. -1.
</event>
<event>
 5    1  0.2111786E+001  0.1553391E+01  0.7818608E-02  0.3405559E+00
         11   -1    0    0    0    0  0.00000000000E+00  0.00000000000E+00  0.39999999674E+01  0.40000000000E+01  0.51100000000E-03 0. -1.
    9000002   -1    0    0    0    0 -0.00000000000E+00 -0.00000000000E+00  0.00000000000E+00  0.93800000000E+00  0.93800000000E+00 0.  1.
         11    1    1    2    0    0 -0.20038664352E+00 -0.20052032727E+00  0.14775270079E+01  0.15044764966E+01  0.51100000000E-03 0. -1.
    9000002    1    1    2    0    0 -0.25309290698E-01  0.16825458920E+00  0.54309858715E-01  0.95485272568E+00  0.93800000000E+00 0.  1.
         22    1    1    2    0    0  0.22569593422E+00  0.32265738068E-01  0.24681631007E+01  0.24786707777E+01  0.00000000000E+00 0. -1.
</event>
<event>
 5    1  0.2111786E+001  0.1574682E+01  0.7818608E-02  0.3381309E+00
         11   -1    0    0    0    0  0.00000000000E+00  0.00000000000E+00  0.39999999674E+01  0.40000000000E+01  0.51100000000E-03 0. -1.
    9000002   -1    0    0    0    0 -0.00000000000E+00 -0.00000000000E+00  0.00000000000E+00  0.93800000000E+00  0.93800000000E+00 0.  1.
         11    1    1    2    0    0 -0.62974256824E-01  0.11007482217E+00  0.86113930778E+00  0.87042713194E+00  0.51100000000E-03 0. -1.
    9000002    1    1    2    0    0 -0.43137902129E-01  0.13434607759E+00  0.31778257772E-01  0.94908566780E+00  0.93800000000E+00 0.  1.
         22    1    1    2    0    0  0.10611215895E+00 -0.24442089976E+00  0.31070824018E+01  0.31184872003E+01  0.00000000000E+00 0. -1.
</event>
<event>
 5    1  0.2111786E+001  0.1546409E+01  0.7818608E-02  0.3413665E+00
         11   -1    0    0    0    0  0.00000000000E+00  0.00000000000E+00  0.39999999674E+01  0.40000000000E+01  0.51100000000E-03 0. -1.
    9000002   -1    0    0    0    0 -0.00000000000E+00 -0.00000000000E+00  0.00000000000E+00  0.93800000000E+00  0.93800000000E+00 0. -1.
         11    1    1    2    0    0 -0.21480092502E+00  0.23406129384E+00  0.25895339161E+01  0.26089481195E+01  0.51100000000E-03 0. -1.
    9000002    1    1    2    0    0  0.56961480112E-01 -0.58692746464E-01  0.44234675480E-01  0.94259755740E+00  0.93800000000E+00 0. -1.
         22    1    1    2    0    0  0.15783944491E+00 -0.17536854738E+00  0.13662313758E+01  0.13864543231E+01  0.00000000000E+00 0. -1.
</event>
<event>
 5    1  0.2111786E+001  0.1531817E+01  0.7818608E-02  0.3430863E+00
         11   -1    0    0    0    0  0.00000000000E+00  0.00000000000E+00  0.39999999674E+01  0.40000000000E+01  0.51100000000E-03 0.  1.
    9000002   -1    0    0    0    0 -0.00000000000E+00 -0.00000000000E+00  0.00000000000E+00  0.93800000000E+00  0.93800000000E+00 0.  1.
         11    1    1    2    0    0  0.31947950495E+00 -0.25519496878E+00  0.20446095351E+01  0.20850947313E+01  0.51100000000E-03 0.  1.
    9000002    1    1    2    0    0 -0.12396741372E+00  0.13982447118E+00  0.75554934473E-01  0.95941198165E+00  0.93800000000E+00 0.  1.
         22    1    1    2    0    0 -0.19551209123E+00  0.11537049759E+00  0.18798354978E+01  0.18934932871E+01  0.00000000000E+00 0.  1.
</event>
<event>
 5    1  0.2111786E+001  0.1494004E+01  0.7818608E-02  0.3477105E+00
         11   -1    0    0    0    0  0.00000000000E+00  0.00000000000E+00  0.39999999674E+01  0.40000000000E+01  0.51100000000E-03 0.  1.
    9000002   -1    0    0    0    0 -0.00000000000E+00 -0.00000000000E+00  0.00000000000E+00  0.93800000000E+00  0.93800000000E+00 0. -1.
         11    1    1    2    0    0 -0.24792036836E+00 -0.18893445361E+00  0.65490548289E+00  0.72530144729E+00  0.51100000000E-03 0.  1.
    9000002    1    1    2    0    0  0.15331557083E+00 -0.56585821099E-01  0.10046230588E+00  0.95741542410E+00  0.93800000000E+00 0. -1.
         22    1    1    2    0    0  0.94604797535E-01  0.24552027471E+00  0.32446321786E+01  0.32552831286E+01  0.00000000000E+00 0.  1.
</event>
<event>
 5    1  0.2111786E+001  0.1652448E+01  0.7818608E-02  0.3298335E+00
         11   -1    0    0    0    0  0.00000000000E+00  0.00000000000E+00  0.39999999674E+01  0.40000000000E+01  0.51100000000E-03 0.  1.
    9000002   -1    0    0    0    0 -0.00000000000E+00 -0.00000000000E+00  0.00000000000E+00  0.93800000000E+00  0.93800000000E+00 0. -1.
         11    1    1    2    0    0  0.25250528433E+00 -0.75216142216E-01 -0.27498721201E-02  0.26348474259E+00  0.51100000000E-03 0.  1.
    9000002    1    1    2    0    0 -0.77416173440E-01 -0.67034744705E-01  0.33717768564E+00  0.10020078406E+01  0.93800000000E+00 0. -1.
         22    1    1    2    0    0 -0.17508911089E+00  0.14225088692E+00  0.36655721538E+01  0.36725074168E+01  0.00000000000E+00 0.  1.
</event>
<event>
 5    1  0.2111786E+001  0.1489701E+01  0.7818608E-02  0.3482527E+00
         11   -1    0    0    0    0  0.00000000000E+00  0.00000000000E+00  0.39999999674E+01  0.40000000000E+01  0.51100000000E-03 0.  1.
    9000002   -1    0    0    0    0 -0.00000000000E+00 -0.00000000000E+00  0.00000000000E+00  0.93800000000E+00  0.93800000000E+00 0.  1.
         11    1    1    2    0    0  0.40346043351E+00  0.12135193911E+00  0.10297403880E+01  0.11125970261E+01  0.51100000000E-03 0.  1.
    9000002    1    1    2    0    0 -0.17236692068E+00 -0.32041878597E+00  0.18434576981E+00  0.10228420780E+01  0.93800000000E+00 0.  1.
         22    1    1    2    0    0 -0.23109351282E+00  0.19906684686E+00  0.27859138095E+01  0.28025608959E+01  0.00000000000E+00 0.  1.
</event>
<event>
 5    1  0.2111786E+001  0.1513078E+01  0.7818608E-02  0.3453469E+00
         11   -1    0    0    0    0  0.00000000000E+00  0.00000000000E+00  0.39999999674E+01  0.40000000000E+01  0.51100000000E-03 0.  1.
    9000002   -1    0    0    0    0 -0.00000000000E+00 -0.00000000000E+00  0.00000000000E+00  0.93800000000E+00  0.93800000000E+00 0.  1.
         11    1    1    2    0    0  0.21675091041E+00 -0.25260500755E+00  0.23538572746E+01  0.23772746113E+01  0.51100000000E-03 0.  1.
    9000002    1    1    2    0    0  0.35032817497E-01 -0.13595885377E-02  0.66390312675E-01  0.94099990457E+00  0.93800000000E+00 0.  1.
         22    1    1    2    0    0 -0.25178372791E+00  0.25396459609E+00  0.15797523801E+01  0.16197254842E+01  0.00000000000E+00 0.  1.
</event>
<event>
 5    1  0.2111786E+001  0.1583056E+01  0.7818608E-02  0.3371962E+00
         11   -1    0    0    0    0  0.00000000000E+00  0.00000000000E+00  0.39999999674E+01  0.40000000000E+01  0.51100000000E-03 0.  1.
    9000002   -1    0    0    0    0 -0.00000000000E+00 -0.00000000000E+00  0.00000000000E+00  0.93800000000E+00  0.93800000000E+00 0. -1.
         11    1    1    2    0    0  0.43090231919E-01 -0.34438983133E-01  0.24205019371E+01  0.24211304592E+01  0.51100000000E-03 0.  1.
    9000002    1    1    2    0    0 -0.74527667382E-01  0.30127948843E+00  0.77520074472E-01  0.99104846768E+00  0.93800000000E+00 0. -1.
         22    1    1    2    0    0  0.31437435463E-01 -0.26684050529E+00  0.15019779558E+01  0.15258210731E+01  0.00000000000E+00 0. -1.
</event>
<event>
 5    1  0.2111786E+001  0.1463283E+01  0.7818608E-02  0.3516576E+00
         11   -1    0    0    0    0  0.00000000000E+00  0.00000000000E+00  0.39999999674E+01  0.40000000000E+01  0.51100000000E-03 0. -1.
    9000002   -1    0    0    0    0 -0.00000000000E+00 -0.00000000000E+00  0.00000000000E+00  0.93800000000E+00  0.93800000000E+00 0. -1.
         11    1    1    2    0    0  0.37400769588E-01 -0.29476226396E+00  0.43028479628E+00  0.52290427121E+00  0.51100000000E-03 0. -1.
    9000002    1    1    2    0    0 -0.11280856956E+00  0.47289382302E-01  0.11751270310E+00  0.95321314218E+00  0.93800000000E+00 0. -1.
         22    1    1    2    0    0  0.75407799967E-01  0.24747288166E+00  0.34522024680E+01  0.34618825866E+01  0.00000000000E+00 0. -1.
</event>
<event>
 5    1  0.2111786E+001  0.1549367E+01  0.7818608E-02  0.3410221E+00
         11   -1    0    0    0    0  0.00000000000E+00  0.00000000000E+00  0.39999999674E+01  0.40000000000E+01  0.51100000000E-03 0. -1.
    9000002   -1    0    0    0    0 -0.00000000000E+00 -0.00000000000E+00  0.00000000000E+00  0.93800000000E+00  0.93800000000E+00 0. -1.
         11    1    1    2    0    0  0.12553882752E-01 -0.30222053367E+00  0.28737708064E+01  0.28896459576E+01  0.51100000000E-03 0. -1.
    9000002    1    1    2    0    0 -0.11502633851E+00  0.99577135814E-01  0.53401607254E-01  0.95175753014E+00  0.93800000000E+00 0. -1.
         22    1    1    2    0    0  0.10247245576E+00  0.20264339786E+00  0.10728275537E+01  0.10965965123E+01  0.00000000000E+00 0. -1.
</event>
<event>
 5    1  0.2111786E+001  0.1551195E+01  0.7818608E-02  0.3408100E+00
         11   -1    0    0    0    0  0.00000000000E+00  0.00000000000E+00  0.39999999674E+01  0.40000000000E+01  0.51100000000E-03 0.  1.
    9000002   -1    0    0    0    0 -0.00000000000E+00 -0.00000000000E+00  0.00000000000E+00  0.93800000000E+00  0.93800000000E+00 0.  1.
         11    1    1    2    0    0  0.24275118256E-01 -0.30238402112E+00  0.21119639102E+01  0.21336394252E+01  0.51100000000E-03 0.  1.
    9000002    1    1    2    0    0  0.29138231762E-01  0.76954366667E-01  0.40623198819E-01  0.94247825194E+00  0.93800000000E+00 0.  1.
         22    1    1    2    0    0 -0.53413350018E-01  0.22542965445E+00  0.18474128583E+01  0.18618823229E+01  0.00000000000E+00 0. -1.
</event>
<event>
 5    1  0.2111786E+001  0.1575697E+01  0.7818608E-02  0.3380170E+00
         11   -1    0    0    0    0  0.00000000000E+00  0.00000000000E+00  0.39999999674E+01  0.40000000000E+01  0.51100000000E-03 0.  1.
    9000002   -1    0    0    0    0 -0.00000000000E+00 -0.00000000000E+00  0.00000000000E+00  0.93800000000E+00  0.93800000000E+00 0.  1.
         11    1    1    2    0    0 -0.19754564654E+00  0.10620722964E+00  0.84062124088E+00  0.87002792475E+00  0.51100000000E-03 0.  1.
    9000002    1    1    2    0    0  0.20082604197E+00 -0.38640315010E+00  0.14930100806E+00  0.10448795550E+01  0.93800000000E+00 0.  1.
         22    1    1    2    0    0 -0.32803954264E-02  0.28019592046E+00  0.30100777184E+01  0.30230925202E+01  0.00000000000E+00 0.  1.
</event>
<event>
 5    1  0.2111786E+001  0.1579713E+01  0.7818608E-02  0.3375681E+00
         11   -1    0    0    0    0  0.00000000000E+00  0.00000000000E+00  0.39999999674E+01  0.40000000000E+01  0.51100000000E-03 0.  1.
    9000002   -1    0    0    0    0 -0.00000000000E+00 -0.00000000000E+00  0.00000000000E+00  0.93800000000E+00  0.93800000000E+00 0.  1.
         11    1    1    2    0    0 -0.10858089384E+00 -0.63489550918E-01  0.13008354368E+01  0.13069023790E+01  0.51100000000E-03 0.  1.
    9000002    1    1    2    0    0 -0.10773755357E+00 -0.16879268043E-01  0.22584334660E-01  0.94458792196E+00  0.93800000000E+00 0.  1.
         22    1    1    2    0    0  0.21631844740E+00  0.80368818961E-01  0.26765801959E+01  0.26865096990E+01  0.00000000000E+00 0.  1.
</event>
<event>
 5    1  0.2111786E+001  0.1557228E+01  0.7818608E-02  0.3401137E+00
         11   -1    0    0    0    0  0.00000000000E+00  0.00000000000E+00  0.39999999674E+01  0.40000000000E+01  0.51100000000E-03 0. -1.
    9000002   -1    0    0    0    0 -0.00000000000E+00 -0.00000000000E+00  0.00000000000E+00  0.93800000000E+00  0.93800000000E+00 0. -1.
         11    1    1    2    0    0 -0.10143364056E+00  0.22817405559E+00  0.22159644215E+01  0.22299889599E+01  0.51100000000E-03 0. -1.
    9000002    1    1    2    0    0 -0.17978986449E-01 -0.15448743300E-01  0.31761081137E-01  0.93883687289E+00  0.93800000000E+00 0. -1.
         22    1    1    2    0    0  0.11941262701E+00 -0.21272531229E+00  0.17522744647E+01  0.17691741672E+01  0.00000000000E+00 0. -1.
</event>
<event>
 5    1  0.2111786E+001  0.1555259E+01  0.7818608E-02  0.3403403E+00
         11   -1    0    0    0    0  0.00000000000E+00  0.00000000000E+00  0.39999999674E+01  0.40000000000E+01  0.51100000000E-03 0. -1.
    9000002   -1    0    0    0    0 -0.00000000000E+00 -0.00000000000E+00  0.00000000000E+00  0.93800000000E+00  0.93800000000E+00 0.  1.
         11    1    1    2    0    0  0.10337829612E+00  0.21934943455E+00  0.14742620171E+01  0.14940716190E+01  0.51100000000E-03 0. -1.
    9000002    1    1    2    0    0  0.83131586005E-01 -0.37964137835E-01  0.38612161504E-01  0.94323222770E+00  0.93800000000E+00 0.  1.
         22    1    1    2    0    0 -0.18650988212E+00 -0.18138529671E+00  0.24871257888E+01  0.25006961533E+01  0.00000000000E+00 0. -1.
</event>
<event>
 5    1  0.2111786E+001  0.1598323E+01  0.7818608E-02  0.3355185E+00
         11   -1    0    0    0    0  0.00000000000E+00  0.00000000000E+00  0.39999999674E+01  0.40000000000E+01  0.51100000000E-03 0.  1.
    9000002   -1    0    0    0    0 -0.00000000000E+00 -0.00000000000E+00  0.00000000000E+00  0.93800000000E+00  0.93800000000E+00 0. -1.
         11    1    1    2    0    0 -0.21950510384E+00  0.32399665210E-01  0.19167249057E+01  0.19295250334E+01  0.51100000000E-03 0.  1.
    9000002    1    1    2    0    0  0.43176199312E+00  0.23208713488E-01  0.12781051628E+00  0.10407384836E+01  0.93800000000E+00 0. -1.
         22    1    1    2    0    0 -0.21225688928E+00 -0.55608378698E-01  0.19554645453E+01  0.19677364831E+01  0.00000000000E+00 0.  1.
</event>
<event>
 5    1  0.2111786E+001  0.1520867E+01  0.7818608E-02  0.3444000E+00
         11   -1    0    0    0    0  0.00000000000E+00  0.00000000000E+00  0.39999999674E+01  0.40000000000E+01  0.51100000000E-03 0.  1.
    9000002   -1    0    0    0    0 -0.00000000000E+00 -0.00000000000E+00  0.00000000000E+00  0.93800000000E+00  0.93800000000E+00 0. -1.
         11    1    1    2    0    0 -0.12058133489E+00 -0.28514575447E+00  0.10821323467E+01  0.11255481494E+01  0.51100000000E-03 0.  1.
    9000002    1    1    2    0    0  0.10987346843E+00 -0.14579294615E-01  0.68134399262E-01  0.94697995293E+00  0.93800000000E+00 0. -1.
         22    1    1    2    0    0  0.10707866462E-01  0.29972504908E+00  0.28497332214E+01  0.28654718977E+01  0.00000000000E+00 0.  1.
</event>
<event>
 5    1  0.2111786E+001  0.1528548E+01  0.7818608E-02  0.3434764E+00
         11   -1    0    0    0    0  0.00000000000E+00  0.00000000000E+00  0.39999999674E+01  0.40000000000E+01  0.51100000000E-03 0. -1.
    9000002   -1    0    0    0    0 -0.00000000000E+00 -0.00000000000E+00  0.00000000000E+00  0.93800000000E+00  0.93800000000E+00 0. -1.
         11    1    1    2    0    0 -0.16567583181E+00 -0.29736043253E+00  0.21633494138E+01  0.21899663594E+01  0.51100000000E-03 0. -1.
    9000002    1    1    2    0    0  0.98393157431E-01 -0.33626442932E-02  0.60219926474E-01  0.94507299208E+00  0.93800000000E+00 0. -1.
         22    1    1    2    0    0  0.67282674384E-01  0.30072307683E+00  0.17764306271E+01  0.18029606485E+01  0.00000000000E+00 0. -1.
</event>
<event>
 5    1  0.2111786E+001  0.1570708E+01  0.7818608E-02  0.3385783E+00
         11   -1    0    0    0    0  0.00000000000E+00  0.00000000000E+00  0.39999999674E+01  0.40000000000E+01  0.51100000000E-03 0. -1.
    9000002   -1    0    0    0    0 -0.00000000000E+00 -0.00000000000E+00  0.00000000000E+00  0.93800000000E+00  0.93800000000E+00 0.  1.
         11    1    1    2    0    0  0.12815472131E+00 -0.19932973171E+00  0.22961937063E+01  0.23083894326E+01  0.51100000000E-03 0. -1.
    9000002    1    1    2    0    0  0.97999719196E-01  0.20370024216E+00  0.56134421100E-01  0.96648476804E+00  0.93800000000E+00 0.  1.
         22    1    1    2    0    0 -0.22615444051E+00 -0.43705104470E-02  0.16476718400E+01  0.16631257994E+01  0.00000000000E+00 0. -1.
</event>
<event>
 5    1  0.2111786E+001  0.1576481E+01  0.7818608E-02  0.3379292E+00
         11   -1    0    0    0    0  0.00000000000E+00  0.00000000000E+00  0.39999999674E+01  0.40000000000E+01  0.51100000000E-03 0. -1.
    9000002   -1    0    0    0    0 -0.00000000000E+00 -0.00000000000E+00  0.00000000000E+00  0.93800000000E+00  0.93800000000E+00 0. -1.
         11    1    1    2    0    0  0.67617860994E-01  0.43220335384E-01  0.13410848155E+01  0.13434838726E+01  0.51100000000E-03 0. -1.
    9000002    1    1    2    0    0  0.30298739914E+00 -0.20865653962E+00  0.11006566523E+00  0.10135567898E+01  0.93800000000E+00 0. -1.
         22    1    1    2    0    0 -0.37060526013E+00  0.16543620424E+00  0.25488494866E+01  0.25809593375E+01  0.00000000000E+00 0. -1.
</event>
<event>
 5    1  0.2111786E+001  0.1565881E+01  0.7818608E-02  0.3391249E+00
         11   -1    0    0    0    0  0.00000000000E+00  0.00000000000E+00  0.39999999674E+01  0.40000000000E+01  0.51100000000E-03 0.  1.
    9000002   -1    0    0    0    0 -0.00000000000E+00 -0.00000000000E+00  0.00000000000E+00  0.93800000000E+00  0.93800000000E+00 0.  1.
         11    1    1    2    0    0  0.16513945931E-01 -0.19550774088E+00  0.27178972972E+01  0.27249700854E+01  0.51100000000E-03 0.  1.
    9000002    1    1    2    0    0  0.81088878219E-01  0.39016080129E-02  0.29358137847E-01  0.94196418667E+00  0.93800000000E+00 0.  1.
         22    1    1    2    0    0 -0.97602824151E-01  0.19160613287E+00  0.12527445323E+01  0.12710657279E+01  0.00000000000E+00 0.  1.
</event>
<event>
 5    1  0.2111786E+001  0.1599651E+01  0.7818608E-02  0.3353742E+00
         11   -1    0    0    0    0  0.00000000000E+00  0.00000000000E+00  0.39999999674E+01  0.40000000000E+01  0.51100000000E-03 0.  1.
    9000002   -1    0    0    0    0 -0.00000000000E+00 -0.00000000000E+00  0.00000000000E+00  0.93800000000E+00  0.93800000000E+00 0. -1.
         11    1    1    2    0    0  0.98628829991E-01  0.13604067901E+00  0.16642387114E+01  0.16727000514E+01  0.51100000000E-03 0.  1.
    9000002    1    1    2    0    0 -0.23863759166E+00 -0.30668933239E+00  0.10173150842E+00  0.10203918593E+01  0.93800000000E+00 0. -1.
         22    1    1    2    0    0  0.14000876167E+00  0.17064865338E+00  0.22340297476E+01  0.22449080893E+01  0.00000000000E+00 0.  1.
</event>
<event>
 5    1  0.2111786E+001  0.1567821E+01  0.7818608E-02  0.3389047E+00
         11   -1    0    0    0    0  0.00000000000E+00  0.00000000000E+00  0.39999999674E+01  0.40000000000E+01  0.51100000000E-03 0. -1.
    9000002   -1    0    0    0    0 -0.00000000000E+00 -0.00000000000E+00  0.00000000000E+00  0.93800000000E+00  0.93800000000E+00 0. -1.
         11    1    1    2    0    0 -0.24196065794E-01 -0.19235545452E+00  0.19631413283E+01  0.19726911077E+01  0.51100000000E-03 0. -1.
    9000002    1    1    2    0    0  0.14658399692E+00 -0.34057831781E-01  0.38847589219E-01  0.95078911397E+00  0.93800000000E+00 0. -1.
         22    1    1    2    0    0 -0.12238793113E+00  0.22641328630E+00  0.19980110499E+01  0.20145197783E+01  0.00000000000E+00 0.  1.
</event>
<event>
 5    1  0.2111786E+001  0.1562107E+01  0.7818608E-02  0.3395547E+00
         11   -1    0    0    0    0  0.00000000000E+00  0.00000000000E+00  0.39999999674E+01  0.40000000000E+01  0.51100000000E-03 0.  1.
    9000002   -1    0    0    0    0 -0.00000000000E+00 -0.00000000000E+00  0.00000000000E+00  0.93800000000E+00  0.93800000000E+00 0. -1.
         11    1    1    2    0    0  0.14234774880E+00 -0.26236786203E+00  0.16540051954E+01  0.16807240178E+01  0.51100000000E-03 0.  1.
    9000002    1    1    2    0    0 -0.24479733964E+00  0.83383867801E-01  0.73854491956E-01  0.97579562045E+00  0.93800000000E+00 0. -1.
         22    1    1    2    0    0  0.10244959084E+00  0.17898399423E+00  0.22721402800E+01  0.22814803617E+01  0.00000000000E+00 0.  1.
</event>
<event>
 5    1  0.2111786E+001  0.1537510E+01  0.7818608E-02  0.3424112E+00
         11   -1    0    0    0    0  0.00000000000E+00  0.00000000000E+00  0.39999999674E+01  0.40000000000E+01  0.51100000000E-03 0. -1.
    9000002   -1    0    0    0    0 -0.00000000000E+00 -0.00000000000E+00  0.00000000000E+00  0.93800000000E+00  0.93800000000E+00 0. -1.
         11    1    1    2    0    0  0.32905654549E+00  0.18807234715E+00  0.15516027867E+01  0.15972228670E+01  0.51100000000E-03 0. -1.
    9000002    1    1    2    0    0 -0.10086629623E+00 -0.32005457220E+00  0.12679384197E+00  0.10042557529E+01  0.93800000000E+00 0. -1.
         22    1    1    2    0    0 -0.22819024926E+00  0.13198222505E+00  0.23216033387E+01  0.23365213801E+01  0.00000000000E+00 0. -1.
</event>
<event>
 5    1  0.2111786E+001  0.1539618E+01  0.7818608E-02  0.3421625E+00
         11   -1    0    0    0    0  0.00000000000E+00  0.00000000000E+00  0.39999999674E+01  0.40000000000E+01  0.51100000000E-03 0. -1.
    9000002   -1    0    0    0    0 -0.00000000000E+00 -0.00000000000E+00  0.00000000000E+00  0.93800000000E+00  0.93800000000E+00 0. -1.
         11    1    1    2    0    0  0.29553287337E+00 -0.11818474060E+00  0.15864788548E+01  0.16180923119E+01  0.51100000000E-03 0. -1.
    9000002    1    1    2    0    0 -0.67514238717E-01  0.24835102646E-01  0.48411878095E-01  0.94199929124E+00  0.93800000000E+00 0. -1.
         22    1    1    2    0    0 -0.22801863466E+00  0.93349637957E-01  0.23651092345E+01  0.23779083968E+01  0.00000000000E+00 0. -1.
</event>
<event>
 5    1  0.2111786E+001  0.1570610E+01  0.7818608E-02  0.3385893E+00
         11   -1    0    0    0    0  0.00000000000E+00  0.00000000000E+00  0.39999999674E+01  0.40000000000E+01  0.51100000000E-03 0. -1.
    9000002   -1    0    0    0    0 -0.00000000000E+00 -0.00000000000E+00  0.00000000000E+00  0.93800000000E+00  0.93800000000E+00 0.  1.
         11    1    1    2    0    0  0.21910042694E-01  0.11868795658E+00  0.45692462275E+00  0.47259628967E+00  0.51100000000E-03 0. -1.
    9000002    1    1    2    0    0 -0.42084947596E-01  0.10234218113E+00  0.29644867558E-01  0.94496977890E+00  0.93800000000E+00 0.  1.
         22    1    1    2    0    0  0.20174904902E-01 -0.22103013771E+00  0.35134304770E+01  0.35204339314E+01  0.00000000000E+00 0. -1.
</event>
<event>
 5    1  0.2111786E+001  0.1541926E+01  0.7818608E-02  0.3418911E+00
         11   -1    0    0    0    0  0.00000000000E+00  0.00000000000E+00  0.39999999674E+01  0.40000000000E+01  0.51100000000E-03 0. -1.
    9000002   -1    0    0    0    0 -0.00000000000E+00 -0.00000000000E+00  0.00000000000E+00  0.93800000000E+00  0.93800000000E+00 0.  1.
         11    1    1    2    0    0  0.77381108725E-01 -0.14286072815E+00  0.18400014585E+01  0.18471607002E+01  0.51100000000E-03 0. -1.
    9000002    1    1    2    0    0 -0.35751834704E+00 -0.27189504962E+00  0.18867405897E+00  0.10569712328E+01  0.93800000000E+00 0.  1.
         22    1    1    2    0    0  0.28013723832E+00  0.41475577778E+00  0.19713244498E+01  0.20338680670E+01  0.00000000000E+00 0. -1.
</event>
<event>
 5    1  0.2111786E+001  0.1563331E+01  0.7818608E-02  0.3394150E+00
         11   -1    0    0    0    0  0.00000000000E+00  0.00000000000E+00  0.39999999674E+01  0.40000000000E+01  0.51100000000E-03 0.  1.
    9000002   -1    0    0    0    0 -0.00000000000E+00 -0.00000000000E+00  0.00000000000E+00  0.93800000000E+00  0.93800000000E+00 0.  1.
         11    1    1    2    0    0 -0.16673693493E+00  0.98702094486E-01  0.27063718021E+01  0.27132990807E+01  0.51100000000E-03 0.  1.
    9000002    1    1    2    0    0 -0.22011460332E-01  0.21200040738E-01  0.27418749012E-01  0.93889814885E+00  0.93800000000E+00 0.  1.
         22    1    1    2    0    0  0.18874839526E+00 -0.11990213522E+00  0.12662094162E+01  0.12858027704E+01  0.00000000000E+00 0.  1.
</event>
<event>
 5    1  0.2111786E+001  0.1463979E+01  0.7818608E-02  0.3515661E+00
         11   -1    0    0    0    0  0.00000000000E+00  0.00000000000E+00  0.39999999674E+01  0.40000000000E+01  0.51100000000E-03 0.  1.
    9000002   -1    0    0    0    0 -0.00000000000E+00 -0.00000000000E+00  0.00000000000E+00  0.93800000000E+00  0.93800000000E+00 0.  1.
         11    1    1    2    0    0  0.20717215377E+00  0.44284411629E+00  0.13585178242E+01  0.14438151379E+01  0.51100000000E-03 0.  1.
    9000002    1    1    2    0    0 -0.15084733080E-01 -0.19279683066E+00  0.13411818684E+00  0.96707282824E+00  0.93800000000E+00 0.  1.
         22    1    1    2    0    0 -0.19208742069E+00 -0.25004728563E+00  0.25073639563E+01  0.25271120338E+01  0.00000000000E+00 0.  1.
</event>
<event>
 5    1  0.2111786E+001  0.1506123E+01  0.7818608E-02  0.3462013E+00
         11   -1    0    0    0    0  0.00000000000E+00  0.00000000000E+00  0.39999999674E+01  0.40000000000E+01  0.51100000000E-03 0.  1.
    9000002   -1    0    0    0    0 -0.00000000000E+00 -0.00000000000E+00  0.00000000000E+00  0.93800000000E+00  0.93800000000E+00 0. -1.
         11    1    1    2    0    0 -0.11428766584E+00  0.22993197120E+00  0.50846626297E+00  0.56962143889E+00  0.51100000000E-03 0.  1.
    9000002    1    1    2    0    0  0.80123328658E-01  0.26655200000E-02  0.75693352906E-01  0.94445769438E+00  0.93800000000E+00 0. -1.
         22    1    1    2    0    0  0.34164337177E-01 -0.23259749120E+00  0.34158403515E+01  0.34239208667E+01  0.00000000000E+00 0.  1.
</event>
<event>
 5    1  0.2111786E+001  0.1536332E+01  0.7818608E-02  0.3425504E+00
         11   -1    0    0    0    0  0.00000000000E+00  0.00000000000E+00  0.39999999674E+01  0.40000000000E+01  0.51100000000E-03 0.  1.
    9000002   -1    0    0    0    0 -0.00000000000E+00 -0.00000000000E+00  0.00000000000E+00  0.93800000000E+00  0.93800000000E+00 0.  1.
         11    1    1    2    0    0  0.34064047016E+00  0.10030433243E-01  0.22866118759E+01  0.23118673559E+01  0.51100000000E-03 0.  1.
    9000002    1    1    2    0    0 -0.81870054791E-01  0.83643140066E-01  0.56949075473E-01  0.94698789747E+00  0.93800000000E+00 0.  1.
         22    1    1    2    0    0 -0.25877041537E+00 -0.93673573309E-01  0.16564390160E+01  0.16791447466E+01  0.00000000000E+00 0.  1.
</event>
<event>
 5    1  0.2281831E+001  0.1565548E+01  0.7818608E-02  0.3391627E+00
         11   -1    0    0    0    0  0.00000000000E+00  0.00000000000E+00  0.39999999674E+01  0.40000000000E+01  0.51100000000E-03 0.  1.
    9000002   -1    0    0    0    0 -0.00000000000E+00 -0.00000000000E+00  0.00000000000E+00  0.93800000000E+00  0.93800000000E+00 0. -1.
         11    1    1    2    0    0  0.58241878588E-01  0.17663306884E+00  0.28683369967E+01  0.28743605802E+01  0.51100000000E-03 0.  1.
    9000002    1    1    2    0    0  0.28655445621E-02  0.18901892827E-01  0.25369272194E-01  0.93853774185E+00  0.93800000000E+00 0. -1.
         22    1    1    2    0    0 -0.61107423150E-01 -0.19553496167E+00  0.11062936985E+01  0.11251016779E+01  0.00000000000E+00 0.  1.
</event>
<event>
 5    1  0.2111786E+001  0.1519425E+01  0.7818608E-02  0.3445745E+00
         11   -1    0    0    0    0  0.00000000000E+00  0.00000000000E+00  0.39999999674E+01  0.40000000000E+01  0.51100000000E-03 0. -1.
    9000002   -1    0    0    0    0 -0.00000000000E+00 -0.00000000000E+00  0.00000000000E+00  0.93800000000E+00  0.93800000000E+00 0.  1.
         11    1    1    2    0    0  0.35801696894E+00  0.27216981860E-01  0.20291759724E+01  0.20606970428E+01  0.51100000000E-03 0. -1.
    9000002    1    1    2    0    0 -0.36173245911E-01  0.54051223067E-02  0.61453003493E-01  0.94072216446E+00  0.93800000000E+00 0.  1.
         22    1    1    2    0    0 -0.32184372303E+00 -0.32622104166E-01  0.19093709914E+01  0.19365807927E+01  0.00000000000E+00 0. -1.
</event>
<event>
 5    1  0.2111786E+001  0.1532778E+01  0.7818608E-02  0.3429719E+00
         11   -1    0    0    0    0  0.00000000000E+00  0.00000000000E+00  0.39999999674E+01  0.40000000000E+01  0.51100000000E-03 0.  1.
    9000002   -1    0    0    0    0 -0.00000000000E+00 -0.00000000000E+00  0.00000000000E+00  0.93800000000E+00  0.93800000000E+00 0. -1.
         11    1    1    2    0    0  0.14616584396E+00 -0.16684793883E+00  0.48800264427E+00  0.53604993290E+00  0.51100000000E-03 0.  1.
    9000002    1    1    2    0    0  0.58688635130E-01  0.19386518905E+00  0.79138756481E-01  0.96287850230E+00  0.93800000000E+00 0. -1.
         22    1    1    2    0    0 -0.20485447909E+00 -0.27017250227E-01  0.34328585666E+01  0.34390715648E+01  0.00000000000E+00 0.  1.
</event>
<event>
 5    1  0.2111786E+001  0.1586919E+01  0.7818608E-02  0.3367685E+00
         11   -1    0    0    0    0  0.00000000000E+00  0.00000000000E+00  0.39999999674E+01  0.40000000000E+01  0.51100000000E-03 0.  1.
    9000002   -1    0    0    0    0 -0.00000000000E+00 -0.00000000000E+00  0.00000000000E+00  0.93800000000E+00  0.93800000000E+00 0. -1.
         11    1    1    2    0    0 -0.27763453164E-01  0.18345072587E+00  0.20157632287E+01  0.20242842274E+01  0.51100000000E-03 0.  1.
    9000002    1    1    2    0    0 -0.19086236291E+00 -0.25729988711E+00  0.78767145187E-01  0.99432385903E+00  0.93800000000E+00 0. -1.
         22    1    1    2    0    0  0.21862581607E+00  0.73849161238E-01  0.19054695935E+01  0.19193919136E+01  0.00000000000E+00 0. -1.
</event>
<event>
 5    1  0.2111786E+001  0.1506598E+01  0.7818608E-02  0.3461426E+00
         11   -1    0    0    0    0  0.00000000000E+00  0.00000000000E+00  0.39999999674E+01  0.40000000000E+01  0.51100000000E-03 0.  1.
    9000002   -1    0    0    0    0 -0.00000000000E+00 -0.00000000000E+00  0.00000000000E+00  0.93800000000E+00  0.93800000000E+00 0. -1.
         11    1    1    2    0    0  0.35312091911E+00  0.13525860412E+00  0.12325624465E+01  0.12892632467E+01  0.51100000000E-03 0.  1.
    9000002    1    1    2    0    0 -0.26468686901E-01 -0.40287277026E+00  0.19222909703E+00  0.10391357400E+01  0.93800000000E+00 0. -1.
         22    1    1    2    0    0 -0.32665223221E+00  0.26761416613E+00  0.25752084238E+01  0.26096010133E+01  0.00000000000E+00 0.  1.
</event>
<event>
 5    1  0.2111786E+001  0.1514571E+01  0.7818608E-02  0.3451646E+00
         11   -1    0    0    0    0  0.00000000000E+00  0.00000000000E+00  0.39999999674E+01  0.40000000000E+01  0.51100000000E-03 0.  1.
    9000002   -1    0    0    0    0 -0.00000000000E+00 -0.00000000000E+00  0.00000000000E+00  0.93800000000E+00  0.93800000000E+00 0.  1.
         11    1    1    2    0    0  0.15263273913E-02  0.41085791056E+00  0.20089599533E+01  0.20505430762E+01  0.51100000000E-03 0.  1.
    9000002    1    1    2    0    0 -0.24195671671E-01 -0.11723206480E+00  0.74626529516E-01  0.94854726105E+00  0.93800000000E+00 0.  1.
         22    1    1    2    0    0  0.22669344280E-01 -0.29362584577E+00  0.19164134846E+01  0.19389096628E+01  0.00000000000E+00 0.  1.
</event>
<event>
 5    1  0.2111786E+001  0.1573802E+01  0.7818608E-02  0.3382298E+00
         11   -1    0    0    0    0  0.00000000000E+00  0.00000000000E+00  0.39999999674E+01  0.40000000000E+01  0.51100000000E-03 0.  1.
    9000002   -1    0    0    0    0 -0.00000000000E+00 -0.00000000000E+00  0.00000000000E+00  0.93800000000E+00  0.93800000000E+00 0.  1.
         11    1    1    2    0    0 -0.14398034591E+00  0.53711882905E-01  0.25437712024E+01  0.25484088168E+01  0.51100000000E-03 0.  1.
    9000002    1    1    2    0    0 -0.50548423479E-01  0.89452396204E-02  0.20745444023E-01  0.93963265901E+00  0.93800000000E+00 0.  1.
         22    1    1    2    0    0  0.19452876939E+00 -0.62657122526E-01  0.14354833210E+01  0.14499585242E+01  0.00000000000E+00 0.  1.
</event>
<event>
 5    1  0.2111786E+001  0.1485686E+01  0.7818608E-02  0.3487617E+00
         11   -1    0    0    0    0  0.00000000000E+00  0.00000000000E+00  0.39999999674E+01  0.40000000000E+01  0.51100000000E-03 0.  1.
    9000002   -1    0    0    0    0 -0.00000000000E+00 -0.00000000000E+00  0.00000000000E+00  0.93800000000E+00  0.93800000000E+00 0.  1.
         11    1    1    2    0    0  0.17642149440E+00 -0.92961601258E-01  0.32595861380E+00  0.38211998381E+00  0.51100000000E-03 0.  1.
    9000002    1    1    2    0    0  0.29559132584E+00 -0.26174139100E+00  0.20651945681E+00  0.10384493602E+01  0.93800000000E+00 0.  1.
         22    1    1    2    0    0 -0.47201282025E+00  0.35470299226E+00  0.34675218967E+01  0.35174306560E+01  0.00000000000E+00 0.  1.
</event>
<event>
 5    1  0.2111786E+001  0.1576378E+01  0.7818608E-02  0.3379407E+00
         11   -1    0    0    0    0  0.00000000000E+00  0.00000000000E+00  0.39999999674E+01  0.40000000000E+01  0.51100000000E-03 0. -1.
    9000002   -1    0    0    0    0 -0.00000000000E+00 -0.00000000000E+00  0.00000000000E+00  0.93800000000E+00  0.93800000000E+00 0. -1.
         11    1    1    2    0    0  0.13558384742E+00 -0.63300096245E-01  0.15297065706E+01  0.15370075911E+01  0.51100000000E-03 0. -1.
    9000002    1    1    2    0    0  0.85032101040E-01  0.82997426795E-02  0.21975048636E-01  0.94213918648E+00  0.93800000000E+00 0. -1.
         22    1    1    2    0    0 -0.22061594846E+00  0.55000353566E-01  0.24483183481E+01  0.24588532224E+01  0.00000000000E+00 0. -1.
</event>
<event>
 5    1  0.2111786E+001  0.1565566E+01  0.7818608E-02  0.3391606E+00
         11   -1    0    0    0    0  0.00000000000E+00  0.00000000000E+00  0.39999999674E+01  0.40000000000E+01  0.51100000000E-03 0. -1.
    9000002   -1    0    0    0    0 -0.00000000000E+00 -0.00000000000E+00  0.00000000000E+00  0.93800000000E+00  0.93800000000E+00 0.  1.
         11    1    1    2    0    0 -0.17004461270E+00  0.16434796873E+00  0.19097561809E+01  0.19243425778E+01  0.51100000000E-03 0. -1.
    9000002    1    1    2    0    0 -0.39774711831E-01 -0.99806110382E-01  0.32974014205E-01  0.94470872388E+00  0.93800000000E+00 0.  1.
         22    1    1    2    0    0  0.20981932453E+00 -0.64541858346E-01  0.20572697722E+01  0.20689486983E+01  0.00000000000E+00 0. -1.
</event>
<event>
 5    1  0.2111786E+001  0.1597552E+01  0.7818608E-02  0.3356024E+00
         11   -1    0    0    0    0  0.00000000000E+00  0.00000000000E+00  0.39999999674E+01  0.40000000000E+01  0.51100000000E-03 0. -1.
    9000002   -1    0    0    0    0 -0.00000000000E+00 -0.00000000000E+00  0.00000000000E+00  0.93800000000E+00  0.93800000000E+00 0.  1.
         11    1    1    2    0    0 -0.90624901604E-01 -0.21669917502E+00  0.16238387327E+01  0.16407388263E+01  0.51100000000E-03 0. -1.
    9000002    1    1    2    0    0  0.89778932401E-01  0.47535697461E+00  0.16166461025E+00  0.10677096779E+01  0.93800000000E+00 0.  1.
         22    1    1    2    0    0  0.84596920286E-03 -0.25865779959E+00  0.22144966244E+01  0.22295514958E+01  0.00000000000E+00 0. -1.
</event>
<event>
 5    1  0.2111786E+001  0.1531032E+01  0.7818608E-02  0.3431798E+00
         11   -1    0    0    0    0  0.00000000000E+00  0.00000000000E+00  0.39999999674E+01  0.40000000000E+01  0.51100000000E-03 0. -1.
    9000002   -1    0    0    0    0 -0.00000000000E+00 -0.00000000000E+00  0.00000000000E+00  0.93800000000E+00  0.93800000000E+00 0.  1.
         11    1    1    2    0    0 -0.19473855112E-03 -0.39528761731E+00  0.27204435264E+01  0.27490117461E+01  0.51100000000E-03 0. -1.
    9000002    1    1    2    0    0  0.71519198259E-01  0.15658720730E+00  0.72419244443E-01  0.95641157259E+00  0.93800000000E+00 0.  1.
         22    1    1    2    0    0 -0.71324459708E-01  0.23870041001E+00  0.12071371965E+01  0.12325766813E+01  0.00000000000E+00 0.  1.
</event>
<event>
 5    1  0.2111786E+001  0.1537411E+01  0.7818608E-02  0.3424228E+00
         11   -1    0    0    0    0  0.00000000000E+00  0.00000000000E+00  0.39999999674E+01  0.40000000000E+01  0.51100000000E-03 0.  1.
    9000002   -1    0    0    0    0 -0.00000000000E+00 -0.00000000000E+00  0.00000000000E+00  0.93800000000E+00  0.93800000000E+00 0.  1.
         11    1    1    2    0    0 -0.17495546434E+00 -0.23023765252E+00  0.13471397584E+01  0.13778260343E+01  0.51100000000E-03 0.  1.
    9000002    1    1    2    0    0 -0.87312356820E-01  0.93026658941E-01  0.57920017702E-01  0.94840715696E+00  0.93800000000E+00 0.  1.
         22    1    1    2    0    0  0.26226782116E+00  0.13721099358E+00  0.25949401913E+01  0.26117668087E+01  0.00000000000E+00 0.  1.
</event>
<event>
 5    1  0.2111786E+001  0.1585451E+01  0.7818608E-02  0.3369307E+00
         11   -1    0    0    0    0  0.00000000000E+00  0.00000000000E+00  0.39999999674E+01  0.40000000000E+01  0.51100000000E-03 0.  1.
    9000002   -1    0    0    0    0 -0.00000000000E+00 -0.00000000000E+00  0.00000000000E+00  0.93800000000E+00  0.93800000000E+00 0. -1.
         11    1    1    2    0    0 -0.23196566433E+00  0.54834325904E+00  0.20230660517E+01  0.21088586747E+01  0.51100000000E-03 0.  1.
    9000002    1    1    2    0    0  0.25099741975E+00 -0.75332160533E+00  0.48199827675E+00  0.13200982859E+01  0.93800000000E+00 0. -1.
         22    1    1    2    0    0 -0.19031755425E-01  0.20497834628E+00  0.14949356389E+01  0.15090430393E+01  0.00000000000E+00 0.  1.
</event>
<event>
 5    1  0.2111786E+001  0.1516634E+01  0.7818608E-02  0.3449132E+00
         11   -1    0    0    0    0  0.00000000000E+00  0.00000000000E+00  0.39999999674E+01  0.40000000000E+01  0.51100000000E-03 0. -1.
    9000002   -1    0    0    0    0 -0.00000000000E+00 -0.00000000000E+00  0.00000000000E+00  0.93800000000E+00  0.93800000000E+00 0. -1.
         11    1    1    2    0    0  0.47881929190E+00 -0.16579996894E+00  0.92575947417E+00  0.10553617433E+01  0.51100000000E-03 0. -1.
    9000002    1    1    2    0    0  0.34971721028E-01  0.30863187912E+00  0.26469307132E+00  0.10229286779E+01  0.93800000000E+00 0. -1.
         22    1    1    2    0    0 -0.51379101293E+00 -0.14283191019E+00  0.28095474219E+01  0.28597095788E+01  0.00000000000E+00 0. -1.
</event>
<event>
 5    1  0.2111786E+001  0.1530524E+01  0.7818608E-02  0.3432404E+00
         11   -1    0    0    0    0  0.00000000000E+00  0.00000000000E+00  0.39999999674E+01  0.40000000000E+01  0.51100000000E-03 0.  1.
    9000002   -1    0    0    0    0 -0.00000000000E+00 -0.00000000000E+00  0.00000000000E+00  0.93800000000E+00  0.93800000000E+00 0.  1.
         11    1    1    2    0    0  0.28832269480E+00 -0.29113424081E+00  0.23719886223E+01  0.24071184865E+01  0.51100000000E-03 0.  1.
    9000002    1    1    2    0    0 -0.28210266519E+00  0.84892042662E-02  0.10877118079E+00  0.98556032290E+00  0.93800000000E+00 0.  1.
         22    1    1    2    0    0 -0.62200296089E-02  0.28264503654E+00  0.15192401642E+01  0.15453211906E+01  0.00000000000E+00 0.  1.
</event>
<event>
 5    1  0.2111786E+001  0.1569915E+01  0.7818608E-02  0.3386678E+00
         11   -1    0    0    0    0  0.00000000000E+00  0.00000000000E+00  0.39999999674E+01  0.40000000000E+01  0.51100000000E-03 0.  1.
    9000002   -1    0    0    0    0 -0.00000000000E+00 -0.00000000000E+00  0.00000000000E+00  0.93800000000E+00  0.93800000000E+00 0.  1.
         11    1    1    2    0    0  0.61971422587E-01 -0.51283748410E-01  0.22347950515E+01  0.22362423087E+01  0.51100000000E-03 0.  1.
    9000002    1    1    2    0    0  0.22471380672E+00 -0.53578194400E-01  0.58315954480E-01  0.96778699536E+00  0.93800000000E+00 0.  1.
         22    1    1    2    0    0 -0.28668522931E+00  0.10486194281E+00  0.17068889614E+01  0.17339706959E+01  0.00000000000E+00 0.  1.
</event>
<event>
 5    1  0.2111786E+001  0.1520844E+01  0.7818608E-02  0.3444027E+00
         11   -1    0    0    0    0  0.00000000000E+00  0.00000000000E+00  0.39999999674E+01  0.40000000000E+01  0.51100000000E-03 0.  1.
    9000002   -1    0    0    0    0 -0.00000000000E+00 -0.00000000000E+00  0.00000000000E+00  0.93800000000E+00  0.93800000000E+00 0.  1.
         11    1    1    2    0    0 -0.21810608416E+00 -0.29413591110E+00  0.12550187969E+01  0.13073479413E+01  0.51100000000E-03 0.  1.
    9000002    1    1    2    0    0  0.10440561791E+00  0.11467279385E+00  0.76586370017E-01  0.95381332281E+00  0.93800000000E+00 0.  1.
         22    1    1    2    0    0  0.11370046625E+00  0.17946311725E+00  0.26683948005E+01  0.26768387358E+01  0.00000000000E+00 0.  1.
</event>
<event>
 5    1  0.2111786E+001  0.1568565E+01  0.7818608E-02  0.3388205E+00
         11   -1    0    0    0    0  0.00000000000E+00  0.00000000000E+00  0.39999999674E+01  0.40000000000E+01  0.51100000000E-03 0.  1.
    9000002   -1    0    0    0    0 -0.00000000000E+00 -0.00000000000E+00  0.00000000000E+00  0.93800000000E+00  0.93800000000E+00 0. -1.
         11    1    1    2    0    0 -0.84637839503E-01 -0.19693211440E+00  0.16781646754E+01  0.16917986761E+01  0.51100000000E-03 0.  1.
    9000002    1    1    2    0    0 -0.66021859161E-01  0.47311741521E-01  0.27344675561E-01  0.94190711753E+00  0.93800000000E+00 0. -1.
         22    1    1    2    0    0  0.15065969866E+00  0.14962037288E+00  0.22944906164E+01  0.23042942064E+01  0.00000000000E+00 0.  1.
</event>
<event>
 5    1  0.2111786E+001  0.1565174E+01  0.7818608E-02  0.3392052E+00
         11   -1    0    0    0    0  0.00000000000E+00  0.00000000000E+00  0.39999999674E+01  0.40000000000E+01  0.51100000000E-03 0.  1.
    9000002   -1    0    0    0    0 -0.00000000000E+00 -0.00000000000E+00  0.00000000000E+00  0.93800000000E+00  0.93800000000E+00 0. -1.
         11    1    1    2    0    0 -0.66984357597E-01  0.15943225905E+00  0.83059295408E+00  0.84840465927E+00  0.51100000000E-03 0.  1.
    9000002    1    1    2    0    0 -0.38572653595E-01  0.31520383090E-01  0.27089735919E-01  0.93971231659E+00  0.93800000000E+00 0. -1.
         22    1    1    2    0    0  0.10555701119E+00 -0.19095264214E+00  0.31423172774E+01  0.31498830241E+01  0.00000000000E+00 0.  1.
</event>
<event>
 5    1  0.2111786E+001  0.1547741E+01  0.7818608E-02  0.3412113E+00
         11   -1    0    0    0    0  0.00000000000E+00  0.00000000000E+00  0.39999999674E+01  0.40000000000E+01  0.51100000000E-03 0.  1.
    9000002   -1    0    0    0    0 -0.00000000000E+00 -0.00000000000E+00  0.00000000000E+00  0.93800000000E+00  0.93800000000E+00 0.  1.
         11    1    1    2    0    0 -0.11341902169E+00 -0.13723789024E+00  0.40741586075E+00  0.44461900286E+00  0.51100000000E-03 0.  1.
    9000002    1    1    2    0    0 -0.14352444421E+00  0.23776505334E+00  0.92694804524E-01  0.98263310216E+00  0.93800000000E+00 0.  1.
         22    1    1    2    0    0  0.25694346590E+00 -0.10052716310E+00  0.34998893021E+01  0.35107478950E+01  0.00000000000E+00 0.  1.
</event>
<event>
 5    1  0.2111786E+001  0.1578607E+01  0.7818608E-02  0.3376915E+00
         11   -1    0    0    0    0  0.00000000000E+00  0.00000000000E+00  0.39999999674E+01  0.40000000000E+01  0.51100000000E-03 0. -1.
    9000002   -1    0    0    0    0 -0.00000000000E+00 -0.00000000000E+00  0.00000000000E+00  0.93800000000E+00  0.93800000000E+00 0. -1.
         11    1    1    2    0    0  0.13402280308E+00 -0.44301597441E-01  0.14799081890E+01  0.14866247853E+01  0.51100000000E-03 0. -1.
    9000002    1    1    2    0    0  0.73364452920E-01 -0.14825217773E-01  0.19173819656E-01  0.94117679816E+00  0.93800000000E+00 0. -1.
         22    1    1    2    0    0 -0.20738725600E+00  0.59126815214E-01  0.25009179587E+01  0.25101984165E+01  0.00000000000E+00 0. -1.
</event>
<event>
 5    1  0.2111786E+001  0.1527251E+01  0.7818608E-02  0.3436316E+00
         11   -1    0    0    0    0  0.00000000000E+00  0.00000000000E+00  0.39999999674E+01  0.40000000000E+01  0.51100000000E-03 0. -1.
    9000002   -1    0    0    0    0 -0.00000000000E+00 -0.00000000000E+00  0.00000000000E+00  0.93800000000E+00  0.93800000000E+00 0.  1.
         11    1    1    2    0    0  0.28391465820E+00 -0.10956600922E+00  0.95593677377E+00  0.10032086623E+01  0.51100000000E-03 0. -1.
    9000002    1    1    2    0    0 -0.84904771844E-01  0.61984333941E-01  0.62203993952E-01  0.94591977186E+00  0.93800000000E+00 0.  1.
         22    1    1    2    0    0 -0.19900988636E+00  0.47581675278E-01  0.29818591996E+01  0.29888715659E+01  0.00000000000E+00 0. -1.
</event>
<event>
 5    1  0.2111786E+001  0.1588390E+01  0.7818608E-02  0.3366062E+00
         11   -1    0    0    0    0  0.00000000000E+00  0.00000000000E+00  0.39999999674E+01  0.40000000000E+01  0.51100000000E-03 0.  1.
    9000002   -1    0    0    0    0 -0.00000000000E+00 -0.00000000000E+00  0.00000000000E+00  0.93800000000E+00  0.93800000000E+00 0. -1.
         11    1    1    2    0    0 -0.72762954150E-02  0.71900667219E-01  0.93240370422E+00  0.93520028827E+00  0.51100000000E-03 0.  1.
    9000002    1    1    2    0    0 -0.49024265722E-02  0.15391228163E+00  0.24046606351E-01  0.95086027549E+00  0.93800000000E+00 0. -1.
         22    1    1    2    0    0  0.12178721987E-01 -0.22581294885E+00  0.30435496568E+01  0.30519394362E+01  0.00000000000E+00 0.  1.
</event>
<event>
 5    1  0.2111786E+001  0.1519610E+01  0.7818608E-02  0.3445521E+00
         11   -1    0    0    0    0  0.00000000000E+00  0.00000000000E+00  0.39999999674E+01  0.40000000000E+01  0.51100000000E-03 0.  1.
    9000002   -1    0    0    0    0 -0.00000000000E+00 -0.00000000000E+00  0.00000000000E+00  0.93800000000E+00  0.93800000000E+00 0.  1.
         11    1    1    2    0    0 -0.17369936020E+00 -0.33022080041E+00  0.30307139891E+01  0.30535953874E+01  0.51100000000E-03 0.  1.
    9000002    1    1    2    0    0  0.17013151552E-01  0.11979534131E+00  0.70821639245E-01  0.94841977822E+00  0.93800000000E+00 0.  1.
         22    1    1    2    0    0  0.15668620865E+00  0.21042545910E+00  0.89846433897E+00  0.93598483440E+00  0.00000000000E+00 0.  1.
</event>
<event>
 5    1  0.2111786E+001  0.1572259E+01  0.7818608E-02  0.3384034E+00
         11   -1    0    0    0    0  0.00000000000E+00  0.00000000000E+00  0.39999999674E+01  0.40000000000E+01  0.51100000000E-03 0.  1.
    9000002   -1    0    0    0    0 -0.00000000000E+00 -0.00000000000E+00  0.00000000000E+00  0.93800000000E+00  0.93800000000E+00 0.  1.
         11    1    1    2    0    0 -0.28442478561E+00 -0.18741733594E-01  0.10975299989E+01  0.11339405059E+01  0.51100000000E-03 0.  1.
    9000002    1    1    2    0    0  0.40766748872E+00 -0.17492231595E+00  0.15748541181E+00  0.10494933315E+01  0.93800000000E+00 0.  1.
         22    1    1    2    0    0 -0.12324270310E+00  0.19366404954E+00  0.27449845566E+01  0.27545661626E+01  0.00000000000E+00 0.  1.
</event>
<event>
 5    1  0.2111786E+001  0.1530666E+01  0.7818608E-02  0.3432235E+00
         11   -1    0    0    0    0  0.00000000000E+00  0.00000000000E+00  0.39999999674E+01  0.40000000000E+01  0.51100000000E-03 0.  1.
    9000002   -1    0    0    0    0 -0.00000000000E+00 -0.00000000000E+00  0.00000000000E+00  0.93800000000E+00  0.93800000000E+00 0. -1.
         11    1    1    2    0    0 -0.20433253469E+00 -0.61200963862E-01  0.73612318592E+00  0.76640390701E+00  0.51100000000E-03 0.  1.
    9000002    1    1    2    0    0 -0.16440983695E+00 -0.86667849363E-01  0.76209960075E-01  0.95926736034E+00  0.93800000000E+00 0. -1.
         22    1    1    2    0    0  0.36874237164E+00  0.14786881322E+00  0.31876668214E+01  0.32123287326E+01  0.00000000000E+00 0.  1.
</event>
<event>
 5    1  0.2111786E+001  0.1555328E+01  0.7818608E-02  0.3403324E+00
         11   -1    0    0    0    0  0.00000000000E+00  0.00000000000E+00  0.39999999674E+01  0.40000000000E+01  0.51100000000E-03 0. -1.
    9000002   -1    0    0    0    0 -0.00000000000E+00 -0.00000000000E+00  0.00000000000E+00  0.93800000000E+00  0.93800000000E+00 0.  1.
         11    1    1    2    0    0 -0.21057597759E-01  0.26636920066E+00  0.17976976266E+01  0.18174468332E+01  0.51100000000E-03 0. -1.
    9000002    1    1    2    0    0  0.32993746901E-01 -0.31129188261E-01  0.34226132730E-01  0.93971966131E+00  0.93800000000E+00 0.  1.
         22    1    1    2    0    0 -0.11936149143E-01 -0.23524001240E+00  0.21680762080E+01  0.21808335055E+01  0.00000000000E+00 0. -1.
</event>
<event>
 5    1  0.2111786E+001  0.1567774E+01  0.7818608E-02  0.3389101E+00
         11   -1    0    0    0    0  0.00000000000E+00  0.00000000000E+00  0.39999999674E+01  0.40000000000E+01  0.51100000000E-03 0. -1.
    9000002   -1    0    0    0    0 -0.00000000000E+00 -0.00000000000E+00  0.00000000000E+00  0.93800000000E+00  0.93800000000E+00 0. -1.
         11    1    1    2    0    0 -0.42858223391E-01 -0.86392526212E-01  0.31275454763E+01  0.31290320330E+01  0.51100000000E-03 0. -1.
    9000002    1    1    2    0    0 -0.16734178935E+00  0.12011663407E+00  0.52453962264E-01  0.96178308282E+00  0.93800000000E+00 0. -1.
         22    1    1    2    0    0  0.21020001274E+00 -0.33724107858E-01  0.82000052876E+00  0.84718488418E+00  0.00000000000E+00 0.  1.
</event>
<event>
 5    1  0.2111786E+001  0.1526336E+01  0.7818608E-02  0.3437413E+00
         11   -1    0    0    0    0  0.00000000000E+00  0.00000000000E+00  0.39999999674E+01  0.40000000000E+01  0.51100000000E-03 0. -1.
    9000002   -1    0    0    0    0 -0.00000000000E+00 -0.00000000000E+00  0.00000000000E+00  0.93800000000E+00  0.93800000000E+00 0.  1.
         11    1    1    2    0    0 -0.22907657845E+00 -0.12608462651E+00  0.30922372155E+01  0.31032732187E+01  0.51100000000E-03 0. -1.
    9000002    1    1    2    0    0  0.22374500378E+00 -0.16968913200E+00  0.11170840946E+00  0.98548414344E+00  0.93800000000E+00 0.  1.
         22    1    1    2    0    0  0.53315746694E-02  0.29577375851E+00  0.79605434242E+00  0.84924263788E+00  0.00000000000E+00 0. -1.
</event>
<event>
 5    1  0.2111786E+001  0.1570278E+01  0.7818608E-02  0.3386268E+00
         11   -1    0    0    0    0  0.00000000000E+00  0.00000000000E+00  0.39999999674E+01  0.40000000000E+01  0.51100000000E-03 0.  1.
    9000002   -1    0    0    0    0 -0.00000000000E+00 -0.00000000000E+00  0.00000000000E+00  0.93800000000E+00  0.93800000000E+00 0. -1.
         11    1    1    2    0    0 -0.90562084051E-01  0.18401312663E+00  0.21905922238E+01  0.22001720101E+01  0.51100000000E-03 0.  1.
    9000002    1    1    2    0    0  0.62751887352E-01  0.24401691601E-01  0.24659194647E-01  0.94073658258E+00  0.93800000000E+00 0. -1.
         22    1    1    2    0    0  0.27810196700E-01 -0.20841481824E+00  0.17847485489E+01  0.17970914073E+01  0.00000000000E+00 0.  1.
</event>
<event>
 5    1  0.2111786E+001  0.1581899E+01  0.7818608E-02  0.3373247E+00
         11   -1    0    0    0    0  0.00000000000E+00  0.00000000000E+00  0.39999999674E+01  0.40000000000E+01  0.51100000000E-03 0.  1.
    9000002   -1    0    0    0    0 -0.00000000000E+00 -0.00000000000E+00  0.00000000000E+00  0.93800000000E+00  0.93800000000E+00 0.  1.
         11    1    1    2    0    0 -0.11457870696E+00 -0.48339888638E-01  0.12658927858E+01  0.12719865688E+01  0.51100000000E-03 0.  1.
    9000002    1    1    2    0    0  0.46045202537E-01 -0.19739049071E+00  0.40658413579E-01  0.96051042321E+00  0.93800000000E+00 0.  1.
         22    1    1    2    0    0  0.68533504424E-01  0.24573037934E+00  0.26934487679E+01  0.27055030080E+01  0.00000000000E+00 0.  1.
</event>
<event>
 5    1  0.2111786E+001  0.1591522E+01  0.7818608E-02  0.3362617E+00
         11   -1    0    0    0    0  0.00000000000E+00  0.00000000000E+00  0.39999999674E+01  0.40000000000E+01  0.51100000000E-03 0.  1.
    9000002   -1    0    0    0    0 -0.00000000000E+00 -0.00000000000E+00  0.00000000000E+00  0.93800000000E+00  0.93800000000E+00 0.  1.
         11    1    1    2    0    0 -0.18181124398E+00 -0.39303129883E+00  0.21883032330E+01  0.22307398393E+01  0.51100000000E-03 0.  1.
    9000002    1    1    2    0    0  0.42805796545E+00  0.52933791843E+00  0.33849971395E+00  0.12074180345E+01  0.93800000000E+00 0.  1.
         22    1    1    2    0    0 -0.24624672147E+00 -0.13630661960E+00  0.14731970205E+01  0.14998421262E+01  0.00000000000E+00 0.  1.
</event>
<event>
 5    1  0.2111786E+001  0.1538934E+01  0.7818608E-02  0.3422432E+00
         11   -1    0    0    0    0  0.00000000000E+00  0.00000000000E+00  0.39999999674E+01  0.40000000000E+01  0.51100000000E-03 0.  1.
    9000002   -1    0    0    0    0 -0.00000000000E+00 -0.00000000000E+00  0.00000000000E+00  0.93800000000E+00  0.93800000000E+00 0.  1.
         11    1    1    2    0    0  0.15987541388E+00 -0.26854597838E+00  0.12999496805E+01  0.13369915944E+01  0.51100000000E-03 0.  1.
    9000002    1    1    2    0    0 -0.77638573214E-01  0.70756436202E-01  0.53047824246E-01  0.94535299913E+00  0.93800000000E+00 0.  1.
         22    1    1    2    0    0 -0.82236840670E-01  0.19778954217E+00  0.26470024626E+01  0.26556554065E+01  0.00000000000E+00 0.  1.
</event>
<event>
 5    1  0.2111786E+001  0.1496824E+01  0.7818608E-02  0.3473569E+00
         11   -1    0    0    0    0  0.00000000000E+00  0.00000000000E+00  0.39999999674E+01  0.40000000000E+01  0.51100000000E-03 0.  1.
    9000002   -1    0    0    0    0 -0.00000000000E+00 -0.00000000000E+00  0.00000000000E+00  0.93800000000E+00  0.93800000000E+00 0.  1.
         11    1    1    2    0    0 -0.28466779959E+00  0.23639327905E+00  0.27359234229E+01  0.27608322614E+01  0.51100000000E-03 0.  1.
    9000002    1    1    2    0    0 -0.42275981843E-02 -0.39434927435E-01  0.79650293191E-01  0.94221078071E+00  0.93800000000E+00 0.  1.
         22    1    1    2    0    0  0.28889539777E+00 -0.19695835162E+00  0.11844262512E+01  0.12349569578E+01  0.00000000000E+00 0.  1.
</event>
<event>
 5    1  0.2111786E+001  0.1469374E+01  0.7818608E-02  0.3508607E+00
         11   -1    0    0    0    0  0.00000000000E+00  0.00000000000E+00  0.39999999674E+01  0.40000000000E+01  0.51100000000E-03 0.  1.
    9000002   -1    0    0    0    0 -0.00000000000E+00 -0.00000000000E+00  0.00000000000E+00  0.93800000000E+00  0.93800000000E+00 0. -1.
         11    1    1    2    0    0  0.23333748643E-01 -0.46492565700E+00  0.98835514912E+00  0.10924955342E+01  0.51100000000E-03 0.  1.
    9000002    1    1    2    0    0 -0.13887082644E+00  0.29802474578E+00  0.18431914192E+00  0.10109012818E+01  0.93800000000E+00 0. -1.
         22    1    1    2    0    0  0.11553707779E+00  0.16690091122E+00  0.28273256763E+01  0.28346031840E+01  0.00000000000E+00 0.  1.
</event>
<event>
 5    1  0.2111786E+001  0.1575804E+01  0.7818608E-02  0.3380051E+00
         11   -1    0    0    0    0  0.00000000000E+00  0.00000000000E+00  0.39999999674E+01  0.40000000000E+01  0.51100000000E-03 0.  1.
    9000002   -1    0    0    0    0 -0.00000000000E+00 -0.00000000000E+00  0.00000000000E+00  0.93800000000E+00  0.93800000000E+00 0. -1.
         11    1    1    2    0    0  0.10015405942E+00  0.69230814629E-01  0.76907198545E+00  0.77864993498E+00  0.51100000000E-03 0.  1.
    9000002    1    1    2    0    0  0.13039686634E+00  0.39065599272E-01  0.29996968858E-01  0.94830020665E+00  0.93800000000E+00 0. -1.
         22    1    1    2    0    0 -0.23055092576E+00 -0.10829641390E+00  0.32009310130E+01  0.32110498584E+01  0.00000000000E+00 0.  1.
</event>
<event>
 5    1  0.2111786E+001  0.1457834E+01  0.7818608E-02  0.3523765E+00
         11   -1    0    0    0    0  0.00000000000E+00  0.00000000000E+00  0.39999999674E+01  0.40000000000E+01  0.51100000000E-03 0.  1.
    9000002   -1    0    0    0    0 -0.00000000000E+00 -0.00000000000E+00  0.00000000000E+00  0.93800000000E+00  0.93800000000E+00 0.  1.
         11    1    1    2    0    0 -0.67192053718E+00 -0.25150672103E+00  0.27665851304E+01  0.28580983860E+01  0.51100000000E-03 0.  1.
    9000002    1    1    2    0    0  0.67795741504E+00 -0.11812852542E+00  0.51564462732E+00  0.12725226862E+01  0.93800000000E+00 0.  1.
         22    1    1    2    0    0 -0.60368778563E-02  0.36963524645E+00  0.71777020960E+00  0.80737892783E+00  0.00000000000E+00 0.  1.
</event>
<event>
 5    1  0.2111786E+001  0.1515672E+01  0.7818608E-02  0.3450304E+00
         11   -1    0    0    0    0  0.00000000000E+00  0.00000000000E+00  0.39999999674E+01  0.40000000000E+01  0.51100000000E-03 0.  1.
    9000002   -1    0    0    0    0 -0.00000000000E+00 -0.00000000000E+00  0.00000000000E+00  0.93800000000E+00  0.93800000000E+00 0. -1.
         11    1    1    2    0    0 -0.11865626893E+00 -0.87518459786E-01  0.14350363964E+00  0.20574826043E+00  0.51100000000E-03 0.  1.
    9000002    1    1    2    0    0  0.19011216723E+00 -0.10202095967E+00  0.97074831511E-01  0.96737709052E+00  0.93800000000E+00 0. -1.
         22    1    1    2    0    0 -0.71455898303E-01  0.18953941946E+00  0.37594214962E+01  0.37648746491E+01  0.00000000000E+00 0.  1.
</event>
<event>
 5    1  0.2111786E+001  0.1550877E+01  0.7818608E-02  0.3408469E+00
         11   -1    0    0    0    0  0.00000000000E+00  0.00000000000E+00  0.39999999674E+01  0.40000000000E+01  0.51100000000E-03 0. -1.
    9000002   -1    0    0    0    0 -0.00000000000E+00 -0.00000000000E+00  0.00000000000E+00  0.93800000000E+00  0.93800000000E+00 0.  1.
         11    1    1    2    0    0 -0.13672702392E+00 -0.22556727527E+00  0.15253743889E+01  0.15480123263E+01  0.51100000000E-03 0. -1.
    9000002    1    1    2    0    0  0.76535035125E-01 -0.26022842846E-01  0.40703171294E-01  0.94235638063E+00  0.93800000000E+00 0.  1.
         22    1    1    2    0    0  0.60191988800E-01  0.25159011812E+00  0.24339224071E+01  0.24476312931E+01  0.00000000000E+00 0. -1.
</event>
<event>
 5    1  0.2111786E+001  0.1554561E+01  0.7818608E-02  0.3404208E+00
         11   -1    0    0    0    0  0.00000000000E+00  0.00000000000E+00  0.39999999674E+01  0.40000000000E+01  0.51100000000E-03 0.  1.
    9000002   -1    0    0    0    0 -0.00000000000E+00 -0.00000000000E+00  0.00000000000E+00  0.93800000000E+00  0.93800000000E+00 0.  1.
         11    1    1    2    0    0  0.91309746559E-01  0.14882156238E+00  0.32542709375E+01  0.32589515067E+01  0.51100000000E-03 0.  1.
    9000002    1    1    2    0    0  0.54492831373E-01 -0.72007557752E-02  0.35471070148E-01  0.94027842492E+00  0.93800000000E+00 0.  1.
         22    1    1    2    0    0 -0.14580257793E+00 -0.14162080661E+00  0.71025795969E+00  0.73877006835E+00  0.00000000000E+00 0. -1.
</event>
<event>
 5    1  0.2111786E+001  0.1555669E+01  0.7818608E-02  0.3402931E+00
         11   -1    0    0    0    0  0.00000000000E+00  0.00000000000E+00  0.39999999674E+01  0.40000000000E+01  0.51100000000E-03 0. -1.
    9000002   -1    0    0    0    0 -0.00000000000E+00 -0.00000000000E+00  0.00000000000E+00  0.93800000000E+00  0.93800000000E+00 0.  1.
         11    1    1    2    0    0  0.42273005686E-01 -0.29263930627E-01  0.26587406216E+01  0.26592377365E+01  0.51100000000E-03 0. -1.
    9000002    1    1    2    0    0  0.28320791130E+00 -0.73437919676E-02  0.88436057215E-01  0.98383209366E+00  0.93800000000E+00 0.  1.
         22    1    1    2    0    0 -0.32548091699E+00  0.36607722595E-01  0.12528232885E+01  0.12949301699E+01  0.00000000000E+00 0.  1.
</event>
<event>
 5    1  0.2111786E+001  0.1575476E+01  0.7818608E-02  0.3380418E+00
         11   -1    0    0    0    0  0.00000000000E+00  0.00000000000E+00  0.39999999674E+01  0.40000000000E+01  0.51100000000E-03 0.  1.
    9000002   -1    0    0    0    0 -0.00000000000E+00 -0.00000000000E+00  0.00000000000E+00  0.93800000000E+00  0.93800000000E+00 0. -1.
         11    1    1    2    0    0 -0.12951765004E+00  0.12548389031E+00  0.14089315519E+01  0.14204257838E+01  0.51100000000E-03 0.  1.
    9000002    1    1    2    0    0 -0.80450955600E-01 -0.11578124515E+00  0.31157265602E-01  0.94904816958E+00  0.93800000000E+00 0. -1.
         22    1    1    2    0    0  0.20996860564E+00 -0.97026451544E-02  0.25599111499E+01  0.25685260466E+01  0.00000000000E+00 0.  1.
</event>
<event>
 5    1  0.2111786E+001  0.1486054E+01  0.7818608E-02  0.3487150E+00
         11   -1    0    0    0    0  0.00000000000E+00  0.00000000000E+00  0.39999999674E+01  0.40000000000E+01  0.51100000000E-03 0.  1.
    9000002   -1    0    0    0    0 -0.00000000000E+00 -0.00000000000E+00  0.00000000000E+00  0.93800000000E+00  0.93800000000E+00 0.  1.
         11    1    1    2    0    0 -0.26913159333E+00  0.28452826365E-01  0.34933953151E+00  0.44190468119E+00  0.51100000000E-03 0.  1.
    9000002    1    1    2    0    0  0.23346607270E+00 -0.22616208173E+00  0.16703038723E+00  0.10066771303E+01  0.93800000000E+00 0.  1.
         22    1    1    2    0    0  0.35665520623E-01  0.19770925537E+00  0.34836300486E+01  0.34894181886E+01  0.00000000000E+00 0.  1.
</event>
<event>
 5    1  0.2111786E+001  0.1538402E+01  0.7818608E-02  0.3423058E+00
         11   -1    0    0    0    0  0.00000000000E+00  0.00000000000E+00  0.39999999674E+01  0.40000000000E+01  0.51100000000E-03 0.  1.
    9000002   -1    0    0    0    0 -0.00000000000E+00 -0.00000000000E+00  0.00000000000E+00  0.93800000000E+00  0.93800000000E+00 0. -1.
         11    1    1    2    0    0  0.65093048252E-01 -0.31228371260E+00  0.14279693281E+01  0.14631660484E+01  0.51100000000E-03 0.  1.
    9000002    1    1    2    0    0 -0.14142749011E-01  0.87953224546E-01  0.51287327824E-01  0.94361548157E+00  0.93800000000E+00 0. -1.
         22    1    1    2    0    0 -0.50950299240E-01  0.22433048805E+00  0.25207433115E+01  0.25312184701E+01  0.00000000000E+00 0.  1.
</event>
<event>
 5    1  0.2111786E+001  0.1444149E+01  0.7818608E-02  0.3542082E+00
         11   -1    0    0    0    0  0.00000000000E+00  0.00000000000E+00  0.39999999674E+01  0.40000000000E+01  0.51100000000E-03 0. -1.
    9000002   -1    0    0    0    0 -0.00000000000E+00 -0.00000000000E+00  0.00000000000E+00  0.93800000000E+00  0.93800000000E+00 0. -1.
         11    1    1    2    0    0  0.27414267960E+00  0.52905132226E-01  0.35231879656E+01  0.35342335611E+01  0.51100000000E-03 0. -1.
    9000002    1    1    2    0    0 -0.16631556912E+00  0.21050664776E+00  0.17915152882E+00  0.99192398275E+00  0.93800000000E+00 0. -1.
         22    1    1    2    0    0 -0.10782711048E+00 -0.26341177999E+00  0.29766047291E+00  0.41184245620E+00  0.00000000000E+00 0. -1.
</event>
<event>
 5    1  0.2111786E+001  0.1544943E+01  0.7818608E-02  0.3415378E+00
         11   -1    0    0    0    0  0.00000000000E+00  0.00000000000E+00  0.39999999674E+01  0.40000000000E+01  0.51100000000E-03 0.  1.
    9000002   -1    0    0    0    0 -0.00000000000E+00 -0.00000000000E+00  0.00000000000E+00  0.93800000000E+00  0.93800000000E+00 0.  1.
         11    1    1    2    0    0  0.11166959182E+00 -0.27645305969E+00  0.21600862595E+01  0.21805662800E+01  0.51100000000E-03 0.  1.
    9000002    1    1    2    0    0 -0.15879139502E-01  0.28844477342E-01  0.41463803550E-01  0.93949316014E+00  0.93800000000E+00 0.  1.
         22    1    1    2    0    0 -0.95790452316E-01  0.24760858235E+00  0.17984499044E+01  0.18179405599E+01  0.00000000000E+00 0.  1.
</event>
<event>
 5    1  0.2111786E+001  0.1550215E+01  0.7818608E-02  0.3409237E+00
         11   -1    0    0    0    0  0.00000000000E+00  0.00000000000E+00  0.39999999674E+01  0.40000000000E+01  0.51100000000E-03 0. -1.
    9000002   -1    0    0    0    0 -0.00000000000E+00 -0.00000000000E+00  0.00000000000E+00  0.93800000000E+00  0.93800000000E+00 0. -1.
         11    1    1    2    0    0  0.24736207026E+00  0.29073878113E+00  0.15338914778E+01  0.15806771838E+01  0.51100000000E-03 0. -1.
    9000002    1    1    2    0    0 -0.60254439551E-01 -0.38179348205E+00  0.14256836942E+00  0.10244835774E+01  0.93800000000E+00 0. -1.
         22    1    1    2    0    0 -0.18710763070E+00  0.91054700921E-01  0.23235401202E+01  0.23328392388E+01  0.00000000000E+00 0.  1.
</event>
<event>
 5    1  0.2111786E+001  0.1508711E+01  0.7818608E-02  0.3458824E+00
         11   -1    0    0    0    0  0.00000000000E+00  0.00000000000E+00  0.39999999674E+01  0.40000000000E+01  0.51100000000E-03 0. -1.
    9000002   -1    0    0    0    0 -0.00000000000E+00 -0.00000000000E+00  0.00000000000E+00  0.93800000000E+00  0.93800000000E+00 0. -1.
         11    1    1    2    0    0 -0.24629571082E+00 -0.40447041451E+00  0.13857687422E+01  0.14644497811E+01  0.51100000000E-03 0. -1.
    9000002    1    1    2    0    0  0.41809863753E+00  0.17556519498E+00  0.22326411902E+00  0.10655141835E+01  0.93800000000E+00 0. -1.
         22    1    1    2    0    0 -0.17180292671E+00  0.22890521953E+00  0.23909671061E+01  0.24080360354E+01  0.00000000000E+00 0. -1.
</event>
<event>
 5    1  0.2111786E+001  0.1521529E+01  0.7818608E-02  0.3443199E+00
         11   -1    0    0    0    0  0.00000000000E+00  0.00000000000E+00  0.39999999674E+01  0.40000000000E+01  0.51100000000E-03 0. -1.
    9000002   -1    0    0    0    0 -0.00000000000E+00 -0.00000000000E+00  0.00000000000E+00  0.93800000000E+00  0.93800000000E+00 0.  1.
         11    1    1    2    0    0  0.11337464691E+00 -0.15096623389E+00  0.27784941012E+01  0.27849011375E+01  0.51100000000E-03 0. -1.
    9000002    1    1    2    0    0 -0.16187689832E+00 -0.21780212345E+00  0.11195186956E+00  0.98286271487E+00  0.93800000000E+00 0.  1.
         22    1    1    2    0    0  0.48502251409E-01  0.36876835734E+00  0.11095539966E+01  0.11702361476E+01  0.00000000000E+00 0.  1.
</event>
<event>
 5    1  0.2111786E+001  0.1542622E+01  0.7818608E-02  0.3418095E+00
         11   -1    0    0    0    0  0.00000000000E+00  0.00000000000E+00  0.39999999674E+01  0.40000000000E+01  0.51100000000E-03 0. -1.
    9000002   -1    0    0    0    0 -0.00000000000E+00 -0.00000000000E+00  0.00000000000E+00  0.93800000000E+00  0.93800000000E+00 0. -1.
         11    1    1    2    0    0  0.10474776234E+00  0.16782139971E+00  0.81460228101E+00  0.83827993729E+00  0.51100000000E-03 0. -1.
    9000002    1    1    2    0    0  0.88598113355E-01  0.14670922508E+00  0.63040717368E-01  0.95561046167E+00  0.93800000000E+00 0. -1.
         22    1    1    2    0    0 -0.19334587569E+00 -0.31453062479E+00  0.31223569690E+01  0.31441096010E+01  0.00000000000E+00 0. -1.
</event>
<event>
 5    1  0.2111786E+001  0.1542373E+01  0.7818608E-02  0.3418387E+00
         11   -1    0    0    0    0  0.00000000000E+00  0.00000000000E+00  0.39999999674E+01  0.40000000000E+01  0.51100000000E-03 0.  1.
    9000002   -1    0    0    0    0 -0.00000000000E+00 -0.00000000000E+00  0.00000000000E+00  0.93800000000E+00  0.93800000000E+00 0.  1.
         11    1    1    2    0    0 -0.19866983982E+00 -0.19606880060E+00  0.14192826593E+01  0.14464702583E+01  0.51100000000E-03 0.  1.
    9000002    1    1    2    0    0  0.26676283265E-01 -0.15998012368E-01  0.43352915281E-01  0.93951638397E+00  0.93800000000E+00 0.  1.
         22    1    1    2    0    0  0.17199355656E+00  0.21206681296E+00  0.25373643928E+01  0.25520133578E+01  0.00000000000E+00 0.  1.
</event>
<event>
 5    1  0.2111786E+001  0.1387648E+01  0.7818608E-02  0.3626878E+00
         11   -1    0    0    0    0  0.00000000000E+00  0.00000000000E+00  0.39999999674E+01  0.40000000000E+01  0.51100000000E-03 0. -1.
    9000002   -1    0    0    0    0 -0.00000000000E+00 -0.00000000000E+00  0.00000000000E+00  0.93800000000E+00  0.93800000000E+00 0. -1.
         11    1    1    2    0    0 -0.62412459153E+00  0.22225306166E+00  0.19121682707E+01  0.20236886336E+01  0.51100000000E-03 0. -1.
    9000002    1    1    2    0    0  0.22607018255E+00 -0.74683164993E-02  0.21621333928E+00  0.98881530696E+00  0.93800000000E+00 0. -1.
         22    1    1    2    0    0  0.39805440897E+00 -0.21478474516E+00  0.18716183574E+01  0.19254960595E+01  0.00000000000E+00 0.  1.
</event>
<event>
 5    1  0.2111786E+001  0.1501469E+01  0.7818608E-02  0.3467778E+00
         11   -1    0    0    0    0  0.00000000000E+00  0.00000000000E+00  0.39999999674E+01  0.40000000000E+01  0.51100000000E-03 0.  1.
    9000002   -1    0    0    0    0 -0.00000000000E+00 -0.00000000000E+00  0.00000000000E+00  0.93800000000E+00  0.93800000000E+00 0.  1.
         11    1    1    2    0    0  0.35025939842E+00 -0.31208480343E+00  0.21116115797E+01  0.21630955354E+01  0.51100000000E-03 0.  1.
    9000002    1    1    2    0    0 -0.20153121924E+00  0.43652443640E-01  0.10593086305E+00  0.96622239464E+00  0.93800000000E+00 0.  1.
         22    1    1    2    0    0 -0.14872817918E+00  0.26843235979E+00  0.17824575246E+01  0.18086820699E+01  0.00000000000E+00 0.  1.
</event>
<event>
 5    1  0.2111786E+001  0.1538797E+01  0.7818608E-02  0.3422593E+00
         11   -1    0    0    0    0  0.00000000000E+00  0.00000000000E+00  0.39999999674E+01  0.40000000000E+01  0.51100000000E-03 0. -1.
    9000002   -1    0    0    0    0 -0.00000000000E+00 -0.00000000000E+00  0.00000000000E+00  0.93800000000E+00  0.93800000000E+00 0. -1.
         11    1    1    2    0    0 -0.24729073147E+00 -0.39781729812E-01  0.88411301077E+00  0.91890770420E+00  0.51100000000E-03 0. -1.
    9000002    1    1    2    0    0  0.15458146126E-01 -0.39988698866E-01  0.46712017090E-01  0.94014044848E+00  0.93800000000E+00 0. -1.
         22    1    1    2    0    0  0.23183258534E+00  0.79770428678E-01  0.30691749395E+01  0.30789518473E+01  0.00000000000E+00 0. -1.
</event>
<event>
 5    1  0.2111786E+001  0.1574908E+01  0.7818608E-02  0.3381056E+00
         11   -1    0    0    0    0  0.00000000000E+00  0.00000000000E+00  0.39999999674E+01  0.40000000000E+01  0.51100000000E-03 0. -1.
    9000002   -1    0    0    0    0 -0.00000000000E+00 -0.00000000000E+00  0.00000000000E+00  0.93800000000E+00  0.93800000000E+00 0. -1.
         11    1    1    2    0    0 -0.22454094698E+00 -0.52883142828E-01  0.17948980748E+01  0.18096614666E+01  0.51100000000E-03 0. -1.
    9000002    1    1    2    0    0  0.97130601820E-01  0.23802273426E+00  0.63161514522E-01  0.97463970407E+00  0.93800000000E+00 0. -1.
         22    1    1    2    0    0  0.12741034516E+00 -0.18513959143E+00  0.21419403780E+01  0.21536988293E+01  0.00000000000E+00 0. -1.
</event>
<event>
 5    1  0.2111786E+001  0.1595386E+01  0.7818608E-02  0.3358387E+00
         11   -1    0    0    0    0  0.00000000000E+00  0.00000000000E+00  0.39999999674E+01  0.40000000000E+01  0.51100000000E-03 0. -1.
    9000002   -1    0    0    0    0 -0.00000000000E+00 -0.00000000000E+00  0.00000000000E+00  0.93800000000E+00  0.93800000000E+00 0. -1.
         11    1    1    2    0    0  0.10426871950E+00  0.21461932135E+00  0.16283257119E+01  0.16457151345E+01  0.51100000000E-03 0. -1.
    9000002    1    1    2    0    0 -0.30446856478E+00 -0.33281010049E+00  0.14192973747E+00  0.10504531024E+01  0.93800000000E+00 0. -1.
         22    1    1    2    0    0  0.20019984529E+00  0.11819077914E+00  0.22297445180E+01  0.22418317631E+01  0.00000000000E+00 0. -1.
</event>
<event>
 5    1  0.2111786E+001  0.1588753E+01  0.7818608E-02  0.3365661E+00
         11   -1    0    0    0    0  0.00000000000E+00  0.00000000000E+00  0.39999999674E+01  0.40000000000E+01  0.51100000000E-03 0.  1.
    9000002   -1    0    0    0    0 -0.00000000000E+00 -0.00000000000E+00  0.00000000000E+00  0.93800000000E+00  0.93800000000E+00 0. -1.
         11    1    1    2    0    0 -0.45951479647E-01  0.40092929563E-01  0.52596639638E+00  0.52949021967E+00  0.51100000000E-03 0.  1.
    9000002    1    1    2    0    0 -0.66717875089E-01  0.19084266826E+00  0.35299358508E-01  0.96018865000E+00  0.93800000000E+00 0. -1.
         22    1    1    2    0    0  0.11266935474E+00 -0.23093559783E+00  0.34387342125E+01  0.34483211303E+01  0.00000000000E+00 0.  1.
</event>
<event>
 5    1  0.2111786E+001  0.1559288E+01  0.7818608E-02  0.3398772E+00
         11   -1    0    0    0    0  0.00000000000E+00  0.00000000000E+00  0.39999999674E+01  0.40000000000E+01  0.51100000000E-03 0. -1.
    9000002   -1    0    0    0    0 -0.00000000000E+00 -0.00000000000E+00  0.00000000000E+00  0.93800000000E+00  0.93800000000E+00 0.  1.
         11    1    1    2    0    0  0.43073538767E-01 -0.23472209674E+00  0.11937560635E+01  0.12173756991E+01  0.51100000000E-03 0. -1.
    9000002    1    1    2    0    0 -0.12787137167E+00  0.40973990690E-01  0.42200379375E-01  0.94850135879E+00  0.93800000000E+00 0.  1.
         22    1    1    2    0    0  0.84797832903E-01  0.19374810605E+00  0.27640435245E+01  0.27721229421E+01  0.00000000000E+00 0. -1.
</event>
<event>
 5    1  0.2111786E+001  0.1444243E+01  0.7818608E-02  0.3541955E+00
         11   -1    0    0    0    0  0.00000000000E+00  0.00000000000E+00  0.39999999674E+01  0.40000000000E+01  0.51100000000E-03 0.  1.
    9000002   -1    0    0    0    0 -0.00000000000E+00 -0.00000000000E+00  0.00000000000E+00  0.93800000000E+00  0.93800000000E+00 0. -1.
         11    1    1    2    0    0 -0.40346045055E+00 -0.65617295775E+00  0.24544259182E+01  0.25724599384E+01  0.51100000000E-03 0.  1.
    9000002    1    1    2    0    0  0.15359580468E+00  0.48685233867E+00  0.33698280355E+00  0.11198295767E+01  0.93800000000E+00 0. -1.
         22    1    1    2    0    0  0.24986464587E+00  0.16932061908E+00  0.12085912456E+01  0.12457104850E+01  0.00000000000E+00 0. -1.
</event>
<event>
 5    1  0.2111786E+001  0.1497272E+01  0.7818608E-02  0.3473010E+00
         11   -1    0    0    0    0  0.00000000000E+00  0.00000000000E+00  0.39999999674E+01  0.40000000000E+01  0.51100000000E-03 0.  1.
    9000002   -1    0    0    0    0 -0.00000000000E+00 -0.00000000000E+00  0.00000000000E+00  0.93800000000E+00  0.93800000000E+00 0. -1.
         11    1    1    2    0    0 -0.36100745649E+00  0.17600169924E+00  0.11328324646E+01  0.12019203950E+01  0.51100000000E-03 0.  1.
    9000002    1    1    2    0    0  0.20497908385E+00  0.25807369804E-01  0.10957381270E+00  0.96671240066E+00  0.93800000000E+00 0. -1.
         22    1    1    2    0    0  0.15602837264E+00 -0.20180906904E+00  0.27575936900E+01  0.27693672044E+01  0.00000000000E+00 0.  1.
</event>
<event>
 5    1  0.2111786E+001  0.1566806E+01  0.7818608E-02  0.3390198E+00
         11   -1    0    0    0    0  0.00000000000E+00  0.00000000000E+00  0.39999999674E+01  0.40000000000E+01  0.51100000000E-03 0. -1.
    9000002   -1    0    0    0    0 -0.00000000000E+00 -0.00000000000E+00  0.00000000000E+00  0.93800000000E+00  0.93800000000E+00 0.  1.
         11    1    1    2    0    0 -0.22837413964E+00  0.74547350595E-02  0.18875742540E+01  0.19013540297E+01  0.51100000000E-03 0. -1.
    9000002    1    1    2    0    0  0.24631066706E-01 -0.64124478207E-01  0.27387552027E-01  0.94091057819E+00  0.93800000000E+00 0.  1.
         22    1    1    2    0    0  0.20374307293E+00  0.56669743147E-01  0.20850381613E+01  0.20957353921E+01  0.00000000000E+00 0.  1.
</event>
<event>
 5    1  0.2111786E+001  0.1509482E+01  0.7818608E-02  0.3457875E+00
         11   -1    0    0    0    0  0.00000000000E+00  0.00000000000E+00  0.39999999674E+01  0.40000000000E+01  0.51100000000E-03 0.  1.
    9000002   -1    0    0    0    0 -0.00000000000E+00 -0.00000000000E+00  0.00000000000E+00  0.93800000000E+00  0.93800000000E+00 0. -1.
         11    1    1    2    0    0  0.27641239219E+00  0.31314719419E+00  0.17240091295E+01  0.17738863310E+01  0.51100000000E-03 0.  1.
    9000002    1    1    2    0    0 -0.21119234980E+00 -0.87473332876E-02  0.10083541831E+00  0.96679393153E+00  0.93800000000E+00 0. -1.
         22    1    1    2    0    0 -0.65220042386E-01 -0.30439986090E+00  0.21751554196E+01  0.21973197375E+01  0.00000000000E+00 0.  1.
</event>
<event>
 5    1  0.2111786E+001  0.1540183E+01  0.7818608E-02  0.3420960E+00
         11   -1    0    0    0    0  0.00000000000E+00  0.00000000000E+00  0.39999999674E+01  0.40000000000E+01  0.51100000000E-03 0.  1.
    9000002   -1    0    0    0    0 -0.00000000000E+00 -0.00000000000E+00  0.00000000000E+00  0.93800000000E+00  0.93800000000E+00 0. -1.
         11    1    1    2    0    0 -0.11480106413E-02  0.29010825916E+00  0.33142980776E+01  0.33269710141E+01  0.51100000000E-03 0.  1.
    9000002    1    1    2    0    0  0.56092246558E-01 -0.93131124473E-01  0.52626759782E-01  0.94574485054E+00  0.93800000000E+00 0. -1.
         22    1    1    2    0    0 -0.54944235917E-01 -0.19697713469E+00  0.63307512996E+00  0.66528413540E+00  0.00000000000E+00 0. -1.
</event>
<event>
 5    1  0.2111786E+001  0.1550597E+01  0.7818608E-02  0.3408793E+00
         11   -1    0    0    0    0  0.00000000000E+00  0.00000000000E+00  0.39999999674E+01  0.40000000000E+01  0.51100000000E-03 0. -1.
    9000002   -1    0    0    0    0 -0.00000000000E+00 -0.00000000000E+00  0.00000000000E+00  0.93800000000E+00  0.93800000000E+00 0.  1.
         11    1    1    2    0    0  0.26823569849E+00  0.22170155076E+00  0.23553356877E+01  0.23809049604E+01  0.51100000000E-03 0. -1.
    9000002    1    1    2    0    0 -0.45821907417E+00  0.60321548180E-01  0.18948079363E+00  0.10627089819E+01  0.93800000000E+00 0.  1.
         22    1    1    2    0    0  0.18998337568E+00 -0.28202309894E+00  0.14551834860E+01  0.14943860576E+01  0.00000000000E+00 0. -1.
</event>
<event>
 5    1  0.2111786E+001  0.1576064E+01  0.7818608E-02  0.3379759E+00
         11   -1    0    0    0    0  0.00000000000E+00  0.00000000000E+00  0.39999999674E+01  0.40000000000E+01  0.51100000000E-03 0. -1.
    9000002   -1    0    0    0    0 -0.00000000000E+00 -0.00000000000E+00  0.00000000000E+00  0.93800000000E+00  0.93800000000E+00 0. -1.
         11    1    1    2    0    0 -0.73063054279E-01 -0.94058658121E-01  0.26316705643E+01  0.26343643372E+01  0.51100000000E-03 0. -1.
    9000002    1    1    2    0    0 -0.77923577140E-01 -0.43975047044E-01  0.22686124025E-01  0.94253092727E+00  0.93800000000E+00 0. -1.
         22    1    1    2    0    0  0.15098663142E+00  0.13803370516E+00  0.13456432791E+01  0.13611047355E+01  0.00000000000E+00 0. -1.
</event>
<event>
 5    1  0.2111786E+001  0.1554065E+01  0.7818608E-02  0.3404780E+00
         11   -1    0    0    0    0  0.00000000000E+00  0.00000000000E+00  0.39999999674E+01  0.40000000000E+01  0.51100000000E-03 0.  1.
    9000002   -1    0    0    0    0 -0.00000000000E+00 -0.00000000000E+00  0.00000000000E+00  0.93800000000E+00  0.93800000000E+00 0. -1.
         11    1    1    2    0    0 -0.15898665753E+00  0.18230668432E+00  0.15974897144E+01  0.16156998896E+01  0.51100000000E-03 0.  1.
    9000002    1    1    2    0    0 -0.50254861062E-01 -0.12371477078E-01  0.35611358616E-01  0.94010146972E+00  0.93800000000E+00 0. -1.
         22    1    1    2    0    0  0.20924151859E+00 -0.16993520724E+00  0.23668988943E+01  0.23821986407E+01  0.00000000000E+00 0.  1.
</event>
<event>
 5    1  0.2111786E+001  0.1419789E+01  0.7818608E-02  0.3575675E+00
         11   -1    0    0    0    0  0.00000000000E+00  0.00000000000E+00  0.39999999674E+01  0.40000000000E+01  0.51100000000E-03 0.  1.
    9000002   -1    0    0    0    0 -0.00000000000E+00 -0.00000000000E+00  0.00000000000E+00  0.93800000000E+00  0.93800000000E+00 0.  1.
         11    1    1    2    0    0  0.41079659274E+00  0.36486280010E+00  0.16558108814E+01  0.17445883869E+01  0.51100000000E-03 0.  1.
    9000002    1    1    2    0    0  0.60111824547E-01 -0.24864638116E+00  0.19686253320E+00  0.99198654794E+00  0.93800000000E+00 0.  1.
         22    1    1    2    0    0 -0.47090841728E+00 -0.11621641894E+00  0.21473265528E+01  0.22014250652E+01  0.00000000000E+00 0.  1.
</event>
<event>
 5    1  0.2111786E+001  0.1436260E+01  0.7818608E-02  0.3552815E+00
         11   -1    0    0    0    0  0.00000000000E+00  0.00000000000E+00  0.39999999674E+01  0.40000000000E+01  0.51100000000E-03 0.  1.
    9000002   -1    0    0    0    0 -0.00000000000E+00 -0.00000000000E+00  0.00000000000E+00  0.93800000000E+00  0.93800000000E+00 0. -1.
         11    1    1    2    0    0 -0.37419315267E+00  0.58093280058E+00  0.11610242301E+01  0.13511036075E+01  0.51100000000E-03 0.  1.
    9000002    1    1    2    0    0  0.14272295739E+00 -0.69077890927E+00  0.57218894698E+00  0.13056758921E+01  0.93800000000E+00 0. -1.
         22    1    1    2    0    0  0.23147019528E+00  0.10984610869E+00  0.22667867903E+01  0.22812205004E+01  0.00000000000E+00 0.  1.
</event>
<event>
 5    1  0.2111786E+001  0.1548318E+01  0.7818608E-02  0.3411441E+00
         11   -1    0    0    0    0  0.00000000000E+00  0.00000000000E+00  0.39999999674E+01  0.40000000000E+01  0.51100000000E-03 0.  1.
    9000002   -1    0    0    0    0 -0.00000000000E+00 -0.00000000000E+00  0.00000000000E+00  0.93800000000E+00  0.93800000000E+00 0. -1.
         11    1    1    2    0    0  0.23315855677E+00 -0.17478815228E+00  0.26412439829E+01  0.26572699993E+01  0.51100000000E-03 0.  1.
    9000002    1    1    2    0    0 -0.32980137981E-01  0.41940799014E-01  0.40105057044E-01  0.94037180717E+00  0.93800000000E+00 0. -1.
         22    1    1    2    0    0 -0.20017841879E+00  0.13284735327E+00  0.13186509274E+01  0.13403581936E+01  0.00000000000E+00 0.  1.
</event>
<event>
 5    1  0.2111786E+001  0.1543478E+01  0.7818608E-02  0.3417091E+00
         11   -1    0    0    0    0  0.00000000000E+00  0.00000000000E+00  0.39999999674E+01  0.40000000000E+01  0.51100000000E-03 0. -1.
    9000002   -1    0    0    0    0 -0.00000000000E+00 -0.00000000000E+00  0.00000000000E+00  0.93800000000E+00  0.93800000000E+00 0. -1.
         11    1    1    2    0    0  0.12934882426E+00 -0.59716442527E-01  0.28574267078E+00  0.31929031753E+00  0.51100000000E-03 0. -1.
    9000002    1    1    2    0    0  0.45315132308E-01 -0.17417951950E+00  0.64488059247E-01  0.95728505473E+00  0.93800000000E+00 0. -1.
         22    1    1    2    0    0 -0.17466395657E+00  0.23389596203E+00  0.36497692373E+01  0.36614246277E+01  0.00000000000E+00 0. -1.
</event>
<event>
 5    1  0.2111786E+001  0.1552005E+01  0.7818608E-02  0.3407162E+00
         11   -1    0    0    0    0  0.00000000000E+00  0.00000000000E+00  0.39999999674E+01  0.40000000000E+01  0.51100000000E-03 0.  1.
    9000002   -1    0    0    0    0 -0.00000000000E+00 -0.00000000000E+00  0.00000000000E+00  0.93800000000E+00  0.93800000000E+00 0.  1.
         11    1    1    2    0    0 -0.16899428300E+00 -0.16053692739E+00  0.19120075671E+01  0.19261631214E+01  0.51100000000E-03 0.  1.
    9000002    1    1    2    0    0 -0.39229125225E-01 -0.47318156207E-01  0.37936586225E-01  0.94077686874E+00  0.93800000000E+00 0.  1.
         22    1    1    2    0    0  0.20822340823E+00  0.20785508360E+00  0.20500558141E+01  0.20710600098E+01  0.00000000000E+00 0.  1.
</event>
<event>
 5    1  0.2111786E+001  0.1582471E+01  0.7818608E-02  0.3372611E+00
         11   -1    0    0    0    0  0.00000000000E+00  0.00000000000E+00  0.39999999674E+01  0.40000000000E+01  0.51100000000E-03 0. -1.
    9000002   -1    0    0    0    0 -0.00000000000E+00 -0.00000000000E+00  0.00000000000E+00  0.93800000000E+00  0.93800000000E+00 0. -1.
         11    1    1    2    0    0 -0.13069193540E+00  0.20555435015E+00  0.18271365539E+01  0.18433017172E+01  0.51100000000E-03 0. -1.
    9000002    1    1    2    0    0  0.33367736933E+00 -0.10703675502E+00  0.96330097279E-01  0.10059428122E+01  0.93800000000E+00 0. -1.
         22    1    1    2    0    0 -0.20298543393E+00 -0.98517595122E-01  0.20765333161E+01  0.20887554706E+01  0.00000000000E+00 0.  1.
</event>
<event>
 5    1  0.2111786E+001  0.1540838E+01  0.7818608E-02  0.3420190E+00
         11   -1    0    0    0    0  0.00000000000E+00  0.00000000000E+00  0.39999999674E+01  0.40000000000E+01  0.51100000000E-03 0.  1.
    9000002   -1    0    0    0    0 -0.00000000000E+00 -0.00000000000E+00  0.00000000000E+00  0.93800000000E+00  0.93800000000E+00 0. -1.
         11    1    1    2    0    0 -0.25056237480E+00 -0.10045184407E+00  0.11178057412E+01  0.11499400040E+01  0.51100000000E-03 0.  1.
    9000002    1    1    2    0    0  0.88149122411E-01 -0.12847418331E+00  0.60860153096E-01  0.95279790186E+00  0.93800000000E+00 0. -1.
         22    1    1    2    0    0  0.16241325238E+00  0.22892602738E+00  0.28213340731E+01  0.28352620941E+01  0.00000000000E+00 0.  1.
</event>
<event>
 5    1  0.2111786E+001  0.1549174E+01  0.7818608E-02  0.3410445E+00
         11   -1    0    0    0    0  0.00000000000E+00  0.00000000000E+00  0.39999999674E+01  0.40000000000E+01  0.51100000000E-03 0.  1.
    9000002   -1    0    0    0    0 -0.00000000000E+00 -0.00000000000E+00  0.00000000000E+00  0.93800000000E+00  0.93800000000E+00 0. -1.
         11    1    1    2    0    0  0.31678119260E+00 -0.25461441188E+00  0.22673353442E+01  0.23034731705E+01  0.51100000000E-03 0.  1.
    9000002    1    1    2    0    0 -0.10230675098E+00  0.31487958668E+00  0.11471188981E+00  0.10013084655E+01  0.93800000000E+00 0. -1.
         22    1    1    2    0    0 -0.21447444162E+00 -0.60265174804E-01  0.16179527333E+01  0.16332183640E+01  0.00000000000E+00 0. -1.
</event>
<event>
 5    1  0.2111786E+001  0.1579949E+01  0.7818608E-02  0.3375417E+00
         11   -1    0    0    0    0  0.00000000000E+00  0.00000000000E+00  0.39999999674E+01  0.40000000000E+01  0.51100000000E-03 0. -1.
    9000002   -1    0    0    0    0 -0.00000000000E+00 -0.00000000000E+00  0.00000000000E+00  0.93800000000E+00  0.93800000000E+00 0. -1.
         11    1    1    2    0    0 -0.17297100978E+00  0.57777757158E-01  0.11164529949E+01  0.11312492167E+01  0.51100000000E-03 0. -1.
    9000002    1    1    2    0    0  0.73124937465E-01 -0.23267509220E+00  0.54687303503E-01  0.97073150571E+00  0.93800000000E+00 0. -1.
         22    1    1    2    0    0  0.99846072318E-01  0.17489733504E+00  0.28288596690E+01  0.28360192776E+01  0.00000000000E+00 0. -1.
</event>
<event>
 5    1  0.2111786E+001  0.1547928E+01  0.7818608E-02  0.3411895E+00
         11   -1    0    0    0    0  0.00000000000E+00  0.00000000000E+00  0.39999999674E+01  0.40000000000E+01  0.51100000000E-03 0. -1.
    9000002   -1    0    0    0    0 -0.00000000000E+00 -0.00000000000E+00  0.00000000000E+00  0.93800000000E+00  0.93800000000E+00 0.  1.
         11    1    1    2    0    0 -0.14407975871E+00 -0.25393765407E+00  0.21925840628E+01  0.22119377121E+01  0.51100000000E-03 0. -1.
    9000002    1    1    2    0    0  0.42923360642E-01  0.17776153046E-01  0.39926080611E-01  0.93999813746E+00  0.93800000000E+00 0.  1.
         22    1    1    2    0    0  0.10115639807E+00  0.23616150102E+00  0.17674898240E+01  0.17860641504E+01  0.00000000000E+00 0. -1.
</event>
<event>
 5    1  0.2111786E+001  0.1566844E+01  0.7818608E-02  0.3390156E+00
         11   -1    0    0    0    0  0.00000000000E+00  0.00000000000E+00  0.39999999674E+01  0.40000000000E+01  0.51100000000E-03 0. -1.
    9000002   -1    0    0    0    0 -0.00000000000E+00 -0.00000000000E+00  0.00000000000E+00  0.93800000000E+00  0.93800000000E+00 0. -1.
         11    1    1    2    0    0  0.28485468390E+00 -0.14438979345E+00  0.10645884906E+01  0.11114582847E+01  0.51100000000E-03 0. -1.
    9000002    1    1    2    0    0 -0.49335118948E+00  0.39724021077E-01  0.19762006598E+00  0.10788285705E+01  0.93800000000E+00 0. -1.
         22    1    1    2    0    0  0.20849650558E+00  0.10466577238E+00  0.27377914108E+01  0.27477131448E+01  0.00000000000E+00 0. -1.
</event>
<event>
 5    1  0.2111786E+001  0.1501012E+01  0.7818608E-02  0.3468346E+00
         11   -1    0    0    0    0  0.00000000000E+00  0.00000000000E+00  0.39999999674E+01  0.40000000000E+01  0.51100000000E-03 0.  1.
    9000002   -1    0    0    0    0 -0.00000000000E+00 -0.00000000000E+00  0.00000000000E+00  0.93800000000E+00  0.93800000000E+00 0. -1.
         11    1    1    2    0    0 -0.28912983123E+00  0.17285139640E+00  0.28950191800E+01  0.29145514197E+01  0.51100000000E-03 0.  1.
    9000002    1    1    2    0    0 -0.54074439638E-01 -0.16705990302E+00  0.97692891561E-01  0.95928147969E+00  0.93800000000E+00 0. -1.
         22    1    1    2    0    0  0.34320427087E+00 -0.57914933810E-02  0.10072878958E+01  0.10641671006E+01  0.00000000000E+00 0.  1.
</event>
<event>
 5    1  0.2111786E+001  0.1593215E+01  0.7818608E-02  0.3360761E+00
         11   -1    0    0    0    0  0.00000000000E+00  0.00000000000E+00  0.39999999674E+01  0.40000000000E+01  0.51100000000E-03 0. -1.
    9000002   -1    0    0    0    0 -0.00000000000E+00 -0.00000000000E+00  0.00000000000E+00  0.93800000000E+00  0.93800000000E+00 0. -1.
         11    1    1    2    0    0 -0.13985716497E+00  0.90046122088E-01  0.13120163105E+01  0.13225185786E+01  0.51100000000E-03 0. -1.
    9000002    1    1    2    0    0  0.17983684225E+00 -0.40282832945E+00  0.13757029679E+00  0.10456488605E+01  0.93800000000E+00 0. -1.
         22    1    1    2    0    0 -0.39979677284E-01  0.31278220736E+00  0.25504133601E+01  0.25698325609E+01  0.00000000000E+00 0. -1.
</event>
<event>
 5    1  0.2111786E+001  0.1560820E+01  0.7818608E-02  0.3397017E+00
         11   -1    0    0    0    0  0.00000000000E+00  0.00000000000E+00  0.39999999674E+01  0.40000000000E+01  0.51100000000E-03 0. -1.
    9000002   -1    0    0    0    0 -0.00000000000E+00 -0.00000000000E+00  0.00000000000E+00  0.93800000000E+00  0.93800000000E+00 0. -1.
         11    1    1    2    0    0 -0.49545571014E+00 -0.86631890998E-01  0.14644246211E+01  0.15483930952E+01  0.51100000000E-03 0. -1.
    9000002    1    1    2    0    0  0.63973080080E+00  0.23051641369E+00  0.37250729994E+00  0.12169630245E+01  0.93800000000E+00 0. -1.
         22    1    1    2    0    0 -0.14427509066E+00 -0.14388452269E+00  0.21630680463E+01  0.21726438803E+01  0.00000000000E+00 0. -1.
</event>
<event>
 5    1  0.2111786E+001  0.1494998E+01  0.7818608E-02  0.3475857E+00
         11   -1    0    0    0    0  0.00000000000E+00  0.00000000000E+00  0.39999999674E+01  0.40000000000E+01  0.51100000000E-03 0.  1.
    9000002   -1    0    0    0    0 -0.00000000000E+00 -0.00000000000E+00  0.00000000000E+00  0.93800000000E+00  0.93800000000E+00 0.  1.
         11    1    1    2    0    0  0.69157333494E-01 -0.31152489357E+00  0.68681944267E+00  0.75733196423E+00  0.51100000000E-03 0.  1.
    9000002    1    1    2    0    0 -0.20603115098E+00  0.62820216799E-01  0.11425554054E+00  0.96917157581E+00  0.93800000000E+00 0.  1.
         22    1    1    2    0    0  0.13687381748E+00  0.24870467677E+00  0.31989249841E+01  0.32114964600E+01  0.00000000000E+00 0.  1.
</event>
<event>
 5    1  0.2111786E+001  0.1570625E+01  0.7818608E-02  0.3385877E+00
         11   -1    0    0    0    0  0.00000000000E+00  0.00000000000E+00  0.39999999674E+01  0.40000000000E+01  0.51100000000E-03 0.  1.
    9000002   -1    0    0    0    0 -0.00000000000E+00 -0.00000000000E+00  0.00000000000E+00  0.93800000000E+00  0.93800000000E+00 0. -1.
         11    1    1    2    0    0 -0.26248772783E+00 -0.63534103416E-01  0.26116854046E+01  0.26256117960E+01  0.51100000000E-03 0.  1.
    9000002    1    1    2    0    0  0.35618355325E+00 -0.18918055326E+00  0.13440305916E+00  0.10298369714E+01  0.93800000000E+00 0. -1.
         22    1    1    2    0    0 -0.93695825427E-01  0.25271465668E+00  0.12539115036E+01  0.12825512326E+01  0.00000000000E+00 0.  1.
</event>
<event>
 5    1  0.2111786E+001  0.1574035E+01  0.7818608E-02  0.3382036E+00
         11   -1    0    0    0    0  0.00000000000E+00  0.00000000000E+00  0.39999999674E+01  0.40000000000E+01  0.51100000000E-03 0. -1.
    9000002   -1    0    0    0    0 -0.00000000000E+00 -0.00000000000E+00  0.00000000000E+00  0.93800000000E+00  0.93800000000E+00 0. -1.
         11    1    1    2    0    0  0.13538032565E-01 -0.17178988165E+00  0.19318319924E+01  0.19395025521E+01  0.51100000000E-03 0. -1.
    9000002    1    1    2    0    0  0.12996864863E-01 -0.40754150435E-01  0.20028714669E-01  0.93918846282E+00  0.93800000000E+00 0. -1.
         22    1    1    2    0    0 -0.26534897428E-01  0.21254403208E+00  0.20481392603E+01  0.20593089851E+01  0.00000000000E+00 0. -1.
</event>
<event>
 5    1  0.2111786E+001  0.1569677E+01  0.7818608E-02  0.3386947E+00
         11   -1    0    0    0    0  0.00000000000E+00  0.00000000000E+00  0.39999999674E+01  0.40000000000E+01  0.51100000000E-03 0. -1.
    9000002   -1    0    0    0    0 -0.00000000000E+00 -0.00000000000E+00  0.00000000000E+00  0.93800000000E+00  0.93800000000E+00 0. -1.
         11    1    1    2    0    0 -0.94991982019E-01  0.12319180028E+00  0.22832327888E+01  0.22885261469E+01  0.51100000000E-03 0. -1.
    9000002    1    1    2    0    0 -0.11826247237E+00  0.52865364586E-02  0.31551572323E-01  0.94596694528E+00  0.93800000000E+00 0. -1.
         22    1    1    2    0    0  0.21325445439E+00 -0.12847833674E+00  0.16852156063E+01  0.17035069078E+01  0.00000000000E+00 0. -1.
</event>
<event>
 5    1  0.2111786E+001  0.1544782E+01  0.7818608E-02  0.3415566E+00
         11   -1    0    0    0    0  0.00000000000E+00  0.00000000000E+00  0.39999999674E+01  0.40000000000E+01  0.51100000000E-03 0.  1.
    9000002   -1    0    0    0    0 -0.00000000000E+00 -0.00000000000E+00  0.00000000000E+00  0.93800000000E+00  0.93800000000E+00 0. -1.
         11    1    1    2    0    0 -0.71449093098E-02  0.44355560550E-02  0.34639328310E+01  0.34639430773E+01  0.51100000000E-03 0.  1.
    9000002    1    1    2    0    0  0.21846059084E+00 -0.20790987375E-01  0.74561760444E-01  0.96620947575E+00  0.93800000000E+00 0. -1.
         22    1    1    2    0    0 -0.21131568153E+00  0.16355431320E-01  0.46150537595E+00  0.50784744700E+00  0.00000000000E+00 0. -1.
</event>
<event>
 5    1  0.2111786E+001  0.1599086E+01  0.7818608E-02  0.3354356E+00
         11   -1    0    0    0    0  0.00000000000E+00  0.00000000000E+00  0.39999999674E+01  0.40000000000E+01  0.51100000000E-03 0.  1.
    9000002   -1    0    0    0    0 -0.00000000000E+00 -0.00000000000E+00  0.00000000000E+00  0.93800000000E+00  0.93800000000E+00 0.  1.
         11    1    1    2    0    0 -0.28798547076E+00 -0.17450735638E+00  0.19908722979E+01  0.20191486365E+01  0.51100000000E-03 0.  1.
    9000002    1    1    2    0    0  0.49823881392E+00  0.29882147546E+00  0.23513990653E+00  0.11281271939E+01  0.93800000000E+00 0.  1.
         22    1    1    2    0    0 -0.21025334317E+00 -0.12431411908E+00  0.17739877630E+01  0.17907241696E+01  0.00000000000E+00 0.  1.
</event>
<event>
 5    1  0.2111786E+001  0.1564687E+01  0.7818608E-02  0.3392606E+00
         11   -1    0    0    0    0  0.00000000000E+00  0.00000000000E+00  0.39999999674E+01  0.40000000000E+01  0.51100000000E-03 0. -1.
    9000002   -1    0    0    0    0 -0.00000000000E+00 -0.00000000000E+00  0.00000000000E+00  0.93800000000E+00  0.93800000000E+00 0.  1.
         11    1    1    2    0    0 -0.19169347542E+00 -0.80557216995E-01  0.14949887345E+01  0.15093798167E+01  0.51100000000E-03 0. -1.
    9000002    1    1    2    0    0 -0.51645201494E-01  0.68202631102E-01  0.30754068244E-01  0.94239516045E+00  0.93800000000E+00 0.  1.
         22    1    1    2    0    0  0.24333867692E+00  0.12354585893E-01  0.24742571646E+01  0.24862250228E+01  0.00000000000E+00 0. -1.
</event>
<event>
 5    1  0.2111786E+001  0.1536070E+01  0.7818608E-02  0.3425814E+00
         11   -1    0    0    0    0  0.00000000000E+00  0.00000000000E+00  0.39999999674E+01  0.40000000000E+01  0.51100000000E-03 0. -1.
    9000002   -1    0    0    0    0 -0.00000000000E+00 -0.00000000000E+00  0.00000000000E+00  0.93800000000E+00  0.93800000000E+00 0.  1.
         11    1    1    2    0    0 -0.88113927789E-01  0.16145345724E+00  0.43959094060E+00  0.47652045004E+00  0.51100000000E-03 0. -1.
    9000002    1    1    2    0    0 -0.36049688256E-01  0.78526119688E-01  0.52769113557E-01  0.94344820252E+00  0.93800000000E+00 0.  1.
         22    1    1    2    0    0  0.12416361604E+00 -0.23997957692E+00  0.35076399132E+01  0.35180313474E+01  0.00000000000E+00 0. -1.
</event>
<event>
 5    1  0.2111786E+001  0.1519275E+01  0.7818608E-02  0.3445927E+00
         11   -1    0    0    0    0  0.00000000000E+00  0.00000000000E+00  0.39999999674E+01  0.40000000000E+01  0.51100000000E-03 0.  1.
    9000002   -1    0    0    0    0 -0.00000000000E+00 -0.00000000000E+00  0.00000000000E+00  0.93800000000E+00  0.93800000000E+00 0.  1.
         11    1    1    2    0    0 -0.29905265250E+00  0.22836842433E-01  0.26320801460E+01  0.26491130905E+01  0.51100000000E-03 0.  1.
    9000002    1    1    2    0    0  0.16856813898E-01  0.17889510302E+00  0.83784530928E-01  0.95872386936E+00  0.93800000000E+00 0.  1.
         22    1    1    2    0    0  0.28219583860E+00 -0.20173194545E+00  0.12841352905E+01  0.13301630401E+01  0.00000000000E+00 0. -1.
</event>
<event>
 5    1  0.2111786E+001  0.1554988E+01  0.7818608E-02  0.3403716E+00
         11   -1    0    0    0    0  0.00000000000E+00  0.00000000000E+00  0.39999999674E+01  0.40000000000E+01  0.51100000000E-03 0. -1.
    9000002   -1    0    0    0    0 -0.00000000000E+00 -0.00000000000E+00  0.00000000000E+00  0.93800000000E+00  0.93800000000E+00 0. -1.
         11    1    1    2    0    0 -0.18412678023E+00 -0.21237309767E+00  0.27063674661E+01  0.27209244985E+01  0.51100000000E-03 0. -1.
    9000002    1    1    2    0    0  0.15373519684E+00 -0.15484033936E-01  0.49547579899E-01  0.95193131513E+00  0.93800000000E+00 0. -1.
         22    1    1    2    0    0  0.30391583389E-01  0.22785713160E+00  0.12440849214E+01  0.12651441864E+01  0.00000000000E+00 0.  1.
</event>
<event>
 5    1  0.2111786E+001  0.1551012E+01  0.7818608E-02  0.3408312E+00
         11   -1    0    0    0    0  0.00000000000E+00  0.00000000000E+00  0.39999999674E+01  0.40000000000E+01  0.51100000000E-03 0.  1.
    9000002   -1    0    0    0    0 -0.00000000000E+00 -0.00000000000E+00  0.00000000000E+00  0.93800000000E+00  0.93800000000E+00 0.  1.
         11    1    1    2    0    0  0.67024043288E-02 -0.36054601083E+00  0.23939138811E+01  0.24209217830E+01  0.51100000000E-03 0.  1.
    9000002    1    1    2    0    0 -0.17909741583E+00  0.20131547909E+00  0.86814284845E-01  0.97978800081E+00  0.93800000000E+00 0.  1.
         22    1    1    2    0    0  0.17239501150E+00  0.15923053174E+00  0.15192718014E+01  0.15372902162E+01  0.00000000000E+00 0.  1.
</event>
<event>
 5    1  0.2111786E+001  0.1581318E+01  0.7818608E-02  0.3373893E+00
         11   -1    0    0    0    0  0.00000000000E+00  0.00000000000E+00  0.39999999674E+01  0.40000000000E+01  0.51100000000E-03 0.  1.
    9000002   -1    0    0    0    0 -0.00000000000E+00 -0.00000000000E+00  0.00000000000E+00  0.93800000000E+00  0.93800000000E+00 0. -1.
         11    1    1    2    0    0 -0.10012624202E+00  0.64664020235E-01  0.86022968830E+00  0.86844808573E+00  0.51100000000E-03 0.  1.
    9000002    1    1    2    0    0 -0.12096944701E+00 -0.86825181335E-01  0.28309732680E-01  0.95016717486E+00  0.93800000000E+00 0. -1.
         22    1    1    2    0    0  0.22109568903E+00  0.22161161100E-01  0.31114605464E+01  0.31193847394E+01  0.00000000000E+00 0.  1.
</event>
<event>
 5    1  0.2111786E+001  0.1486202E+01  0.7818608E-02  0.3486962E+00
         11   -1    0    0    0    0  0.00000000000E+00  0.00000000000E+00  0.39999999674E+01  0.40000000000E+01  0.51100000000E-03 0. -1.
    9000002   -1    0    0    0    0 -0.00000000000E+00 -0.00000000000E+00  0.00000000000E+00  0.93800000000E+00  0.93800000000E+00 0.  1.
         11    1    1    2    0    0  0.20451148585E+00 -0.76966487452E-01  0.28028664254E+00  0.35540069097E+00  0.51100000000E-03 0. -1.
    9000002    1    1    2    0    0  0.70569620421E-01  0.11950613687E+00  0.10142582552E+00  0.95362098664E+00  0.93800000000E+00 0.  1.
         22    1    1    2    0    0 -0.27508110627E+00 -0.42539649422E-01  0.36182874993E+01  0.36289783224E+01  0.00000000000E+00 0. -1.
</event>
<event>
 5    1  0.2111786E+001  0.1589197E+01  0.7818608E-02  0.3365172E+00
         11   -1    0    0    0    0  0.00000000000E+00  0.00000000000E+00  0.39999999674E+01  0.40000000000E+01  0.51100000000E-03 0. -1.
    9000002   -1    0    0    0    0 -0.00000000000E+00 -0.00000000000E+00  0.00000000000E+00  0.93800000000E+00  0.93800000000E+00 0. -1.
         11    1    1    2    0    0 -0.76629254257E-01 -0.92551138144E-02  0.47347149382E+00  0.47972201984E+00  0.51100000000E-03 0. -1.
    9000002    1    1    2    0    0 -0.18844475078E-01  0.18944373244E+00  0.31849590918E-01  0.95765465510E+00  0.93800000000E+00 0. -1.
         22    1    1    2    0    0  0.95473729335E-01 -0.18018861862E+00  0.34946788826E+01  0.35006233251E+01  0.00000000000E+00 0. -1.
</event>
<event>
 5    1  0.2111786E+001  0.1556282E+01  0.7818608E-02  0.3402225E+00
         11   -1    0    0    0    0  0.00000000000E+00  0.00000000000E+00  0.39999999674E+01  0.40000000000E+01  0.51100000000E-03 0. -1.
    9000002   -1    0    0    0    0 -0.00000000000E+00 -0.00000000000E+00  0.00000000000E+00  0.93800000000E+00  0.93800000000E+00 0.  1.
         11    1    1    2    0    0  0.12808652812E+00  0.16605127899E+00  0.12025187625E+01  0.12206681864E+01  0.51100000000E-03 0. -1.
    9000002    1    1    2    0    0  0.90353872161E-01  0.14046787728E-01  0.37839137117E-01  0.94320566938E+00  0.93800000000E+00 0.  1.
         22    1    1    2    0    0 -0.21844040028E+00 -0.18009806672E+00  0.27596420677E+01  0.27741261442E+01  0.00000000000E+00 0. -1.
</event>
<event>
 5    1  0.2111786E+001  0.1527443E+01  0.7818608E-02  0.3436086E+00
         11   -1    0    0    0    0  0.00000000000E+00  0.00000000000E+00  0.39999999674E+01  0.40000000000E+01  0.51100000000E-03 0. -1.
    9000002   -1    0    0    0    0 -0.00000000000E+00 -0.00000000000E+00  0.00000000000E+00  0.93800000000E+00  0.93800000000E+00 0.  1.
         11    1    1    2    0    0  0.38620938072E+00  0.26117981314E+00  0.21313105352E+01  0.21817097513E+01  0.51100000000E-03 0. -1.
    9000002    1    1    2    0    0 -0.27181934314E+00 -0.78555062976E-01  0.11165088588E+00  0.98608649395E+00  0.93800000000E+00 0.  1.
         22    1    1    2    0    0 -0.11439003758E+00 -0.18262475017E+00  0.17570385463E+01  0.17702037547E+01  0.00000000000E+00 0.  1.
</event>
<event>
 5    1  0.2111786E+001  0.1542303E+01  0.7818608E-02  0.3418469E+00
         11   -1    0    0    0    0  0.00000000000E+00  0.00000000000E+00  0.39999999674E+01  0.40000000000E+01  0.51100000000E-03 0.  1.
    9000002   -1    0    0    0    0 -0.00000000000E+00 -0.00000000000E+00  0.00000000000E+00  0.93800000000E+00  0.93800000000E+00 0.  1.
         11    1    1    2    0    0  0.21813751291E+00 -0.15094046001E+00  0.13373089319E+01  0.13633643818E+01  0.51100000000E-03 0.  1.
    9000002    1    1    2    0    0  0.27450570263E-01  0.17285009177E-03  0.43257420955E-01  0.93939808822E+00  0.93800000000E+00 0.  1.
         22    1    1    2    0    0 -0.24558808317E+00  0.15076760992E+00  0.26194336145E+01  0.26352375300E+01  0.00000000000E+00 0.  1.
</event>
<event>
 5    1  0.2111786E+001  0.1505008E+01  0.7818608E-02  0.3463390E+00
         11   -1    0    0    0    0  0.00000000000E+00  0.00000000000E+00  0.39999999674E+01  0.40000000000E+01  0.51100000000E-03 0.  1.
    9000002   -1    0    0    0    0 -0.00000000000E+00 -0.00000000000E+00  0.00000000000E+00  0.93800000000E+00  0.93800000000E+00 0.  1.
         11    1    1    2    0    0  0.16641790506E+00  0.16015925784E-01  0.20440023077E+00  0.26406655309E+00  0.51100000000E-03 0.  1.
    9000002    1    1    2    0    0  0.16213719230E+00 -0.29441335420E+00  0.15551389161E+00  0.10084623259E+01  0.93800000000E+00 0.  1.
         22    1    1    2    0    0 -0.32855509736E+00  0.27839742841E+00  0.36400858450E+01  0.36654711210E+01  0.00000000000E+00 0.  1.
</event>
<event>
 5    1  0.2111786E+001  0.1508927E+01  0.7818608E-02  0.3458558E+00
         11   -1    0    0    0    0  0.00000000000E+00  0.00000000000E+00  0.39999999674E+01  0.40000000000E+01  0.51100000000E-03 0. -1.
    9000002   -1    0    0    0    0 -0.00000000000E+00 -0.00000000000E+00  0.00000000000E+00  0.93800000000E+00  0.93800000000E+00 0.  1.
         11    1    1    2    0    0  0.22714259856E+00 -0.15571831591E+00  0.79336885639E+00  0.83980733351E+00  0.51100000000E-03 0. -1.
    9000002    1    1    2    0    0 -0.80808259128E-02 -0.15648296518E+00  0.86594068256E-01  0.95493180426E+00  0.93800000000E+00 0.  1.
         22    1    1    2    0    0 -0.21906177265E+00  0.31220128109E+00  0.31200370427E+01  0.31432608622E+01  0.00000000000E+00 0. -1.
</event>
<event>
 5    1  0.2111786E+001  0.1511764E+01  0.7818608E-02  0.3455077E+00
         11   -1    0    0    0    0  0.00000000000E+00  0.00000000000E+00  0.39999999674E+01  0.40000000000E+01  0.51100000000E-03 0. -1.
    9000002   -1    0    0    0    0 -0.00000000000E+00 -0.00000000000E+00  0.00000000000E+00  0.93800000000E+00  0.93800000000E+00 0. -1.
         11    1    1    2    0    0 -0.28489372051E+00 -0.15528863043E+00  0.11481849967E+01  0.11931504677E+01  0.51100000000E-03 0. -1.
    9000002    1    1    2    0    0 -0.37644891957E-01  0.66994837772E-01  0.70800691601E-01  0.94380198353E+00  0.93800000000E+00 0. -1.
         22    1    1    2    0    0  0.32253861246E+00  0.88293792662E-01  0.27810142790E+01  0.28010475488E+01  0.00000000000E+00 0. -1.
</event>
<event>
 5    1  0.2111786E+001  0.1544030E+01  0.7818608E-02  0.3416445E+00
         11   -1    0    0    0    0  0.00000000000E+00  0.00000000000E+00  0.39999999674E+01  0.40000000000E+01  0.51100000000E-03 0. -1.
    9000002   -1    0    0    0    0 -0.00000000000E+00 -0.00000000000E+00  0.00000000000E+00  0.93800000000E+00  0.93800000000E+00 0. -1.
         11    1    1    2    0    0 -0.22073769693E+00 -0.21394860940E+00  0.19070258264E+01  0.19316435753E+01  0.51100000000E-03 0. -1.
    9000002    1    1    2    0    0 -0.10765560392E-01  0.87834089842E-01  0.46860437463E-01  0.94332954222E+00  0.93800000000E+00 0. -1.
         22    1    1    2    0    0  0.23150325733E+00  0.12611451956E+00  0.20461137035E+01  0.20630268825E+01  0.00000000000E+00 0. -1.
</event>
<event>
 5    1  0.2111786E+001  0.1537304E+01  0.7818608E-02  0.3424355E+00
         11   -1    0    0    0    0  0.00000000000E+00  0.00000000000E+00  0.39999999674E+01  0.40000000000E+01  0.51100000000E-03 0.  1.
    9000002   -1    0    0    0    0 -0.00000000000E+00 -0.00000000000E+00  0.00000000000E+00  0.93800000000E+00  0.93800000000E+00 0.  1.
         11    1    1    2    0    0 -0.17894546434E+00 -0.22950686152E+00  0.12790942666E+01  0.13117840076E+01  0.51100000000E-03 0.  1.
    9000002    1    1    2    0    0 -0.12828002094E+00  0.16485842187E+00  0.77353199826E-01  0.96408587821E+00  0.93800000000E+00 0.  1.
         22    1    1    2    0    0  0.30722548528E+00  0.64648439656E-01  0.26435525010E+01  0.26621301142E+01  0.00000000000E+00 0.  1.
</event>
<event>
 5    1  0.2111786E+001  0.1493246E+01  0.7818608E-02  0.3478058E+00
         11   -1    0    0    0    0  0.00000000000E+00  0.00000000000E+00  0.39999999674E+01  0.40000000000E+01  0.51100000000E-03 0.  1.
    9000002   -1    0    0    0    0 -0.00000000000E+00 -0.00000000000E+00  0.00000000000E+00  0.93800000000E+00  0.93800000000E+00 0.  1.
         11    1    1    2    0    0 -0.26506356542E+00 -0.28136494106E+00  0.11953374588E+01  0.12562869200E+01  0.51100000000E-03 0.  1.
    9000002    1    1    2    0    0 -0.40454918897E-01  0.15071136382E+00  0.99346590163E-01  0.95606707956E+00  0.93800000000E+00 0.  1.
         22    1    1    2    0    0  0.30551848431E+00  0.13065357724E+00  0.27053159184E+01  0.27256460004E+01  0.00000000000E+00 0. -1.
</event>
<event>
 5    1  0.2111786E+001  0.1278816E+01  0.7818608E-02  0.3823285E+00
         11   -1    0    0    0    0  0.00000000000E+00  0.00000000000E+00  0.39999999674E+01  0.40000000000E+01  0.51100000000E-03 0. -1.
    9000002   -1    0    0    0    0 -0.00000000000E+00 -0.00000000000E+00  0.00000000000E+00  0.93800000000E+00  0.93800000000E+00 0. -1.
         11    1    1    2    0    0 -0.39544864852E+00  0.39224118364E+00  0.44569270209E+00  0.71335476839E+00  0.51100000000E-03 0. -1.
    9000002    1    1    2    0    0  0.58152378487E-01 -0.46862904209E+00  0.52211217580E+00  0.11727915426E+01  0.93800000000E+00 0. -1.
         22    1    1    2    0    0  0.33729627004E+00  0.76387858441E-01  0.30321950895E+01  0.30518536890E+01  0.00000000000E+00 0. -1.
</event>
<event>
 5    1  0.2111786E+001  0.1568964E+01  0.7818608E-02  0.3387753E+00
         11   -1    0    0    0    0  0.00000000000E+00  0.00000000000E+00  0.39999999674E+01  0.40000000000E+01  0.51100000000E-03 0. -1.
    9000002   -1    0    0    0    0 -0.00000000000E+00 -0.00000000000E+00  0.00000000000E+00  0.93800000000E+00  0.93800000000E+00 0. -1.
         11    1    1    2    0    0 -0.13243159327E+00  0.11589380158E+00  0.10638893803E+01  0.10783461294E+01  0.51100000000E-03 0. -1.
    9000002    1    1    2    0    0 -0.10773239356E+00 -0.79385417098E-01  0.34743274633E-01  0.94813469940E+00  0.93800000000E+00 0. -1.
         22    1    1    2    0    0  0.24016398682E+00 -0.36508384479E-01  0.29013673124E+01  0.29115191712E+01  0.00000000000E+00 0. -1.
</event>
<event>
 5    1  0.2111786E+001  0.1452506E+01  0.7818608E-02  0.3530851E+00
         11   -1    0    0    0    0  0.00000000000E+00  0.00000000000E+00  0.39999999674E+01  0.40000000000E+01  0.51100000000E-03 0. -1.
    9000002   -1    0    0    0    0 -0.00000000000E+00 -0.00000000000E+00  0.00000000000E+00  0.93800000000E+00  0.93800000000E+00 0.  1.
         11    1    1    2    0    0  0.26410435801E+00 -0.48657526279E+00  0.11053666954E+01  0.12362614572E+01  0.51100000000E-03 0. -1.
    9000002    1    1    2    0    0 -0.30884643827E+00  0.26421625146E+00  0.25661628460E+00  0.10539887416E+01  0.93800000000E+00 0.  1.
         22    1    1    2    0    0  0.44742080257E-01  0.22235901133E+00  0.26380169874E+01  0.26477498011E+01  0.00000000000E+00 0.  1.
</event>
<event>
 5    1  0.2111786E+001  0.1545594E+01  0.7818608E-02  0.3414617E+00
         11   -1    0    0    0    0  0.00000000000E+00  0.00000000000E+00  0.39999999674E+01  0.40000000000E+01  0.51100000000E-03 0. -1.
    9000002   -1    0    0    0    0 -0.00000000000E+00 -0.00000000000E+00  0.00000000000E+00  0.93800000000E+00  0.93800000000E+00 0.  1.
         11    1    1    2    0    0 -0.25464065696E+00 -0.13167946895E+00  0.23094145086E+01  0.23271392267E+01  0.51100000000E-03 0. -1.
    9000002    1    1    2    0    0  0.30085023791E-01 -0.16334125700E-01  0.41026585034E-01  0.93952067194E+00  0.93800000000E+00 0.  1.
         22    1    1    2    0    0  0.22455563317E+00  0.14801359465E+00  0.16495588737E+01  0.16713401013E+01  0.00000000000E+00 0.  1.
</event>
<event>
 5    1  0.2111786E+001  0.1368922E+01  0.7818608E-02  0.3658020E+00
         11   -1    0    0    0    0  0.00000000000E+00  0.00000000000E+00  0.39999999674E+01  0.40000000000E+01  0.51100000000E-03 0. -1.
    9000002   -1    0    0    0    0 -0.00000000000E+00 -0.00000000000E+00  0.00000000000E+00  0.93800000000E+00  0.93800000000E+00 0.  1.
         11    1    1    2    0    0  0.19598394987E+00  0.58670071907E+00  0.99855537554E+00  0.11746235744E+01  0.51100000000E-03 0. -1.
    9000002    1    1    2    0    0  0.76510809583E-01 -0.38429758982E+00  0.32754962676E+00  0.10680221437E+01  0.93800000000E+00 0.  1.
         22    1    1    2    0    0 -0.27249475945E+00 -0.20240312925E+00  0.26738949651E+01  0.26953542819E+01  0.00000000000E+00 0. -1.
</event>
<event>
 5    1  0.2111786E+001  0.1553919E+01  0.7818608E-02  0.3404948E+00
         11   -1    0    0    0    0  0.00000000000E+00  0.00000000000E+00  0.39999999674E+01  0.40000000000E+01  0.51100000000E-03 0. -1.
    9000002   -1    0    0    0    0 -0.00000000000E+00 -0.00000000000E+00  0.00000000000E+00  0.93800000000E+00  0.93800000000E+00 0.  1.
         11    1    1    2    0    0  0.90877818009E-01  0.19579311867E+00  0.85745642933E+00  0.88420897555E+00  0.51100000000E-03 0. -1.
    9000002    1    1    2    0    0 -0.34756268245E-01  0.70977311395E-04  0.34709243982E-01  0.93928522550E+00  0.93800000000E+00 0.  1.
         22    1    1    2    0    0 -0.56121549764E-01 -0.19586409598E+00  0.31078342941E+01  0.31145057990E+01  0.00000000000E+00 0. -1.
</event>
<event>
 5    1  0.2111786E+001  0.1556446E+01  0.7818608E-02  0.3402036E+00
         11   -1    0    0    0    0  0.00000000000E+00  0.00000000000E+00  0.39999999674E+01  0.40000000000E+01  0.51100000000E-03 0. -1.
    9000002   -1    0    0    0    0 -0.00000000000E+00 -0.00000000000E+00  0.00000000000E+00  0.93800000000E+00  0.93800000000E+00 0. -1.
         11    1    1    2    0    0  0.26460166115E+00  0.10602515603E+00  0.22676472690E+01  0.22854933320E+01  0.51100000000E-03 0. -1.
    9000002    1    1    2    0    0 -0.13093252921E+00  0.92561636484E-01  0.49691629286E-01  0.95290306001E+00  0.93800000000E+00 0. -1.
         22    1    1    2    0    0 -0.13366913193E+00 -0.19858679251E+00  0.16826610690E+01  0.16996036080E+01  0.00000000000E+00 0. -1.
</event>
<event>
 5    1  0.2111786E+001  0.1582534E+01  0.7818608E-02  0.3372541E+00
         11   -1    0    0    0    0  0.00000000000E+00  0.00000000000E+00  0.39999999674E+01  0.40000000000E+01  0.51100000000E-03 0. -1.
    9000002   -1    0    0    0    0 -0.00000000000E+00 -0.00000000000E+00  0.00000000000E+00  0.93800000000E+00  0.93800000000E+00 0. -1.
         11    1    1    2    0    0 -0.46442402553E-01 -0.45814621497E-01  0.95278814802E+00  0.95501905344E+00  0.51100000000E-03 0. -1.
    9000002    1    1    2    0    0 -0.30024598470E+00 -0.72442740269E-01  0.77297842179E-01  0.99056274832E+00  0.93800000000E+00 0. -1.
         22    1    1    2    0    0  0.34668838725E+00  0.11825736177E+00  0.29699139772E+01  0.29924181982E+01  0.00000000000E+00 0. -1.
</event>
<event>
 5    1  0.2111786E+001  0.1472940E+01  0.7818608E-02  0.3503976E+00
         11   -1    0    0    0    0  0.00000000000E+00  0.00000000000E+00  0.39999999674E+01  0.40000000000E+01  0.51100000000E-03 0. -1.
    9000002   -1    0    0    0    0 -0.00000000000E+00 -0.00000000000E+00  0.00000000000E+00  0.93800000000E+00  0.93800000000E+00 0.  1.
         11    1    1    2    0    0  0.41323981951E+00  0.20835300909E+00  0.15824193939E+01  0.16487054086E+01  0.51100000000E-03 0. -1.
    9000002    1    1    2    0    0 -0.10491494441E+00 -0.17548829954E-01  0.10656541548E+00  0.95000804984E+00  0.93800000000E+00 0.  1.
         22    1    1    2    0    0 -0.30832487510E+00 -0.19080417914E+00  0.23110151579E+01  0.23392865416E+01  0.00000000000E+00 0. -1.
</event>
<event>
 5    1  0.2111786E+001  0.1587548E+01  0.7818608E-02  0.3366990E+00
         11   -1    0    0    0    0  0.00000000000E+00  0.00000000000E+00  0.39999999674E+01  0.40000000000E+01  0.51100000000E-03 0.  1.
    9000002   -1    0    0    0    0 -0.00000000000E+00 -0.00000000000E+00  0.00000000000E+00  0.93800000000E+00  0.93800000000E+00 0. -1.
         11    1    1    2    0    0 -0.22650951692E+00 -0.97065669495E-01  0.16031425904E+01  0.16219724818E+01  0.51100000000E-03 0.  1.
    9000002    1    1    2    0    0  0.49212930853E+00 -0.76736737091E-01  0.18075862676E+00  0.10773102916E+01  0.93800000000E+00 0. -1.
         22    1    1    2    0    0 -0.26561979161E+00  0.17380240659E+00  0.22160987502E+01  0.22387172267E+01  0.00000000000E+00 0.  1.
</event>
<event>
 5    1  0.2111786E+001  0.1563241E+01  0.7818608E-02  0.3394253E+00
         11   -1    0    0    0    0  0.00000000000E+00  0.00000000000E+00  0.39999999674E+01  0.40000000000E+01  0.51100000000E-03 0.  1.
    9000002   -1    0    0    0    0 -0.00000000000E+00 -0.00000000000E+00  0.00000000000E+00  0.93800000000E+00  0.93800000000E+00 0. -1.
         11    1    1    2    0    0  0.15265809252E-01  0.14960330851E+00  0.61286930894E+00  0.63104932121E+00  0.51100000000E-03 0.  1.
    9000002    1    1    2    0    0  0.44174183910E-01  0.10062852427E+00  0.35100506958E-01  0.94506798909E+00  0.93800000000E+00 0. -1.
         22    1    1    2    0    0 -0.59439993162E-01 -0.25023183277E+00  0.33520301515E+01  0.33618826897E+01  0.00000000000E+00 0.  1.
</event>
<event>
 5    1  0.2111786E+001  0.1583659E+01  0.7818608E-02  0.3371292E+00
         11   -1    0    0    0    0  0.00000000000E+00  0.00000000000E+00  0.39999999674E+01  0.40000000000E+01  0.51100000000E-03 0. -1.
    9000002   -1    0    0    0    0 -0.00000000000E+00 -0.00000000000E+00  0.00000000000E+00  0.93800000000E+00  0.93800000000E+00 0.  1.
         11    1    1    2    0    0  0.40333772784E-01  0.22434225178E-01  0.25668124246E+01  0.25672273744E+01  0.51100000000E-03 0. -1.
    9000002    1    1    2    0    0  0.16290921762E+00 -0.21850830154E-01  0.29815016541E-01  0.95275904991E+00  0.93800000000E+00 0.  1.
         22    1    1    2    0    0 -0.20324299041E+00 -0.58339502431E-03  0.14033725262E+01  0.14180135757E+01  0.00000000000E+00 0. -1.
</event>
<event>
 5    1  0.2111786E+001  0.1543543E+01  0.7818608E-02  0.3417016E+00
         11   -1    0    0    0    0  0.00000000000E+00  0.00000000000E+00  0.39999999674E+01  0.40000000000E+01  0.51100000000E-03 0.  1.
    9000002   -1    0    0    0    0 -0.00000000000E+00 -0.00000000000E+00  0.00000000000E+00  0.93800000000E+00  0.93800000000E+00 0. -1.
         11    1    1    2    0    0 -0.25006350330E+00  0.37914344283E-01  0.23878490620E+01  0.24012065004E+01  0.51100000000E-03 0.  1.
    9000002    1    1    2    0    0 -0.30439781145E-01  0.63791547887E-01  0.45260551473E-01  0.94174755608E+00  0.93800000000E+00 0. -1.
         22    1    1    2    0    0  0.28050328444E+00 -0.10170589217E+00  0.15668903538E+01  0.15950459435E+01  0.00000000000E+00 0.  1.
</event>
<event>
 5    1  0.2111786E+001  0.1569214E+01  0.7818608E-02  0.3387471E+00
         11   -1    0    0    0    0  0.00000000000E+00  0.00000000000E+00  0.39999999674E+01  0.40000000000E+01  0.51100000000E-03 0. -1.
    9000002   -1    0    0    0    0 -0.00000000000E+00 -0.00000000000E+00  0.00000000000E+00  0.93800000000E+00  0.93800000000E+00 0.  1.
         11    1    1    2    0    0  0.90759933742E-01  0.11913885425E+00  0.90346816048E+00  0.91579823667E+00  0.51100000000E-03 0. -1.
    9000002    1    1    2    0    0  0.57044568731E-01  0.10256964778E+00  0.31738207046E-01  0.94584667323E+00  0.93800000000E+00 0.  1.
         22    1    1    2    0    0 -0.14780450247E+00 -0.22170850203E+00  0.30647935998E+01  0.30763550901E+01  0.00000000000E+00 0. -1.
</event>
<event>
 5    1  0.2111786E+001  0.1578720E+01  0.7818608E-02  0.3376789E+00
         11   -1    0    0    0    0  0.00000000000E+00  0.00000000000E+00  0.39999999674E+01  0.40000000000E+01  0.51100000000E-03 0.  1.
    9000002   -1    0    0    0    0 -0.00000000000E+00 -0.00000000000E+00  0.00000000000E+00  0.93800000000E+00  0.93800000000E+00 0. -1.
         11    1    1    2    0    0 -0.84797035933E-01  0.45086935864E-01  0.74130731670E+00  0.74750262073E+00  0.51100000000E-03 0.  1.
    9000002    1    1    2    0    0 -0.17557546115E+00  0.12268303408E+00  0.46354256351E-01  0.96326039392E+00  0.93800000000E+00 0. -1.
         22    1    1    2    0    0  0.26037249708E+00 -0.16776996995E+00  0.32123383943E+01  0.32272369853E+01  0.00000000000E+00 0.  1.
</event>
<event>
 5    1  0.2111786E+001  0.1191809E+01  0.7818608E-02  0.4012431E+00
         11   -1    0    0    0    0  0.00000000000E+00  0.00000000000E+00  0.39999999674E+01  0.40000000000E+01  0.51100000000E-03 0.  1.
    9000002   -1    0    0    0    0 -0.00000000000E+00 -0.00000000000E+00  0.00000000000E+00  0.93800000000E+00  0.93800000000E+00 0. -1.
         11    1    1    2    0    0  0.21980546919E+00 -0.92149797857E+00  0.15148710280E+01  0.17867029583E+01  0.51100000000E-03 0.  1.
    9000002    1    1    2    0    0 -0.31684382044E+00  0.33566514565E+00  0.67046380518E+00  0.12419447695E+01  0.93800000000E+00 0. -1.
         22    1    1    2    0    0  0.97038351245E-01  0.58583283292E+00  0.18146651342E+01  0.19093522721E+01  0.00000000000E+00 0. -1.
</event>
<event>
 5    1  0.2111786E+001  0.1542423E+01  0.7818608E-02  0.3418328E+00
         11   -1    0    0    0    0  0.00000000000E+00  0.00000000000E+00  0.39999999674E+01  0.40000000000E+01  0.51100000000E-03 0.  1.
    9000002   -1    0    0    0    0 -0.00000000000E+00 -0.00000000000E+00  0.00000000000E+00  0.93800000000E+00  0.93800000000E+00 0. -1.
         11    1    1    2    0    0 -0.89721383026E-01  0.24044323486E+00  0.91946676334E+00  0.95461105471E+00  0.51100000000E-03 0.  1.
    9000002    1    1    2    0    0 -0.77739471635E-02 -0.58792971255E-01  0.45091093434E-01  0.94095390665E+00  0.93800000000E+00 0. -1.
         22    1    1    2    0    0  0.97495330190E-01 -0.18165026360E+00  0.30354421106E+01  0.30424350386E+01  0.00000000000E+00 0.  1.
</event>
<event>
 5    1  0.2111786E+001  0.1508419E+01  0.7818608E-02  0.3459183E+00
         11   -1    0    0    0    0  0.00000000000E+00  0.00000000000E+00  0.39999999674E+01  0.40000000000E+01  0.51100000000E-03 0.  1.
    9000002   -1    0    0    0    0 -0.00000000000E+00 -0.00000000000E+00  0.00000000000E+00  0.93800000000E+00  0.93800000000E+00 0. -1.
         11    1    1    2    0    0 -0.23966600379E+00 -0.31100665793E+00  0.20117281572E+01  0.20496866527E+01  0.51100000000E-03 0.  1.
    9000002    1    1    2    0    0  0.94864807399E-01  0.36976973209E-02  0.75723163362E-01  0.94582820962E+00  0.93800000000E+00 0. -1.
         22    1    1    2    0    0  0.14480119639E+00  0.30730896061E+00  0.19125486468E+01  0.19424851377E+01  0.00000000000E+00 0.  1.
</event>
<event>
 5    1  0.2111786E+001  0.1550485E+01  0.7818608E-02  0.3408924E+00
         11   -1    0    0    0    0  0.00000000000E+00  0.00000000000E+00  0.39999999674E+01  0.40000000000E+01  0.51100000000E-03 0.  1.
    9000002   -1    0    0    0    0 -0.00000000000E+00 -0.00000000000E+00  0.00000000000E+00  0.93800000000E+00  0.93800000000E+00 0. -1.
         11    1    1    2    0    0 -0.11372063411E+00 -0.12385449541E+00  0.49834503977E+00  0.52594710613E+00  0.51100000000E-03 0.  1.
    9000002    1    1    2    0    0 -0.89916772988E-01 -0.28648989715E-01  0.42644787915E-01  0.94369929989E+00  0.93800000000E+00 0. -1.
         22    1    1    2    0    0  0.20363740710E+00  0.15250348513E+00  0.34590101397E+01  0.34683535940E+01  0.00000000000E+00 0.  1.
</event>
<event>
 5    1  0.2111786E+001  0.1570406E+01  0.7818608E-02  0.3386124E+00
         11   -1    0    0    0    0  0.00000000000E+00  0.00000000000E+00  0.39999999674E+01  0.40000000000E+01  0.51100000000E-03 0. -1.
    9000002   -1    0    0    0    0 -0.00000000000E+00 -0.00000000000E+00  0.00000000000E+00  0.93800000000E+00  0.93800000000E+00 0. -1.
         11    1    1    2    0    0 -0.10328326761E-01  0.15619480241E+00  0.56906691397E+00  0.59020412090E+00  0.51100000000E-03 0. -1.
    9000002    1    1    2    0    0 -0.19033284497E+00 -0.10764172782E+00  0.54110794500E-01  0.96466849825E+00  0.93800000000E+00 0. -1.
         22    1    1    2    0    0  0.20066117173E+00 -0.48553074592E-01  0.33768222589E+01  0.33831273808E+01  0.00000000000E+00 0. -1.
</event>
<event>
 5    1  0.2111786E+001  0.1494099E+01  0.7818608E-02  0.3476986E+00
         11   -1    0    0    0    0  0.00000000000E+00  0.00000000000E+00  0.39999999674E+01  0.40000000000E+01  0.51100000000E-03 0.  1.
    9000002   -1    0    0    0    0 -0.00000000000E+00 -0.00000000000E+00  0.00000000000E+00  0.93800000000E+00  0.93800000000E+00 0.  1.
         11    1    1    2    0    0 -0.13428082830E+00 -0.40401045494E+00  0.16627812200E+01  0.17164199473E+01  0.51100000000E-03 0.  1.
    9000002    1    1    2    0    0 -0.60599870240E-01  0.12105606351E+00  0.94186658964E-01  0.95238754796E+00  0.93800000000E+00 0.  1.
         22    1    1    2    0    0  0.19488069854E+00  0.28295439143E+00  0.22430320884E+01  0.22691925048E+01  0.00000000000E+00 0.  1.
</event>
<event>
 5    1  0.2111786E+001  0.1548797E+01  0.7818608E-02  0.3410884E+00
         11   -1    0    0    0    0  0.00000000000E+00  0.00000000000E+00  0.39999999674E+01  0.40000000000E+01  0.51100000000E-03 0. -1.
    9000002   -1    0    0    0    0 -0.00000000000E+00 -0.00000000000E+00  0.00000000000E+00  0.93800000000E+00  0.93800000000E+00 0.  1.
         11    1    1    2    0    0  0.78578078343E-01 -0.34850631410E+00  0.23418984241E+01  0.23689912738E+01  0.51100000000E-03 0. -1.
    9000002    1    1    2    0    0 -0.47341999630E-01  0.14606458920E+00  0.54144643629E-01  0.95202508978E+00  0.93800000000E+00 0.  1.
         22    1    1    2    0    0 -0.31236078713E-01  0.20244172491E+00  0.16039568996E+01  0.16169836364E+01  0.00000000000E+00 0. -1.
</event>
<event>
 5    1  0.2111786E+001  0.1558998E+01  0.7818608E-02  0.3399105E+00
         11   -1    0    0    0    0  0.00000000000E+00  0.00000000000E+00  0.39999999674E+01  0.40000000000E+01  0.51100000000E-03 0.  1.
    9000002   -1    0    0    0    0 -0.00000000000E+00 -0.00000000000E+00  0.00000000000E+00  0.93800000000E+00  0.93800000000E+00 0.  1.
         11    1    1    2    0    0 -0.21937152302E+00  0.50399285689E-01  0.97405173388E+00  0.99972045818E+00  0.51100000000E-03 0.  1.
    9000002    1    1    2    0    0  0.38515780827E-01 -0.26278638928E+00  0.78906432843E-01  0.97806460774E+00  0.93800000000E+00 0.  1.
         22    1    1    2    0    0  0.18085574219E+00  0.21238710360E+00  0.29470418006E+01  0.29602149341E+01  0.00000000000E+00 0.  1.
</event>
<event>
 5    1  0.2597721E+001  0.1566311E+01  0.7818608E-02  0.3390760E+00
         11   -1    0    0    0    0  0.00000000000E+00  0.00000000000E+00  0.39999999674E+01  0.40000000000E+01  0.51100000000E-03 0. -1.
    9000002   -1    0    0    0    0 -0.00000000000E+00 -0.00000000000E+00  0.00000000000E+00  0.93800000000E+00  0.93800000000E+00 0. -1.
         11    1    1    2    0    0 -0.37806197692E-01 -0.23311056868E+00  0.22642194633E+01  0.22765016769E+01  0.51100000000E-03 0. -1.
    9000002    1    1    2    0    0  0.21273070619E-01  0.29814564111E-01  0.25461509471E-01  0.93906003015E+00  0.93800000000E+00 0. -1.
         22    1    1    2    0    0  0.16533127073E-01  0.20329600457E+00  0.17103189946E+01  0.17224382929E+01  0.00000000000E+00 0. -1.
</event>
<event>
 5    1  0.2111786E+001  0.1587527E+01  0.7818608E-02  0.3367013E+00
         11   -1    0    0    0    0  0.00000000000E+00  0.00000000000E+00  0.39999999674E+01  0.40000000000E+01  0.51100000000E-03 0.  1.
    9000002   -1    0    0    0    0 -0.00000000000E+00 -0.00000000000E+00  0.00000000000E+00  0.93800000000E+00  0.93800000000E+00 0. -1.
         11    1    1    2    0    0 -0.35337767026E-01 -0.14334558045E-01  0.21888641521E+01  0.21891963765E+01  0.51100000000E-03 0.  1.
    9000002    1    1    2    0    0  0.17471425681E+00 -0.18506875609E+00  0.52406493550E-01  0.97332726078E+00  0.93800000000E+00 0. -1.
         22    1    1    2    0    0 -0.13937648978E+00  0.19940331413E+00  0.17587293217E+01  0.17754763627E+01  0.00000000000E+00 0.  1.
</event>
<event>
 5    1  0.2111786E+001  0.1533221E+01  0.7818608E-02  0.3429193E+00
         11   -1    0    0    0    0  0.00000000000E+00  0.00000000000E+00  0.39999999674E+01  0.40000000000E+01  0.51100000000E-03 0. -1.
    9000002   -1    0    0    0    0 -0.00000000000E+00 -0.00000000000E+00  0.00000000000E+00  0.93800000000E+00  0.93800000000E+00 0.  1.
         11    1    1    2    0    0  0.11060003138E+00 -0.20820433108E+00  0.26521015273E+01  0.26625597050E+01  0.51100000000E-03 0. -1.
    9000002    1    1    2    0    0  0.85293887479E-01 -0.45653984288E-01  0.56322865006E-01  0.94465633891E+00  0.93800000000E+00 0.  1.
         22    1    1    2    0    0 -0.19589391886E+00  0.25385831537E+00  0.12915755751E+01  0.13307839561E+01  0.00000000000E+00 0. -1.
</event>
<event>
 5    1  0.3087030E+001  0.1568054E+01  0.7818608E-02  0.3388784E+00
         11   -1    0    0    0    0  0.00000000000E+00  0.00000000000E+00  0.39999999674E+01  0.40000000000E+01  0.51100000000E-03 0.  1.
    9000002   -1    0    0    0    0 -0.00000000000E+00 -0.00000000000E+00  0.00000000000E+00  0.93800000000E+00  0.93800000000E+00 0.  1.
         11    1    1    2    0    0  0.21046446534E+00  0.59149404375E-01  0.24300916617E+01  0.24399056720E+01  0.51100000000E-03 0.  1.
    9000002    1    1    2    0    0 -0.22500050121E-01  0.17071002328E-01  0.23788103620E-01  0.93872655510E+00  0.93800000000E+00 0.  1.
         22    1    1    2    0    0 -0.18796441522E+00 -0.76220406703E-01  0.15461202021E+01  0.15593677729E+01  0.00000000000E+00 0. -1.
</event>
<event>
 5    1  0.2111786E+001  0.1262153E+01  0.7818608E-02  0.3857010E+00
         11   -1    0    0    0    0  0.00000000000E+00  0.00000000000E+00  0.39999999674E+01  0.40000000000E+01  0.51100000000E-03 0.  1.
    9000002   -1    0    0    0    0 -0.00000000000E+00 -0.00000000000E+00  0.00000000000E+00  0.93800000000E+00  0.93800000000E+00 0. -1.
         11    1    1    2    0    0  0.18087184241E+00  0.93863946800E+00  0.15699211679E+01  0.18380455405E+01  0.51100000000E-03 0.  1.
    9000002    1    1    2    0    0  0.14357134403E+00 -0.57917881725E+00  0.72446020781E+00  0.13269315830E+01  0.93800000000E+00 0. -1.
         22    1    1    2    0    0 -0.32444318644E+00 -0.35946065075E+00  0.17056185916E+01  0.17730228766E+01  0.00000000000E+00 0.  1.
</event>
<event>
 5    1  0.2111786E+001  0.1420631E+01  0.7818608E-02  0.3574462E+00
         11   -1    0    0    0    0  0.00000000000E+00  0.00000000000E+00  0.39999999674E+01  0.40000000000E+01  0.51100000000E-03 0. -1.
    9000002   -1    0    0    0    0 -0.00000000000E+00 -0.00000000000E+00  0.00000000000E+00  0.93800000000E+00  0.93800000000E+00 0.  1.
         11    1    1    2    0    0 -0.85752009348E+00 -0.11457439005E+00  0.31382998616E+01  0.32553639250E+01  0.51100000000E-03 0. -1.
    9000002    1    1    2    0    0  0.68731082040E+00  0.28667168847E+00  0.65952529473E+00  0.13672579988E+01  0.93800000000E+00 0.  1.
         22    1    1    2    0    0  0.17020927308E+00 -0.17209729842E+00  0.20217481100E+00  0.31537807623E+00  0.00000000000E+00 0.  1.
</event>
<event>
 5    1  0.2111786E+001  0.1522287E+01  0.7818608E-02  0.3442285E+00
         11   -1    0    0    0    0  0.00000000000E+00  0.00000000000E+00  0.39999999674E+01  0.40000000000E+01  0.51100000000E-03 0. -1.
    9000002   -1    0    0    0    0 -0.00000000000E+00 -0.00000000000E+00  0.00000000000E+00  0.93800000000E+00  0.93800000000E+00 0.  1.
         11    1    1    2    0    0  0.23912473231E-01 -0.22088883153E+00  0.43516332045E+00  0.48860112449E+00  0.51100000000E-03 0. -1.
    9000002    1    1    2    0    0 -0.16147038901E+00  0.50149271092E-01  0.78685230599E-01  0.95635924287E+00  0.93800000000E+00 0.  1.
         22    1    1    2    0    0  0.13755791578E+00  0.17073956044E+00  0.34861514163E+01  0.34930396326E+01  0.00000000000E+00 0. -1.
</event>
<event>
 5    1  0.2111786E+001  0.1592970E+01  0.7818608E-02  0.3361029E+00
         11   -1    0    0    0    0  0.00000000000E+00  0.00000000000E+00  0.39999999674E+01  0.40000000000E+01  0.51100000000E-03 0.  1.
    9000002   -1    0    0    0    0 -0.00000000000E+00 -0.00000000000E+00  0.00000000000E+00  0.93800000000E+00  0.93800000000E+00 0. -1.
         11    1    1    2    0    0 -0.69018020208E-01 -0.19163566734E+00  0.18430081823E+01  0.18542295265E+01  0.51100000000E-03 0.  1.
    9000002    1    1    2    0    0 -0.61292368376E-01  0.41800771853E+00  0.12644608480E+00  0.10364940036E+01  0.93800000000E+00 0. -1.
         22    1    1    2    0    0  0.13031038858E+00 -0.22637205119E+00  0.20305457003E+01  0.20472764698E+01  0.00000000000E+00 0.  1.
</event>
<event>
 5    1  0.2111786E+001  0.1561445E+01  0.7818608E-02  0.3396303E+00
         11   -1    0    0    0    0  0.00000000000E+00  0.00000000000E+00  0.39999999674E+01  0.40000000000E+01  0.51100000000E-03 0. -1.
    9000002   -1    0    0    0    0 -0.00000000000E+00 -0.00000000000E+00  0.00000000000E+00  0.93800000000E+00  0.93800000000E+00 0. -1.
         11    1    1    2    0    0 -0.95706803863E-01 -0.17422291076E+00  0.12011053068E+01  0.12174430722E+01  0.51100000000E-03 0. -1.
    9000002    1    1    2    0    0 -0.64171180151E-01 -0.29406425808E-01  0.31604785040E-01  0.94118305376E+00  0.93800000000E+00 0. -1.
         22    1    1    2    0    0  0.15987798401E+00  0.20362933657E+00  0.27672898755E+01  0.27793738740E+01  0.00000000000E+00 0. -1.
</event>
<event>
 5    1  0.2111786E+001  0.1585951E+01  0.7818608E-02  0.3368755E+00
         11   -1    0    0    0    0  0.00000000000E+00  0.00000000000E+00  0.39999999674E+01  0.40000000000E+01  0.51100000000E-03 0.  1.
    9000002   -1    0    0    0    0 -0.00000000000E+00 -0.00000000000E+00  0.00000000000E+00  0.93800000000E+00  0.93800000000E+00 0.  1.
         11    1    1    2    0    0  0.18130055670E-01 -0.21189555766E+00  0.17138639083E+01  0.17270084492E+01  0.51100000000E-03 0.  1.
    9000002    1    1    2    0    0  0.17893705105E+00  0.25286829461E+00  0.74954812634E-01  0.99066799009E+00  0.93800000000E+00 0.  1.
         22    1    1    2    0    0 -0.19706710672E+00 -0.40972736950E-01  0.22111812465E+01  0.22203235607E+01  0.00000000000E+00 0.  1.
</event>
<event>
 5    1  0.2111786E+001  0.1515596E+01  0.7818608E-02  0.3450397E+00
         11   -1    0    0    0    0  0.00000000000E+00  0.00000000000E+00  0.39999999674E+01  0.40000000000E+01  0.51100000000E-03 0. -1.
    9000002   -1    0    0    0    0 -0.00000000000E+00 -0.00000000000E+00  0.00000000000E+00  0.93800000000E+00  0.93800000000E+00 0.  1.
         11    1    1    2    0    0  0.22737470145E+00  0.47936161487E+00  0.11908012019E+01  0.13036466455E+01  0.51100000000E-03 0. -1.
    9000002    1    1    2    0    0 -0.78408120506E-01 -0.63926401737E+00  0.38629424980E+00  0.12016129014E+01  0.93800000000E+00 0.  1.
         22    1    1    2    0    0 -0.14896658095E+00  0.15990240250E+00  0.24229045156E+01  0.24327404531E+01  0.00000000000E+00 0. -1.
</event>
<event>
 5    1  0.2111786E+001  0.1522889E+01  0.7818608E-02  0.3441558E+00
         11   -1    0    0    0    0  0.00000000000E+00  0.00000000000E+00  0.39999999674E+01  0.40000000000E+01  0.51100000000E-03 0.  1.
    9000002   -1    0    0    0    0 -0.00000000000E+00 -0.00000000000E+00  0.00000000000E+00  0.93800000000E+00  0.93800000000E+00 0. -1.
         11    1    1    2    0    0  0.19869866892E+00  0.97864084913E-01  0.26372457389E+00  0.34439723016E+00  0.51100000000E-03 0.  1.
    9000002    1    1    2    0    0 -0.45759943629E+00 -0.21603622965E+00  0.24868635932E+00  0.10944212178E+01  0.93800000000E+00 0. -1.
         22    1    1    2    0    0  0.25890076738E+00  0.11817214474E+00  0.34875890342E+01  0.34991815521E+01  0.00000000000E+00 0.  1.
</event>
<event>
 5    1  0.2111786E+001  0.1485193E+01  0.7818608E-02  0.3488245E+00
         11   -1    0    0    0    0  0.00000000000E+00  0.00000000000E+00  0.39999999674E+01  0.40000000000E+01  0.51100000000E-03 0.  1.
    9000002   -1    0    0    0    0 -0.00000000000E+00 -0.00000000000E+00  0.00000000000E+00  0.93800000000E+00  0.93800000000E+00 0. -1.
         11    1    1    2    0    0  0.45276379098E+00 -0.29229766332E+00  0.19844492258E+01  0.20563248686E+01  0.51100000000E-03 0.  1.
    9000002    1    1    2    0    0 -0.34031132221E+00 -0.13638640651E-01  0.17581499533E+00  0.10132880741E+01  0.93800000000E+00 0. -1.
         22    1    1    2    0    0 -0.11245246877E+00  0.30593630397E+00  0.18397357462E+01  0.18683870573E+01  0.00000000000E+00 0. -1.
</event>
<event>
 5    1  0.2111786E+001  0.1572326E+01  0.7818608E-02  0.3383958E+00
         11   -1    0    0    0    0  0.00000000000E+00  0.00000000000E+00  0.39999999674E+01  0.40000000000E+01  0.51100000000E-03 0.  1.
    9000002   -1    0    0    0    0 -0.00000000000E+00 -0.00000000000E+00  0.00000000000E+00  0.93800000000E+00  0.93800000000E+00 0.  1.
         11    1    1    2    0    0 -0.81216771699E-01 -0.70739513838E-01  0.41735963940E+00  0.43103314553E+00  0.51100000000E-03 0.  1.
    9000002    1    1    2    0    0 -0.62602291218E-01 -0.14170496015E+00  0.36342100839E-01  0.95140111987E+00  0.93800000000E+00 0.  1.
         22    1    1    2    0    0  0.14381906292E+00  0.21244447399E+00  0.35462982271E+01  0.35555657346E+01  0.00000000000E+00 0.  1.
</event>
<event>
 5    1  0.2111786E+001  0.1559808E+01  0.7818608E-02  0.3398176E+00
         11   -1    0    0    0    0  0.00000000000E+00  0.00000000000E+00  0.39999999674E+01  0.40000000000E+01  0.51100000000E-03 0. -1.
    9000002   -1    0    0    0    0 -0.00000000000E+00 -0.00000000000E+00  0.00000000000E+00  0.93800000000E+00  0.93800000000E+00 0.  1.
         11    1    1    2    0    0 -0.10706536258E+00  0.33884157190E+00  0.22756081162E+01  0.23031867407E+01  0.51100000000E-03 0. -1.
    9000002    1    1    2    0    0  0.33839377790E+00 -0.20573105458E+00  0.13959421450E+00  0.10276994505E+01  0.93800000000E+00 0.  1.
         22    1    1    2    0    0 -0.23132841532E+00 -0.13311051732E+00  0.15847976366E+01  0.16071138089E+01  0.00000000000E+00 0. -1.
</event>
<event>
 5    1  0.2111786E+001  0.1538498E+01  0.7818608E-02  0.3422946E+00
         11   -1    0    0    0    0  0.00000000000E+00  0.00000000000E+00  0.39999999674E+01  0.40000000000E+01  0.51100000000E-03 0.  1.
    9000002   -1    0    0    0    0 -0.00000000000E+00 -0.00000000000E+00  0.00000000000E+00  0.93800000000E+00  0.93800000000E+00 0.  1.
         11    1    1    2    0    0  0.14223347543E+00  0.18949271372E+00  0.67298186296E+00  0.71347228333E+00  0.51100000000E-03 0.  1.
    9000002    1    1    2    0    0  0.45491855377E-01 -0.11758674994E+00  0.56801732269E-01  0.94813848643E+00  0.93800000000E+00 0.  1.
         22    1    1    2    0    0 -0.18772533081E+00 -0.71905963781E-01  0.32702163721E+01  0.32763892302E+01  0.00000000000E+00 0.  1.
</event>
<event>
 5    1  0.2111786E+001  0.1544053E+01  0.7818608E-02  0.3416419E+00
         11   -1    0    0    0    0  0.00000000000E+00  0.00000000000E+00  0.39999999674E+01  0.40000000000E+01  0.51100000000E-03 0. -1.
    9000002   -1    0    0    0    0 -0.00000000000E+00 -0.00000000000E+00  0.00000000000E+00  0.93800000000E+00  0.93800000000E+00 0. -1.
         11    1    1    2    0    0 -0.36241505637E+00  0.80709283149E-01  0.28947038516E+01  0.29184189746E+01  0.51100000000E-03 0. -1.
    9000002    1    1    2    0    0  0.18331434037E+00  0.32471560004E-01  0.65628255634E-01  0.95854557405E+00  0.93800000000E+00 0. -1.
         22    1    1    2    0    0  0.17910071600E+00 -0.11318084315E+00  0.10396678601E+01  0.10610354514E+01  0.00000000000E+00 0. -1.
</event>
<event>
 5    1  0.2111786E+001  0.1573254E+01  0.7818608E-02  0.3382914E+00
         11   -1    0    0    0    0  0.00000000000E+00  0.00000000000E+00  0.39999999674E+01  0.40000000000E+01  0.51100000000E-03 0.  1.
    9000002   -1    0    0    0    0 -0.00000000000E+00 -0.00000000000E+00  0.00000000000E+00  0.93800000000E+00  0.93800000000E+00 0.  1.
         11    1    1    2    0    0 -0.10264113936E+00 -0.14212888664E+00  0.16124050710E+01  0.16219081965E+01  0.51100000000E-03 0.  1.
    9000002    1    1    2    0    0 -0.56531388369E-02 -0.46186739422E-01  0.20836146374E-01  0.93938454207E+00  0.93800000000E+00 0.  1.
         22    1    1    2    0    0  0.10829427820E+00  0.18831562606E+00  0.23667587500E+01  0.23767072614E+01  0.00000000000E+00 0.  1.
</event>
<event>
 5    1  0.2111786E+001  0.1584555E+01  0.7818608E-02  0.3370299E+00
         11   -1    0    0    0    0  0.00000000000E+00  0.00000000000E+00  0.39999999674E+01  0.40000000000E+01  0.51100000000E-03 0.  1.
    9000002   -1    0    0    0    0 -0.00000000000E+00 -0.00000000000E+00  0.00000000000E+00  0.93800000000E+00  0.93800000000E+00 0.  1.
         11    1    1    2    0    0 -0.23428789298E+00 -0.80236075300E-01  0.23278191520E+01  0.23409551277E+01  0.51100000000E-03 0.  1.
    9000002    1    1    2    0    0  0.21834659212E+00  0.30401993478E+00  0.10667234773E+00  0.10155423895E+01  0.93800000000E+00 0.  1.
         22    1    1    2    0    0  0.15941300861E-01 -0.22378385948E+00  0.15655084677E+01  0.15815024828E+01  0.00000000000E+00 0.  1.
</event>
<event>
 5    1  0.2111786E+001  0.1454490E+01  0.7818608E-02  0.3528206E+00
         11   -1    0    0    0    0  0.00000000000E+00  0.00000000000E+00  0.39999999674E+01  0.40000000000E+01  0.51100000000E-03 0. -1.
    9000002   -1    0    0    0    0 -0.00000000000E+00 -0.00000000000E+00  0.00000000000E+00  0.93800000000E+00  0.93800000000E+00 0. -1.
         11    1    1    2    0    0  0.24466946679E+00 -0.46804934850E+00  0.19666960357E+01  0.20363759227E+01  0.51100000000E-03 0. -1.
    9000002    1    1    2    0    0  0.53968746559E-01  0.19415132524E+00  0.14496016761E+00  0.97029109699E+00  0.93800000000E+00 0. -1.
         22    1    1    2    0    0 -0.29863821335E+00  0.27389802325E+00  0.18883437641E+01  0.19313329803E+01  0.00000000000E+00 0.  1.
</event>
<event>
 5    1  0.2111786E+001  0.1539329E+01  0.7818608E-02  0.3421966E+00
         11   -1    0    0    0    0  0.00000000000E+00  0.00000000000E+00  0.39999999674E+01  0.40000000000E+01  0.51100000000E-03 0.  1.
    9000002   -1    0    0    0    0 -0.00000000000E+00 -0.00000000000E+00  0.00000000000E+00  0.93800000000E+00  0.93800000000E+00 0. -1.
         11    1    1    2    0    0 -0.14284045952E+00 -0.22171727023E+00  0.11142640313E+01  0.11450530718E+01  0.51100000000E-03 0.  1.
    9000002    1    1    2    0    0  0.46757182624E-01 -0.39883086205E-01  0.47657596843E-01  0.94121843439E+00  0.93800000000E+00 0. -1.
         22    1    1    2    0    0  0.96083276894E-01  0.26160035643E+00  0.28380783392E+01  0.28517284938E+01  0.00000000000E+00 0.  1.
</event>
<event>
 5    1  0.2111786E+001  0.1574577E+01  0.7818608E-02  0.3381428E+00
         11   -1    0    0    0    0  0.00000000000E+00  0.00000000000E+00  0.39999999674E+01  0.40000000000E+01  0.51100000000E-03 0. -1.
    9000002   -1    0    0    0    0 -0.00000000000E+00 -0.00000000000E+00  0.00000000000E+00  0.93800000000E+00  0.93800000000E+00 0.  1.
         11    1    1    2    0    0 -0.14032866889E+00  0.10896681428E-01  0.21235000923E+01  0.21281597159E+01  0.51100000000E-03 0. -1.
    9000002    1    1    2    0    0 -0.85425245832E-01 -0.95162053687E-01  0.29446511972E-01  0.94713482998E+00  0.93800000000E+00 0.  1.
         22    1    1    2    0    0  0.22575391472E+00  0.84265372258E-01  0.18470533631E+01  0.18627054542E+01  0.00000000000E+00 0.  1.
</event>
<event>
 5    1  0.2111786E+001  0.1524751E+01  0.7818608E-02  0.3439317E+00
         11   -1    0    0    0    0  0.00000000000E+00  0.00000000000E+00  0.39999999674E+01  0.40000000000E+01  0.51100000000E-03 0. -1.
    9000002   -1    0    0    0    0 -0.00000000000E+00 -0.00000000000E+00  0.00000000000E+00  0.93800000000E+00  0.93800000000E+00 0. -1.
         11    1    1    2    0    0  0.28632590883E+00 -0.69253451798E-01  0.33737470065E+01  0.33865834837E+01  0.51100000000E-03 0. -1.
    9000002    1    1    2    0    0 -0.95736172875E-01 -0.50235791831E-01  0.64631177718E-01  0.94641969480E+00  0.93800000000E+00 0. -1.
         22    1    1    2    0    0 -0.19058973596E+00  0.11948924363E+00  0.56162178312E+00  0.60499682154E+00  0.00000000000E+00 0.  1.
</event>
<event>
 5    1  0.2111786E+001  0.1574242E+01  0.7818608E-02  0.3381804E+00
         11   -1    0    0    0    0  0.00000000000E+00  0.00000000000E+00  0.39999999674E+01  0.40000000000E+01  0.51100000000E-03 0. -1.
    9000002   -1    0    0    0    0 -0.00000000000E+00 -0.00000000000E+00  0.00000000000E+00  0.93800000000E+00  0.93800000000E+00 0.  1.
         11    1    1    2    0    0  0.86066755846E-01  0.13519034397E+00  0.10470293706E+01  0.10592236212E+01  0.51100000000E-03 0. -1.
    9000002    1    1    2    0    0 -0.32857497294E-01  0.57793956171E-01  0.21623293664E-01  0.94060157523E+00  0.93800000000E+00 0.  1.
         22    1    1    2    0    0 -0.53209258552E-01 -0.19298430015E+00  0.29313473031E+01  0.29381748036E+01  0.00000000000E+00 0.  1.
</event>
<event>
 5    1  0.2111786E+001  0.1506480E+01  0.7818608E-02  0.3461572E+00
         11   -1    0    0    0    0  0.00000000000E+00  0.00000000000E+00  0.39999999674E+01  0.40000000000E+01  0.51100000000E-03 0.  1.
    9000002   -1    0    0    0    0 -0.00000000000E+00 -0.00000000000E+00  0.00000000000E+00  0.93800000000E+00  0.93800000000E+00 0.  1.
         11    1    1    2    0    0  0.75175485020E-01  0.31129373619E+00  0.75307727856E+00  0.81834026685E+00  0.51100000000E-03 0.  1.
    9000002    1    1    2    0    0  0.11259740267E+00 -0.17200880105E+00  0.10156073784E+00  0.96562093297E+00  0.93800000000E+00 0.  1.
         22    1    1    2    0    0 -0.18777288769E+00 -0.13928493515E+00  0.31453619510E+01  0.31540388002E+01  0.00000000000E+00 0.  1.
</event>
<event>
 5    1  0.2111786E+001  0.1587103E+01  0.7818608E-02  0.3367482E+00
         11   -1    0    0    0    0  0.00000000000E+00  0.00000000000E+00  0.39999999674E+01  0.40000000000E+01  0.51100000000E-03 0. -1.
    9000002   -1    0    0    0    0 -0.00000000000E+00 -0.00000000000E+00  0.00000000000E+00  0.93800000000E+00  0.93800000000E+00 0.  1.
         11    1    1    2    0    0 -0.47150062369E+00 -0.15554079114E+00  0.27579941988E+01  0.28023272539E+01  0.51100000000E-03 0. -1.
    9000002    1    1    2    0    0  0.64607119091E+00  0.51810426071E-01  0.30963338258E+00  0.11814436659E+01  0.93800000000E+00 0.  1.
         22    1    1    2    0    0 -0.17457056722E+00  0.10373036507E+00  0.93237238596E+00  0.95422908029E+00  0.00000000000E+00 0. -1.
</event>
<event>
 5    1  0.2111786E+001  0.1591081E+01  0.7818608E-02  0.3363101E+00
         11   -1    0    0    0    0  0.00000000000E+00  0.00000000000E+00  0.39999999674E+01  0.40000000000E+01  0.51100000000E-03 0. -1.
    9000002   -1    0    0    0    0 -0.00000000000E+00 -0.00000000000E+00  0.00000000000E+00  0.93800000000E+00  0.93800000000E+00 0. -1.
         11    1    1    2    0    0  0.17469660383E-01 -0.67387383055E-01  0.17044300948E+01  0.17058512413E+01  0.51100000000E-03 0. -1.
    9000002    1    1    2    0    0 -0.29405826242E+00  0.17464859445E+00  0.85283314839E-01  0.10020427321E+01  0.93800000000E+00 0. -1.
         22    1    1    2    0    0  0.27658860204E+00 -0.10726121139E+00  0.22102865577E+01  0.22301060265E+01  0.00000000000E+00 0. -1.
</event>
<event>
 5    1  0.2111786E+001  0.1494097E+01  0.7818608E-02  0.3476989E+00
         11   -1    0    0    0    0  0.00000000000E+00  0.00000000000E+00  0.39999999674E+01  0.40000000000E+01  0.51100000000E-03 0. -1.
    9000002   -1    0    0    0    0 -0.00000000000E+00 -0.00000000000E+00  0.00000000000E+00  0.93800000000E+00  0.93800000000E+00 0.  1.
         11    1    1    2    0    0 -0.20285000863E+00  0.42405119153E+00  0.23740236105E+01  0.24201148533E+01  0.51100000000E-03 0. -1.
    9000002    1    1    2    0    0  0.12805092390E+00 -0.10423532186E+00  0.10079573654E+00  0.95773995528E+00  0.93800000000E+00 0.  1.
         22    1    1    2    0    0  0.74799084726E-01 -0.31981586968E+00  0.15251806203E+01  0.15601451914E+01  0.00000000000E+00 0. -1.
</event>
<event>
 5    1  0.2111786E+001  0.1466751E+01  0.7818608E-02  0.3512030E+00
         11   -1    0    0    0    0  0.00000000000E+00  0.00000000000E+00  0.39999999674E+01  0.40000000000E+01  0.51100000000E-03 0. -1.
    9000002   -1    0    0    0    0 -0.00000000000E+00 -0.00000000000E+00  0.00000000000E+00  0.93800000000E+00  0.93800000000E+00 0. -1.
         11    1    1    2    0    0  0.17550034868E+00  0.40633785928E+00  0.79933875243E+00  0.91370319608E+00  0.51100000000E-03 0. -1.
    9000002    1    1    2    0    0  0.13844081454E+00 -0.45481686735E+00  0.28248662976E+00  0.10888833445E+01  0.93800000000E+00 0. -1.
         22    1    1    2    0    0 -0.31394116322E+00  0.48479008068E-01  0.29181745852E+01  0.29354134594E+01  0.00000000000E+00 0.  1.
</event>
<event>
 5    1  0.2111786E+001  0.1499734E+01  0.7818608E-02  0.3469937E+00
         11   -1    0    0    0    0  0.00000000000E+00  0.00000000000E+00  0.39999999674E+01  0.40000000000E+01  0.51100000000E-03 0.  1.
    9000002   -1    0    0    0    0 -0.00000000000E+00 -0.00000000000E+00  0.00000000000E+00  0.93800000000E+00  0.93800000000E+00 0.  1.
         11    1    1    2    0    0 -0.33618979077E+00 -0.26609199090E+00  0.17277013579E+01  0.17801069536E+01  0.51100000000E-03 0.  1.
    9000002    1    1    2    0    0  0.13505610819E+00  0.18012258985E-01  0.89730384037E-01  0.95208200049E+00  0.93800000000E+00 0.  1.
         22    1    1    2    0    0  0.20113368258E+00  0.24807973191E+00  0.21825682254E+01  0.22058110459E+01  0.00000000000E+00 0. -1.
</event>
<event>
 5    1  0.2111786E+001  0.1513979E+01  0.7818608E-02  0.3452368E+00
         11   -1    0    0    0    0  0.00000000000E+00  0.00000000000E+00  0.39999999674E+01  0.40000000000E+01  0.51100000000E-03 0.  1.
    9000002   -1    0    0    0    0 -0.00000000000E+00 -0.00000000000E+00  0.00000000000E+00  0.93800000000E+00  0.93800000000E+00 0.  1.
         11    1    1    2    0    0  0.13641191449E+00 -0.17608026762E+00  0.44522905229E+00  0.49783696246E+00  0.51100000000E-03 0.  1.
    9000002    1    1    2    0    0  0.11965217957E+00  0.38778309369E-01  0.76177470174E-01  0.94945637515E+00  0.93800000000E+00 0.  1.
         22    1    1    2    0    0 -0.25606409406E+00  0.13730195825E+00  0.34785934449E+01  0.34907066624E+01  0.00000000000E+00 0.  1.
</event>
<event>
 5    1  0.2111786E+001  0.1491058E+01  0.7818608E-02  0.3480814E+00
         11   -1    0    0    0    0  0.00000000000E+00  0.00000000000E+00  0.39999999674E+01  0.40000000000E+01  0.51100000000E-03 0.  1.
    9000002   -1    0    0    0    0 -0.00000000000E+00 -0.00000000000E+00  0.00000000000E+00  0.93800000000E+00  0.93800000000E+00 0. -1.
         11    1    1    2    0    0 -0.10778067115E+00 -0.14773021549E+00  0.22863687551E+00  0.29277290108E+00  0.51100000000E-03 0.  1.
    9000002    1    1    2    0    0  0.14391071702E+00 -0.38326771047E+00  0.21058065715E+00  0.10448888197E+01  0.93800000000E+00 0. -1.
         22    1    1    2    0    0 -0.36130045866E-01  0.53099792596E+00  0.35607824347E+01  0.36003382792E+01  0.00000000000E+00 0.  1.
</event>
<event>
 5    1  0.2111786E+001  0.1572095E+01  0.7818608E-02  0.3384218E+00
         11   -1    0    0    0    0  0.00000000000E+00  0.00000000000E+00  0.39999999674E+01  0.40000000000E+01  0.51100000000E-03 0. -1.
    9000002   -1    0    0    0    0 -0.00000000000E+00 -0.00000000000E+00  0.00000000000E+00  0.93800000000E+00  0.93800000000E+00 0. -1.
         11    1    1    2    0    0 -0.18437486438E+00 -0.33410449043E-01  0.12040088817E+01  0.12185023582E+01  0.51100000000E-03 0. -1.
    9000002    1    1    2    0    0  0.64857264721E-01 -0.16015288322E+00  0.40509615856E-01  0.95464152422E+00  0.93800000000E+00 0. -1.
         22    1    1    2    0    0  0.11951759966E+00  0.19356333226E+00  0.27554814698E+01  0.27648561175E+01  0.00000000000E+00 0. -1.
</event>
<event>
 5    1  0.2111786E+001  0.1578361E+01  0.7818608E-02  0.3377189E+00
         11   -1    0    0    0    0  0.00000000000E+00  0.00000000000E+00  0.39999999674E+01  0.40000000000E+01  0.51100000000E-03 0. -1.
    9000002   -1    0    0    0    0 -0.00000000000E+00 -0.00000000000E+00  0.00000000000E+00  0.93800000000E+00  0.93800000000E+00 0. -1.
         11    1    1    2    0    0  0.17996112294E-01 -0.13643662456E+00  0.11704423069E+01  0.11785050987E+01  0.51100000000E-03 0. -1.
    9000002    1    1    2    0    0 -0.12861882759E+00 -0.76459357527E-01  0.30681790484E-01  0.95035478030E+00  0.93800000000E+00 0. -1.
         22    1    1    2    0    0  0.11062271530E+00  0.21289598209E+00  0.27988758699E+01  0.28091401210E+01  0.00000000000E+00 0. -1.
</event>
<event>
 5    1  0.2111786E+001  0.1548787E+01  0.7818608E-02  0.3410896E+00
         11   -1    0    0    0    0  0.00000000000E+00  0.00000000000E+00  0.39999999674E+01  0.40000000000E+01  0.51100000000E-03 0. -1.
    9000002   -1    0    0    0    0 -0.00000000000E+00 -0.00000000000E+00  0.00000000000E+00  0.93800000000E+00  0.93800000000E+00 0. -1.
         11    1    1    2    0    0  0.27575041372E+00 -0.43739423031E-01  0.20951042343E+01  0.21136256626E+01  0.51100000000E-03 0. -1.
    9000002    1    1    2    0    0 -0.20310680216E-01 -0.24296663583E-01  0.38470844217E-01  0.93932255240E+00  0.93800000000E+00 0. -1.
         22    1    1    2    0    0 -0.25543973350E+00  0.68036086614E-01  0.18664248888E+01  0.18850517850E+01  0.00000000000E+00 0. -1.
</event>
<event>
 5    1  0.3711776E+001  0.1572951E+01  0.7818608E-02  0.3383256E+00
         11   -1    0    0    0    0  0.00000000000E+00  0.00000000000E+00  0.39999999674E+01  0.40000000000E+01  0.51100000000E-03 0. -1.
    9000002   -1    0    0    0    0 -0.00000000000E+00 -0.00000000000E+00  0.00000000000E+00  0.93800000000E+00  0.93800000000E+00 0. -1.
         11    1    1    2    0    0  0.16879711979E+00 -0.67940018479E-01  0.23880818722E+01  0.23950038837E+01  0.51100000000E-03 0. -1.
    9000002    1    1    2    0    0  0.20591362792E-01  0.32876754795E-02  0.19892965630E-01  0.93844261578E+00  0.93800000000E+00 0. -1.
         22    1    1    2    0    0 -0.18938848258E+00  0.64652342999E-01  0.15920251295E+01  0.16045535005E+01  0.00000000000E+00 0. -1.
</event>
<event>
 5    1  0.2111786E+001  0.1503077E+01  0.7818608E-02  0.3465782E+00
         11   -1    0    0    0    0  0.00000000000E+00  0.00000000000E+00  0.39999999674E+01  0.40000000000E+01  0.51100000000E-03 0.  1.
    9000002   -1    0    0    0    0 -0.00000000000E+00 -0.00000000000E+00  0.00000000000E+00  0.93800000000E+00  0.93800000000E+00 0. -1.
         11    1    1    2    0    0 -0.41588644138E+00  0.16842623449E+00  0.29092988061E+01  0.29436964403E+01  0.51100000000E-03 0.  1.
    9000002    1    1    2    0    0  0.15236963264E+00 -0.59806449414E-01  0.93021308114E-01  0.95670804329E+00  0.93800000000E+00 0. -1.
         22    1    1    2    0    0  0.26351680875E+00 -0.10861978508E+00  0.99767985314E+00  0.10375955164E+01  0.00000000000E+00 0. -1.
</event>
<event>
 5    1  0.2111786E+001  0.1555428E+01  0.7818608E-02  0.3403208E+00
         11   -1    0    0    0    0  0.00000000000E+00  0.00000000000E+00  0.39999999674E+01  0.40000000000E+01  0.51100000000E-03 0. -1.
    9000002   -1    0    0    0    0 -0.00000000000E+00 -0.00000000000E+00  0.00000000000E+00  0.93800000000E+00  0.93800000000E+00 0.  1.
         11    1    1    2    0    0 -0.28008677634E+00  0.81412117745E-01  0.21739462823E+01  0.21934263686E+01  0.51100000000E-03 0. -1.
    9000002    1    1    2    0    0  0.11778879713E+00  0.89493705422E-01  0.47828367798E-01  0.95079696929E+00  0.93800000000E+00 0.  1.
         22    1    1    2    0    0  0.16229797921E+00 -0.17090582317E+00  0.17782253173E+01  0.17937766621E+01  0.00000000000E+00 0. -1.
</event>
<event>
 5    1  0.2111786E+001  0.1590423E+01  0.7818608E-02  0.3363823E+00
         11   -1    0    0    0    0  0.00000000000E+00  0.00000000000E+00  0.39999999674E+01  0.40000000000E+01  0.51100000000E-03 0. -1.
    9000002   -1    0    0    0    0 -0.00000000000E+00 -0.00000000000E+00  0.00000000000E+00  0.93800000000E+00  0.93800000000E+00 0. -1.
         11    1    1    2    0    0 -0.82861516443E-01  0.89811702168E-01  0.15583623853E+01  0.15631461089E+01  0.51100000000E-03 0. -1.
    9000002    1    1    2    0    0  0.22500719364E+00  0.58778379774E-01  0.42933857641E-01  0.96735228911E+00  0.93800000000E+00 0. -1.
         22    1    1    2    0    0 -0.14214567720E+00 -0.14859008194E+00  0.23987037244E+01  0.24075016020E+01  0.00000000000E+00 0. -1.
</event>
<event>
 5    1  0.2111786E+001  0.1563112E+01  0.7818608E-02  0.3394400E+00
         11   -1    0    0    0    0  0.00000000000E+00  0.00000000000E+00  0.39999999674E+01  0.40000000000E+01  0.51100000000E-03 0. -1.
    9000002   -1    0    0    0    0 -0.00000000000E+00 -0.00000000000E+00  0.00000000000E+00  0.93800000000E+00  0.93800000000E+00 0.  1.
         11    1    1    2    0    0  0.59132448736E-01  0.17547527299E+00  0.70189342956E+00  0.72590830379E+00  0.51100000000E-03 0. -1.
    9000002    1    1    2    0    0 -0.18977119938E+00 -0.23398330139E-02  0.51651936975E-01  0.95839997158E+00  0.93800000000E+00 0.  1.
         22    1    1    2    0    0  0.13063875064E+00 -0.17313543997E+00  0.32464546008E+01  0.32536917246E+01  0.00000000000E+00 0.  1.
</event>
<event>
 5    1  0.2111786E+001  0.1574200E+01  0.7818608E-02  0.3381851E+00
         11   -1    0    0    0    0  0.00000000000E+00  0.00000000000E+00  0.39999999674E+01  0.40000000000E+01  0.51100000000E-03 0.  1.
    9000002   -1    0    0    0    0 -0.00000000000E+00 -0.00000000000E+00  0.00000000000E+00  0.93800000000E+00  0.93800000000E+00 0. -1.
         11    1    1    2    0    0  0.14594878468E+00  0.46986266522E-02  0.26020871212E+01  0.26061812624E+01  0.51100000000E-03 0.  1.
    9000002    1    1    2    0    0  0.56103970597E-01  0.81276783357E-02  0.20840061633E-01  0.93994256359E+00  0.93800000000E+00 0. -1.
         22    1    1    2    0    0 -0.20205275527E+00 -0.12826304988E-01  0.13770727845E+01  0.13918761740E+01  0.00000000000E+00 0. -1.
</event>
<event>
 5    1  0.2111786E+001  0.1561822E+01  0.7818608E-02  0.3395872E+00
         11   -1    0    0    0    0  0.00000000000E+00  0.00000000000E+00  0.39999999674E+01  0.40000000000E+01  0.51100000000E-03 0.  1.
    9000002   -1    0    0    0    0 -0.00000000000E+00 -0.00000000000E+00  0.00000000000E+00  0.93800000000E+00  0.93800000000E+00 0. -1.
         11    1    1    2    0    0 -0.32047987765E-01 -0.25812925444E+00  0.78576962999E+00  0.82770281989E+00  0.51100000000E-03 0.  1.
    9000002    1    1    2    0    0  0.29413977537E+00  0.33497413540E+00  0.16823385910E+00  0.10520800873E+01  0.93800000000E+00 0. -1.
         22    1    1    2    0    0 -0.26209178761E+00 -0.76844880960E-01  0.30459964783E+01  0.30582170928E+01  0.00000000000E+00 0.  1.
</event>
<event>
 5    1  0.2111786E+001  0.1555678E+01  0.7818608E-02  0.3402920E+00
         11   -1    0    0    0    0  0.00000000000E+00  0.00000000000E+00  0.39999999674E+01  0.40000000000E+01  0.51100000000E-03 0.  1.
    9000002   -1    0    0    0    0 -0.00000000000E+00 -0.00000000000E+00  0.00000000000E+00  0.93800000000E+00  0.93800000000E+00 0.  1.
         11    1    1    2    0    0  0.12059373006E+00  0.18018582364E+00  0.30480947207E+01  0.30557963719E+01  0.51100000000E-03 0.  1.
    9000002    1    1    2    0    0 -0.59484960740E-01  0.25707823556E-01  0.35433781472E-01  0.94090323924E+00  0.93800000000E+00 0.  1.
         22    1    1    2    0    0 -0.61108769319E-01 -0.20589364719E+00  0.91647146516E+00  0.94130038888E+00  0.00000000000E+00 0.  1.
</event>
<event>
 5    1  0.2111786E+001  0.1558243E+01  0.7818608E-02  0.3399971E+00
         11   -1    0    0    0    0  0.00000000000E+00  0.00000000000E+00  0.39999999674E+01  0.40000000000E+01  0.51100000000E-03 0.  1.
    9000002   -1    0    0    0    0 -0.00000000000E+00 -0.00000000000E+00  0.00000000000E+00  0.93800000000E+00  0.93800000000E+00 0.  1.
         11    1    1    2    0    0 -0.13034169190E+00  0.23179960095E+00  0.19494724843E+01  0.19675271891E+01  0.51100000000E-03 0.  1.
    9000002    1    1    2    0    0  0.65111777221E-01 -0.15271882420E-01  0.33677074103E-01  0.94098401647E+00  0.93800000000E+00 0.  1.
         22    1    1    2    0    0  0.65229914679E-01 -0.21652771853E+00  0.20168504089E+01  0.20294887944E+01  0.00000000000E+00 0.  1.
</event>
<event>
 5    1  0.2111786E+001  0.1555850E+01  0.7818608E-02  0.3402722E+00
         11   -1    0    0    0    0  0.00000000000E+00  0.00000000000E+00  0.39999999674E+01  0.40000000000E+01  0.51100000000E-03 0.  1.
    9000002   -1    0    0    0    0 -0.00000000000E+00 -0.00000000000E+00  0.00000000000E+00  0.93800000000E+00  0.93800000000E+00 0.  1.
         11    1    1    2    0    0  0.28013416726E+00  0.92276119165E-01  0.24769655031E+01  0.24944635492E+01  0.51100000000E-03 0.  1.
    9000002    1    1    2    0    0 -0.11359228651E+00  0.53025769457E-01  0.43239318725E-01  0.94732707048E+00  0.93800000000E+00 0.  1.
         22    1    1    2    0    0 -0.16654188075E+00 -0.14530188862E+00  0.14797951455E+01  0.14962093803E+01  0.00000000000E+00 0.  1.
</event>
<event>
 5    1  0.2111786E+001  0.1573892E+01  0.7818608E-02  0.3382197E+00
         11   -1    0    0    0    0  0.00000000000E+00  0.00000000000E+00  0.39999999674E+01  0.40000000000E+01  0.51100000000E-03 0.  1.
    9000002   -1    0    0    0    0 -0.00000000000E+00 -0.00000000000E+00  0.00000000000E+00  0.93800000000E+00  0.93800000000E+00 0. -1.
         11    1    1    2    0    0  0.22665653330E+00  0.10558958854E-01  0.24334888692E+01  0.24440443967E+01  0.51100000000E-03 0.  1.
    9000002    1    1    2    0    0 -0.14184817878E+00 -0.22140406501E+00  0.66064863078E-01  0.97639604258E+00  0.93800000000E+00 0. -1.
         22    1    1    2    0    0 -0.84808354524E-01  0.21084510616E+00  0.15004462351E+01  0.15175595607E+01  0.00000000000E+00 0. -1.
</event>
<event>
 5    1  0.2111786E+001  0.1417875E+01  0.7818608E-02  0.3578648E+00
         11   -1    0    0    0    0  0.00000000000E+00  0.00000000000E+00  0.39999999674E+01  0.40000000000E+01  0.51100000000E-03 0. -1.
    9000002   -1    0    0    0    0 -0.00000000000E+00 -0.00000000000E+00  0.00000000000E+00  0.93800000000E+00  0.93800000000E+00 0.  1.
         11    1    1    2    0    0 -0.67635364383E+00 -0.88468244383E-01  0.14438843564E+01  0.15968979860E+01  0.51100000000E-03 0. -1.
    9000002    1    1    2    0    0  0.45170439682E+00 -0.21307920759E-01  0.31760789552E+00  0.10886733509E+01  0.93800000000E+00 0.  1.
         22    1    1    2    0    0  0.22464924700E+00  0.10977616514E+00  0.22385077154E+01  0.22524286632E+01  0.00000000000E+00 0.  1.
</event>
<event>
 5    1  0.2111786E+001  0.1561232E+01  0.7818608E-02  0.3396547E+00
         11   -1    0    0    0    0  0.00000000000E+00  0.00000000000E+00  0.39999999674E+01  0.40000000000E+01  0.51100000000E-03 0. -1.
    9000002   -1    0    0    0    0 -0.00000000000E+00 -0.00000000000E+00  0.00000000000E+00  0.93800000000E+00  0.93800000000E+00 0. -1.
         11    1    1    2    0    0 -0.25250811055E-01 -0.21537499361E+00  0.20519487309E+01  0.20633753529E+01  0.51100000000E-03 0. -1.
    9000002    1    1    2    0    0 -0.19409124748E-02 -0.36704708225E-01  0.29281810305E-01  0.93917646221E+00  0.93800000000E+00 0. -1.
         22    1    1    2    0    0  0.27191723530E-01  0.25207970184E+00  0.19187694261E+01  0.19354481849E+01  0.00000000000E+00 0.  1.
</event>
<event>
 5    1  0.2111786E+001  0.1557034E+01  0.7818608E-02  0.3401360E+00
         11   -1    0    0    0    0  0.00000000000E+00  0.00000000000E+00  0.39999999674E+01  0.40000000000E+01  0.51100000000E-03 0.  1.
    9000002   -1    0    0    0    0 -0.00000000000E+00 -0.00000000000E+00  0.00000000000E+00  0.93800000000E+00  0.93800000000E+00 0.  1.
         11    1    1    2    0    0  0.18988313821E+00 -0.64529185238E-01  0.82388908047E+00  0.84794640159E+00  0.51100000000E-03 0.  1.
    9000002    1    1    2    0    0  0.29504341854E-01  0.68163897221E-01  0.35310726814E-01  0.94159846564E+00  0.93800000000E+00 0.  1.
         22    1    1    2    0    0 -0.21938748007E+00 -0.36347119833E-02  0.31408001601E+01  0.31484551328E+01  0.00000000000E+00 0.  1.
</event>
<event>
 5    1  0.2111786E+001  0.1503004E+01  0.7818608E-02  0.3465872E+00
         11   -1    0    0    0    0  0.00000000000E+00  0.00000000000E+00  0.39999999674E+01  0.40000000000E+01  0.51100000000E-03 0. -1.
    9000002   -1    0    0    0    0 -0.00000000000E+00 -0.00000000000E+00  0.00000000000E+00  0.93800000000E+00  0.93800000000E+00 0.  1.
         11    1    1    2    0    0 -0.21940217992E+00 -0.10981834649E+00  0.34164303579E+01  0.34252290488E+01  0.51100000000E-03 0. -1.
    9000002    1    1    2    0    0  0.49886601309E-01 -0.87303382758E-01  0.80886182120E-01  0.94683532258E+00  0.93800000000E+00 0.  1.
         22    1    1    2    0    0  0.16951557861E+00  0.19712172925E+00  0.50268342737E+00  0.56593562857E+00  0.00000000000E+00 0.  1.
</event>
<event>
 5    1  0.2111786E+001  0.1557852E+01  0.7818608E-02  0.3400419E+00
         11   -1    0    0    0    0  0.00000000000E+00  0.00000000000E+00  0.39999999674E+01  0.40000000000E+01  0.51100000000E-03 0.  1.
    9000002   -1    0    0    0    0 -0.00000000000E+00 -0.00000000000E+00  0.00000000000E+00  0.93800000000E+00  0.93800000000E+00 0. -1.
         11    1    1    2    0    0 -0.32529617230E+00  0.10147272574E+00  0.24000722584E+01  0.24241413780E+01  0.51100000000E-03 0.  1.
    9000002    1    1    2    0    0  0.14798010465E+00 -0.24586987355E+00  0.88131943488E-01  0.98486615616E+00  0.93800000000E+00 0. -1.
         22    1    1    2    0    0  0.17731606765E+00  0.14439714781E+00  0.15117957655E+01  0.15289924658E+01  0.00000000000E+00 0.  1.
</event>
<event>
 5    1  0.2111786E+001  0.1565484E+01  0.7818608E-02  0.3391700E+00
         11   -1    0    0    0    0  0.00000000000E+00  0.00000000000E+00  0.39999999674E+01  0.40000000000E+01  0.51100000000E-03 0.  1.
    9000002   -1    0    0    0    0 -0.00000000000E+00 -0.00000000000E+00  0.00000000000E+00  0.93800000000E+00  0.93800000000E+00 0. -1.
         11    1    1    2    0    0 -0.12296978248E-01 -0.19972152779E+00  0.11203040774E+01  0.11380340027E+01  0.51100000000E-03 0.  1.
    9000002    1    1    2    0    0  0.62445824209E-01 -0.25813819833E-02  0.27827690663E-01  0.94049163997E+00  0.93800000000E+00 0. -1.
         22    1    1    2    0    0 -0.50148845961E-01  0.20230290977E+00  0.28518681993E+01  0.28594743573E+01  0.00000000000E+00 0.  1.
</event>
<event>
 5    1  0.2111786E+001  0.1598307E+01  0.7818608E-02  0.3355203E+00
         11   -1    0    0    0    0  0.00000000000E+00  0.00000000000E+00  0.39999999674E+01  0.40000000000E+01  0.51100000000E-03 0. -1.
    9000002   -1    0    0    0    0 -0.00000000000E+00 -0.00000000000E+00  0.00000000000E+00  0.93800000000E+00  0.93800000000E+00 0. -1.
         11    1    1    2    0    0  0.81692196026E-01  0.64631361399E-01  0.16943650372E+01  0.16975641278E+01  0.51100000000E-03 0. -1.
    9000002    1    1    2    0    0 -0.26406110940E+00 -0.21925214012E+00  0.80027001845E-01  0.10020220015E+01  0.93800000000E+00 0. -1.
         22    1    1    2    0    0  0.18236891337E+00  0.15462077872E+00  0.22256079284E+01  0.22384138707E+01  0.00000000000E+00 0. -1.
</event>
<event>
 5    1  0.2111786E+001  0.1590435E+01  0.7818608E-02  0.3363811E+00
         11   -1    0    0    0    0  0.00000000000E+00  0.00000000000E+00  0.39999999674E+01  0.40000000000E+01  0.51100000000E-03 0.  1.
    9000002   -1    0    0    0    0 -0.00000000000E+00 -0.00000000000E+00  0.00000000000E+00  0.93800000000E+00  0.93800000000E+00 0. -1.
         11    1    1    2    0    0 -0.10692989748E+00  0.24876429368E+00  0.19530442068E+01  0.19717250345E+01  0.51100000000E-03 0.  1.
    9000002    1    1    2    0    0  0.32413653159E+00 -0.29282099749E+00  0.13729037247E+00  0.10437917772E+01  0.93800000000E+00 0. -1.
         22    1    1    2    0    0 -0.21720663411E+00  0.44056703806E-01  0.19096653881E+01  0.19224831883E+01  0.00000000000E+00 0.  1.
</event>
<event>
 5    1  0.2111786E+001  0.1525710E+01  0.7818608E-02  0.3438164E+00
         11   -1    0    0    0    0  0.00000000000E+00  0.00000000000E+00  0.39999999674E+01  0.40000000000E+01  0.51100000000E-03 0.  1.
    9000002   -1    0    0    0    0 -0.00000000000E+00 -0.00000000000E+00  0.00000000000E+00  0.93800000000E+00  0.93800000000E+00 0.  1.
         11    1    1    2    0    0  0.29831225985E+00  0.11332761813E+00  0.98323362827E+00  0.10337223913E+01  0.51100000000E-03 0.  1.
    9000002    1    1    2    0    0 -0.21433189192E+00  0.14344111228E+00  0.10326102032E+00  0.97827416960E+00  0.93800000000E+00 0.  1.
         22    1    1    2    0    0 -0.83980367930E-01 -0.25676873041E+00  0.29135053188E+01  0.29260034391E+01  0.00000000000E+00 0.  1.
</event>
<event>
 5    1  0.2111786E+001  0.1467975E+01  0.7818608E-02  0.3510432E+00
         11   -1    0    0    0    0  0.00000000000E+00  0.00000000000E+00  0.39999999674E+01  0.40000000000E+01  0.51100000000E-03 0.  1.
    9000002   -1    0    0    0    0 -0.00000000000E+00 -0.00000000000E+00  0.00000000000E+00  0.93800000000E+00  0.93800000000E+00 0.  1.
         11    1    1    2    0    0 -0.16714734209E+00  0.17078601575E+00  0.27762762802E+00  0.36631060332E+00  0.51100000000E-03 0.  1.
    9000002    1    1    2    0    0  0.20775280826E-01  0.22011904797E-01  0.10287863090E+00  0.94411024194E+00  0.93800000000E+00 0.  1.
         22    1    1    2    0    0  0.14637206126E+00 -0.19279792054E+00  0.36194937084E+01  0.36275791547E+01  0.00000000000E+00 0.  1.
</event>
<event>
 5    1  0.2111786E+001  0.1540185E+01  0.7818608E-02  0.3420959E+00
         11   -1    0    0    0    0  0.00000000000E+00  0.00000000000E+00  0.39999999674E+01  0.40000000000E+01  0.51100000000E-03 0.  1.
    9000002   -1    0    0    0    0 -0.00000000000E+00 -0.00000000000E+00  0.00000000000E+00  0.93800000000E+00  0.93800000000E+00 0. -1.
         11    1    1    2    0    0  0.20598589614E+00 -0.22003222553E-01  0.67920361187E+00  0.71009304933E+00  0.51100000000E-03 0.  1.
    9000002    1    1    2    0    0  0.93860016014E-01  0.33564552867E-01  0.51306387740E-01  0.94467593768E+00  0.93800000000E+00 0. -1.
         22    1    1    2    0    0 -0.29984591216E+00 -0.11561330313E-01  0.32694899678E+01  0.32832310130E+01  0.00000000000E+00 0.  1.
</event>
<event>
 5    1  0.2111786E+001  0.1668702E+01  0.7818608E-02  0.3282015E+00
         11   -1    0    0    0    0  0.00000000000E+00  0.00000000000E+00  0.39999999674E+01  0.40000000000E+01  0.51100000000E-03 0.  1.
    9000002   -1    0    0    0    0 -0.00000000000E+00 -0.00000000000E+00  0.00000000000E+00  0.93800000000E+00  0.93800000000E+00 0.  1.
         11    1    1    2    0    0  0.13842549248E+00  0.37118813327E+00  0.13663129077E+00  0.41905920582E+00  0.51100000000E-03 0.  1.
    9000002    1    1    2    0    0  0.16821615153E-01 -0.17924545255E+00  0.38175800605E+00  0.10285888752E+01  0.93800000000E+00 0.  1.
         22    1    1    2    0    0 -0.15524710763E+00 -0.19194268072E+00  0.34816106705E+01  0.34903519190E+01  0.00000000000E+00 0.  1.
</event>
<event>
 5    1  0.2111786E+001  0.1540447E+01  0.7818608E-02  0.3420650E+00
         11   -1    0    0    0    0  0.00000000000E+00  0.00000000000E+00  0.39999999674E+01  0.40000000000E+01  0.51100000000E-03 0.  1.
    9000002   -1    0    0    0    0 -0.00000000000E+00 -0.00000000000E+00  0.00000000000E+00  0.93800000000E+00  0.93800000000E+00 0.  1.
         11    1    1    2    0    0  0.26277631445E+00  0.76503901775E-01  0.26124560058E+01  0.26267529160E+01  0.51100000000E-03 0.  1.
    9000002    1    1    2    0    0  0.21662213517E-01 -0.13334536490E+00  0.56932506906E-01  0.94938693280E+00  0.93800000000E+00 0.  1.
         22    1    1    2    0    0 -0.28443852797E+00  0.56841463126E-01  0.13306114547E+01  0.13618601512E+01  0.00000000000E+00 0. -1.
</event>
<event>
 5    1  0.2111786E+001  0.1555977E+01  0.7818608E-02  0.3402575E+00
         11   -1    0    0    0    0  0.00000000000E+00  0.00000000000E+00  0.39999999674E+01  0.40000000000E+01  0.51100000000E-03 0. -1.
    9000002   -1    0    0    0    0 -0.00000000000E+00 -0.00000000000E+00  0.00000000000E+00  0.93800000000E+00  0.93800000000E+00 0. -1.
         11    1    1    2    0    0  0.65273368236E-01 -0.19409848541E+00  0.53391109121E+00  0.57183577107E+00  0.51100000000E-03 0. -1.
    9000002    1    1    2    0    0  0.22394572257E+00  0.33377019816E+00  0.14635603531E+00  0.10309308032E+01  0.93800000000E+00 0. -1.
         22    1    1    2    0    0 -0.28921909080E+00 -0.13967171275E+00  0.33197328408E+01  0.33352334258E+01  0.00000000000E+00 0. -1.
</event>
<event>
 5    1  0.2111786E+001  0.1459285E+01  0.7818608E-02  0.3521845E+00
         11   -1    0    0    0    0  0.00000000000E+00  0.00000000000E+00  0.39999999674E+01  0.40000000000E+01  0.51100000000E-03 0.  1.
    9000002   -1    0    0    0    0 -0.00000000000E+00 -0.00000000000E+00  0.00000000000E+00  0.93800000000E+00  0.93800000000E+00 0. -1.
         11    1    1    2    0    0  0.34998490087E+00 -0.11616035126E+00  0.74449403395E+00  0.83081543423E+00  0.51100000000E-03 0.  1.
    9000002    1    1    2    0    0  0.10130486552E-01 -0.27072046395E+00  0.18774559905E+00  0.99422563150E+00  0.93800000000E+00 0. -1.
         22    1    1    2    0    0 -0.36011538742E+00  0.38688081521E+00  0.30677603344E+01  0.31129589343E+01  0.00000000000E+00 0.  1.
</event>
<event>
 5    1  0.2111786E+001  0.1477613E+01  0.7818608E-02  0.3497943E+00
         11   -1    0    0    0    0  0.00000000000E+00  0.00000000000E+00  0.39999999674E+01  0.40000000000E+01  0.51100000000E-03 0. -1.
    9000002   -1    0    0    0    0 -0.00000000000E+00 -0.00000000000E+00  0.00000000000E+00  0.93800000000E+00  0.93800000000E+00 0. -1.
         11    1    1    2    0    0  0.43892587885E+00 -0.35363340811E+00  0.18266350899E+01  0.19116245780E+01  0.51100000000E-03 0. -1.
    9000002    1    1    2    0    0 -0.18548555776E+00  0.25096916234E+00  0.16833052478E+00  0.10027809223E+01  0.93800000000E+00 0. -1.
         22    1    1    2    0    0 -0.25344032109E+00  0.10266424576E+00  0.20050343527E+01  0.20235944997E+01  0.00000000000E+00 0.  1.
</event>
<event>
 5    1  0.2111786E+001  0.1574007E+01  0.7818608E-02  0.3382068E+00
         11   -1    0    0    0    0  0.00000000000E+00  0.00000000000E+00  0.39999999674E+01  0.40000000000E+01  0.51100000000E-03 0. -1.
    9000002   -1    0    0    0    0 -0.00000000000E+00 -0.00000000000E+00  0.00000000000E+00  0.93800000000E+00  0.93800000000E+00 0.  1.
         11    1    1    2    0    0  0.69644882290E-01  0.15047216674E+00  0.17809409580E+01  0.17886428486E+01  0.51100000000E-03 0. -1.
    9000002    1    1    2    0    0 -0.70931103029E-01  0.83665484472E-01  0.26946561946E-01  0.94477576804E+00  0.93800000000E+00 0.  1.
         22    1    1    2    0    0  0.12862207396E-02 -0.23413765121E+00  0.21921124474E+01  0.22045813834E+01  0.00000000000E+00 0. -1.
</event>
<event>
 5    1  0.2111786E+001  0.1535584E+01  0.7818608E-02  0.3426390E+00
         11   -1    0    0    0    0  0.00000000000E+00  0.00000000000E+00  0.39999999674E+01  0.40000000000E+01  0.51100000000E-03 0. -1.
    9000002   -1    0    0    0    0 -0.00000000000E+00 -0.00000000000E+00  0.00000000000E+00  0.93800000000E+00  0.93800000000E+00 0. -1.
         11    1    1    2    0    0 -0.11807074490E+00  0.21675480906E+00  0.93040773772E+00  0.96259138142E+00  0.51100000000E-03 0. -1.
    9000002    1    1    2    0    0  0.14596936581E-01  0.67677955384E-01  0.51269025153E-01  0.94194792273E+00  0.93800000000E+00 0. -1.
         22    1    1    2    0    0  0.10347380832E+00 -0.28443276445E+00  0.30183232045E+01  0.30334606958E+01  0.00000000000E+00 0. -1.
</event>
<event>
 5    1  0.2111786E+001  0.1552917E+01  0.7818608E-02  0.3406106E+00
         11   -1    0    0    0    0  0.00000000000E+00  0.00000000000E+00  0.39999999674E+01  0.40000000000E+01  0.51100000000E-03 0.  1.
    9000002   -1    0    0    0    0 -0.00000000000E+00 -0.00000000000E+00  0.00000000000E+00  0.93800000000E+00  0.93800000000E+00 0. -1.
         11    1    1    2    0    0 -0.20200696841E+00 -0.22143698496E+00  0.22151119184E+01  0.22352991356E+01  0.51100000000E-03 0.  1.
    9000002    1    1    2    0    0  0.58387751430E-01  0.47090035216E-01  0.38517440207E-01  0.94178245584E+00  0.93800000000E+00 0. -1.
         22    1    1    2    0    0  0.14361921698E+00  0.17434694975E+00  0.17463706088E+01  0.17609184085E+01  0.00000000000E+00 0.  1.
</event>
<event>
 5    1  0.2111786E+001  0.1498176E+01  0.7818608E-02  0.3471879E+00
         11   -1    0    0    0    0  0.00000000000E+00  0.00000000000E+00  0.39999999674E+01  0.40000000000E+01  0.51100000000E-03 0. -1.
    9000002   -1    0    0    0    0 -0.00000000000E+00 -0.00000000000E+00  0.00000000000E+00  0.93800000000E+00  0.93800000000E+00 0. -1.
         11    1    1    2    0    0 -0.41474218746E+00  0.66713142734E-01  0.53581641691E+00  0.68085330228E+00  0.51100000000E-03 0. -1.
    9000002    1    1    2    0    0  0.17741604091E+00  0.23793603199E-01  0.19064900360E+00  0.97377288404E+00  0.93800000000E+00 0. -1.
         22    1    1    2    0    0  0.23732614655E+00 -0.90506745933E-01  0.32735345468E+01  0.32833738137E+01  0.00000000000E+00 0. -1.
</event>
<event>
 5    1  0.2111786E+001  0.1590744E+01  0.7818608E-02  0.3363471E+00
         11   -1    0    0    0    0  0.00000000000E+00  0.00000000000E+00  0.39999999674E+01  0.40000000000E+01  0.51100000000E-03 0. -1.
    9000002   -1    0    0    0    0 -0.00000000000E+00 -0.00000000000E+00  0.00000000000E+00  0.93800000000E+00  0.93800000000E+00 0.  1.
         11    1    1    2    0    0 -0.94511286667E-01  0.53969982659E-01  0.23150251556E+01  0.23175821182E+01  0.51100000000E-03 0. -1.
    9000002    1    1    2    0    0  0.21847410486E+00 -0.27154363573E+00  0.88652678031E-01  0.10045746254E+01  0.93800000000E+00 0.  1.
         22    1    1    2    0    0 -0.12396281819E+00  0.21757365307E+00  0.15963221337E+01  0.16158432565E+01  0.00000000000E+00 0.  1.
</event>
<event>
 5    1  0.2111786E+001  0.1501508E+01  0.7818608E-02  0.3467729E+00
         11   -1    0    0    0    0  0.00000000000E+00  0.00000000000E+00  0.39999999674E+01  0.40000000000E+01  0.51100000000E-03 0. -1.
    9000002   -1    0    0    0    0 -0.00000000000E+00 -0.00000000000E+00  0.00000000000E+00  0.93800000000E+00  0.93800000000E+00 0.  1.
         11    1    1    2    0    0 -0.40295504231E-01 -0.23371748911E+00  0.39088164647E+00  0.45720489394E+00  0.51100000000E-03 0. -1.
    9000002    1    1    2    0    0 -0.11489299499E+00  0.58942482841E-01  0.86895361804E-01  0.95082565199E+00  0.93800000000E+00 0.  1.
         22    1    1    2    0    0  0.15518849922E+00  0.17477500627E+00  0.35222229591E+01  0.35299694541E+01  0.00000000000E+00 0. -1.
</event>
<event>
 5    1  0.2111786E+001  0.1559399E+01  0.7818608E-02  0.3398645E+00
         11   -1    0    0    0    0  0.00000000000E+00  0.00000000000E+00  0.39999999674E+01  0.40000000000E+01  0.51100000000E-03 0. -1.
    9000002   -1    0    0    0    0 -0.00000000000E+00 -0.00000000000E+00  0.00000000000E+00  0.93800000000E+00  0.93800000000E+00 0. -1.
         11    1    1    2    0    0  0.18206595143E+00 -0.13377829627E+00  0.11514592579E+01  0.11734152406E+01  0.51100000000E-03 0. -1.
    9000002    1    1    2    0    0  0.20944950728E-01  0.70627266838E-01  0.33455955050E-01  0.94148298057E+00  0.93800000000E+00 0. -1.
         22    1    1    2    0    0 -0.20301090216E+00  0.63151029435E-01  0.28150847545E+01  0.28231017788E+01  0.00000000000E+00 0. -1.
</event>
<event>
 5    1  0.2111786E+001  0.1553173E+01  0.7818608E-02  0.3405811E+00
         11   -1    0    0    0    0  0.00000000000E+00  0.00000000000E+00  0.39999999674E+01  0.40000000000E+01  0.51100000000E-03 0. -1.
    9000002   -1    0    0    0    0 -0.00000000000E+00 -0.00000000000E+00  0.00000000000E+00  0.93800000000E+00  0.93800000000E+00 0. -1.
         11    1    1    2    0    0  0.50033230953E-01  0.97607339844E-01  0.21841103702E+01  0.21868627958E+01  0.51100000000E-03 0. -1.
    9000002    1    1    2    0    0 -0.15154916577E+00  0.28282727619E+00  0.10659531784E+00  0.99707822140E+00  0.93800000000E+00 0. -1.
         22    1    1    2    0    0  0.10151593481E+00 -0.38043461603E+00  0.17092942793E+01  0.17540589828E+01  0.00000000000E+00 0.  1.
</event>
<event>
 5    1  0.2111786E+001  0.1577936E+01  0.7818608E-02  0.3377665E+00
         11   -1    0    0    0    0  0.00000000000E+00  0.00000000000E+00  0.39999999674E+01  0.40000000000E+01  0.51100000000E-03 0. -1.
    9000002   -1    0    0    0    0 -0.00000000000E+00 -0.00000000000E+00  0.00000000000E+00  0.93800000000E+00  0.93800000000E+00 0.  1.
         11    1    1    2    0    0  0.11260520901E+00 -0.43158492783E-01  0.23743337209E+01  0.23773942601E+01  0.51100000000E-03 0. -1.
    9000002    1    1    2    0    0  0.89342339662E-01 -0.16581289739E-01  0.21460434131E-01  0.94263542425E+00  0.93800000000E+00 0.  1.
         22    1    1    2    0    0 -0.20194754867E+00  0.59739782522E-01  0.16042058123E+01  0.16179703157E+01  0.00000000000E+00 0. -1.
</event>
<event>
 5    1  0.2111786E+001  0.1560826E+01  0.7818608E-02  0.3397011E+00
         11   -1    0    0    0    0  0.00000000000E+00  0.00000000000E+00  0.39999999674E+01  0.40000000000E+01  0.51100000000E-03 0. -1.
    9000002   -1    0    0    0    0 -0.00000000000E+00 -0.00000000000E+00  0.00000000000E+00  0.93800000000E+00  0.93800000000E+00 0.  1.
         11    1    1    2    0    0  0.10712461790E-01  0.18791746448E+00  0.86362103908E+00  0.88389438880E+00  0.51100000000E-03 0. -1.
    9000002    1    1    2    0    0  0.50537476194E-01  0.32596024351E-01  0.31137073889E-01  0.94044141480E+00  0.93800000000E+00 0.  1.
         22    1    1    2    0    0 -0.61249937984E-01 -0.22051348883E+00  0.31052418544E+01  0.31136641964E+01  0.00000000000E+00 0. -1.
</event>
<event>
 5    1  0.2111786E+001  0.1550141E+01  0.7818608E-02  0.3409322E+00
         11   -1    0    0    0    0  0.00000000000E+00  0.00000000000E+00  0.39999999674E+01  0.40000000000E+01  0.51100000000E-03 0. -1.
    9000002   -1    0    0    0    0 -0.00000000000E+00 -0.00000000000E+00  0.00000000000E+00  0.93800000000E+00  0.93800000000E+00 0. -1.
         11    1    1    2    0    0 -0.10763671069E+00 -0.27360325443E+00  0.19632752337E+01  0.19851685839E+01  0.51100000000E-03 0. -1.
    9000002    1    1    2    0    0  0.14964387022E+00  0.15817295720E-01  0.52449378165E-01  0.95144017784E+00  0.93800000000E+00 0. -1.
         22    1    1    2    0    0 -0.42007159525E-01  0.25778595871E+00  0.19842753555E+01  0.20013912382E+01  0.00000000000E+00 0. -1.
</event>
<event>
 5    1  0.2111786E+001  0.1550290E+01  0.7818608E-02  0.3409149E+00
         11   -1    0    0    0    0  0.00000000000E+00  0.00000000000E+00  0.39999999674E+01  0.40000000000E+01  0.51100000000E-03 0. -1.
    9000002   -1    0    0    0    0 -0.00000000000E+00 -0.00000000000E+00  0.00000000000E+00  0.93800000000E+00  0.93800000000E+00 0.  1.
         11    1    1    2    0    0  0.29347377349E+00 -0.67988750210E-01  0.26505906720E+01  0.26676544936E+01  0.51100000000E-03 0. -1.
    9000002    1    1    2    0    0 -0.93956532897E-01 -0.48907922403E-01  0.44397900307E-01  0.94500528491E+00  0.93800000000E+00 0.  1.
         22    1    1    2    0    0 -0.19951724059E+00  0.11689667261E+00  0.13050113951E+01  0.13253402215E+01  0.00000000000E+00 0.  1.
</event>
<event>
 5    1  0.2111786E+001  0.1511857E+01  0.7818608E-02  0.3454962E+00
         11   -1    0    0    0    0  0.00000000000E+00  0.00000000000E+00  0.39999999674E+01  0.40000000000E+01  0.51100000000E-03 0. -1.
    9000002   -1    0    0    0    0 -0.00000000000E+00 -0.00000000000E+00  0.00000000000E+00  0.93800000000E+00  0.93800000000E+00 0.  1.
         11    1    1    2    0    0  0.34902201847E+00  0.54826270716E-01  0.10152605284E+01  0.10749774375E+01  0.51100000000E-03 0. -1.
    9000002    1    1    2    0    0 -0.12654985114E+00 -0.23343082149E+00  0.11783086737E+00  0.98195362749E+00  0.93800000000E+00 0.  1.
         22    1    1    2    0    0 -0.22247216732E+00  0.17860455077E+00  0.28669085716E+01  0.28810689351E+01  0.00000000000E+00 0. -1.
</event>
<event>
 5    1  0.2111786E+001  0.1558160E+01  0.7818608E-02  0.3400065E+00
         11   -1    0    0    0    0  0.00000000000E+00  0.00000000000E+00  0.39999999674E+01  0.40000000000E+01  0.51100000000E-03 0.  1.
    9000002   -1    0    0    0    0 -0.00000000000E+00 -0.00000000000E+00  0.00000000000E+00  0.93800000000E+00  0.93800000000E+00 0.  1.
         11    1    1    2    0    0 -0.17674803149E+00 -0.20587872391E+00  0.82596176604E+00  0.86939002505E+00  0.51100000000E-03 0.  1.
    9000002    1    1    2    0    0  0.39875798957E+00  0.10980925224E+00  0.15134279096E+00  0.10362502818E+01  0.93800000000E+00 0.  1.
         22    1    1    2    0    0 -0.22200995808E+00  0.96069471668E-01  0.30226954104E+01  0.30323596932E+01  0.00000000000E+00 0.  1.
</event>
<event>
 5    1  0.2111786E+001  0.1515382E+01  0.7818608E-02  0.3450657E+00
         11   -1    0    0    0    0  0.00000000000E+00  0.00000000000E+00  0.39999999674E+01  0.40000000000E+01  0.51100000000E-03 0. -1.
    9000002   -1    0    0    0    0 -0.00000000000E+00 -0.00000000000E+00  0.00000000000E+00  0.93800000000E+00  0.93800000000E+00 0.  1.
         11    1    1    2    0    0  0.19803792125E+00  0.37847620242E-01  0.32307256081E+00  0.38082489583E+00  0.51100000000E-03 0. -1.
    9000002    1    1    2    0    0  0.24328057500E-02 -0.20059447886E+00  0.92725063404E-01  0.96368355848E+00  0.93800000000E+00 0.  1.
         22    1    1    2    0    0 -0.20047072700E+00  0.16274685862E+00  0.35842023431E+01  0.35934915457E+01  0.00000000000E+00 0. -1.
</event>
<event>
 5    1  0.2111786E+001  0.1558813E+01  0.7818608E-02  0.3399316E+00
         11   -1    0    0    0    0  0.00000000000E+00  0.00000000000E+00  0.39999999674E+01  0.40000000000E+01  0.51100000000E-03 0.  1.
    9000002   -1    0    0    0    0 -0.00000000000E+00 -0.00000000000E+00  0.00000000000E+00  0.93800000000E+00  0.93800000000E+00 0. -1.
         11    1    1    2    0    0  0.15259827166E+00 -0.15687289334E+00  0.20660675270E+01  0.20776261994E+01  0.51100000000E-03 0.  1.
    9000002    1    1    2    0    0  0.18018934098E-01 -0.46748714592E-01  0.31899313986E-01  0.93987855095E+00  0.93800000000E+00 0. -1.
         22    1    1    2    0    0 -0.17061720575E+00  0.20362160794E+00  0.19020331264E+01  0.19204952497E+01  0.00000000000E+00 0.  1.
</event>
<event>
 5    1  0.2111786E+001  0.1563277E+01  0.7818608E-02  0.3394211E+00
         11   -1    0    0    0    0  0.00000000000E+00  0.00000000000E+00  0.39999999674E+01  0.40000000000E+01  0.51100000000E-03 0.  1.
    9000002   -1    0    0    0    0 -0.00000000000E+00 -0.00000000000E+00  0.00000000000E+00  0.93800000000E+00  0.93800000000E+00 0.  1.
         11    1    1    2    0    0 -0.10234301449E+00  0.85162543980E-01  0.45288987919E+00  0.47205535195E+00  0.51100000000E-03 0.  1.
    9000002    1    1    2    0    0 -0.14300560088E+00  0.13340794882E-01  0.40934084323E-01  0.94981481245E+00  0.93800000000E+00 0.  1.
         22    1    1    2    0    0  0.24534861537E+00 -0.98503338862E-01  0.35061760038E+01  0.35161298356E+01  0.00000000000E+00 0.  1.
</event>
<event>
 5    1  0.2111786E+001  0.1561543E+01  0.7818608E-02  0.3396191E+00
         11   -1    0    0    0    0  0.00000000000E+00  0.00000000000E+00  0.39999999674E+01  0.40000000000E+01  0.51100000000E-03 0. -1.
    9000002   -1    0    0    0    0 -0.00000000000E+00 -0.00000000000E+00  0.00000000000E+00  0.93800000000E+00  0.93800000000E+00 0. -1.
         11    1    1    2    0    0 -0.84630197840E-01 -0.20286462532E+00  0.11491708583E+01  0.11700043800E+01  0.51100000000E-03 0. -1.
    9000002    1    1    2    0    0 -0.81339099303E-01  0.64650952198E-01  0.35511176843E-01  0.94440501819E+00  0.93800000000E+00 0. -1.
         22    1    1    2    0    0  0.16596929714E+00  0.13821367313E+00  0.28153179323E+01  0.28235906018E+01  0.00000000000E+00 0. -1.
</event>
<event>
 5    1  0.2111786E+001  0.1567014E+01  0.7818608E-02  0.3389962E+00
         11   -1    0    0    0    0  0.00000000000E+00  0.00000000000E+00  0.39999999674E+01  0.40000000000E+01  0.51100000000E-03 0.  1.
    9000002   -1    0    0    0    0 -0.00000000000E+00 -0.00000000000E+00  0.00000000000E+00  0.93800000000E+00  0.93800000000E+00 0.  1.
         11    1    1    2    0    0  0.21001397054E+00  0.51226090461E-01  0.14411955571E+01  0.14573176987E+01  0.51100000000E-03 0.  1.
    9000002    1    1    2    0    0 -0.52688377986E-02 -0.80996313411E-01  0.28503488461E-01  0.94193662860E+00  0.93800000000E+00 0.  1.
         22    1    1    2    0    0 -0.20474513274E+00  0.29770222949E-01  0.25303009218E+01  0.25387456727E+01  0.00000000000E+00 0.  1.
</event>
<event>
 5    1  0.2111786E+001  0.1599403E+01  0.7818608E-02  0.3354011E+00
         11   -1    0    0    0    0  0.00000000000E+00  0.00000000000E+00  0.39999999674E+01  0.40000000000E+01  0.51100000000E-03 0. -1.
    9000002   -1    0    0    0    0 -0.00000000000E+00 -0.00000000000E+00  0.00000000000E+00  0.93800000000E+00  0.93800000000E+00 0. -1.
         11    1    1    2    0    0 -0.21108169473E+00 -0.14483070295E+00  0.18413756813E+01  0.18590847413E+01  0.51100000000E-03 0. -1.
    9000002    1    1    2    0    0  0.42342425861E+00  0.26266376032E+00  0.17015896459E+00  0.10756758001E+01  0.93800000000E+00 0. -1.
         22    1    1    2    0    0 -0.21234256388E+00 -0.11783305737E+00  0.19884653214E+01  0.20032394586E+01  0.00000000000E+00 0.  1.
</event>
<event>
 5    1  0.2111786E+001  0.1524572E+01  0.7818608E-02  0.3439532E+00
         11   -1    0    0    0    0  0.00000000000E+00  0.00000000000E+00  0.39999999674E+01  0.40000000000E+01  0.51100000000E-03 0. -1.
    9000002   -1    0    0    0    0 -0.00000000000E+00 -0.00000000000E+00  0.00000000000E+00  0.93800000000E+00  0.93800000000E+00 0. -1.
         11    1    1    2    0    0 -0.62980365959E-01  0.36203839977E-01  0.25023117035E-01  0.76835291582E-01  0.51100000000E-03 0. -1.
    9000002    1    1    2    0    0 -0.25703820252E+00 -0.13744193975E+00  0.11765309258E+00  0.98926496681E+00  0.93800000000E+00 0. -1.
         22    1    1    2    0    0  0.32001856848E+00  0.10123809978E+00  0.38573237577E+01  0.38718997416E+01  0.00000000000E+00 0. -1.
</event>
<event>
 5    1  0.2111786E+001  0.1526816E+01  0.7818608E-02  0.3436838E+00
         11   -1    0    0    0    0  0.00000000000E+00  0.00000000000E+00  0.39999999674E+01  0.40000000000E+01  0.51100000000E-03 0.  1.
    9000002   -1    0    0    0    0 -0.00000000000E+00 -0.00000000000E+00  0.00000000000E+00  0.93800000000E+00  0.93800000000E+00 0.  1.
         11    1    1    2    0    0 -0.54596491646E+00  0.20204991599E+00  0.13621794567E+01  0.14813625458E+01  0.51100000000E-03 0.  1.
    9000002    1    1    2    0    0  0.72283506034E+00 -0.51045891050E-01  0.46793475029E+00  0.12743245811E+01  0.93800000000E+00 0.  1.
         22    1    1    2    0    0 -0.17687014388E+00 -0.15100402494E+00  0.21698857603E+01  0.21823128731E+01  0.00000000000E+00 0.  1.
</event>
<event>
 5    1  0.2111786E+001  0.1519922E+01  0.7818608E-02  0.3445143E+00
         11   -1    0    0    0    0  0.00000000000E+00  0.00000000000E+00  0.39999999674E+01  0.40000000000E+01  0.51100000000E-03 0. -1.
    9000002   -1    0    0    0    0 -0.00000000000E+00 -0.00000000000E+00  0.00000000000E+00  0.93800000000E+00  0.93800000000E+00 0. -1.
         11    1    1    2    0    0  0.75710265951E-01 -0.29353131566E+00  0.14514559513E+01  0.14827735219E+01  0.51100000000E-03 0. -1.
    9000002    1    1    2    0    0  0.10747723048E-01 -0.66894699315E-01  0.63383191430E-01  0.94257723466E+00  0.93800000000E+00 0. -1.
         22    1    1    2    0    0 -0.86457988999E-01  0.36042601498E+00  0.24851608247E+01  0.25126492434E+01  0.00000000000E+00 0. -1.
</event>
<event>
 5    1  0.2111786E+001  0.1547344E+01  0.7818608E-02  0.3412575E+00
         11   -1    0    0    0    0  0.00000000000E+00  0.00000000000E+00  0.39999999674E+01  0.40000000000E+01  0.51100000000E-03 0. -1.
    9000002   -1    0    0    0    0 -0.00000000000E+00 -0.00000000000E+00  0.00000000000E+00  0.93800000000E+00  0.93800000000E+00 0. -1.
         11    1    1    2    0    0 -0.36571328070E+00  0.21451172836E+00  0.26937519877E+01  0.27269142850E+01  0.51100000000E-03 0. -1.
    9000002    1    1    2    0    0  0.35505561529E+00  0.13372050477E-01  0.12825482028E+00  0.10112055185E+01  0.93800000000E+00 0. -1.
         22    1    1    2    0    0  0.10657665408E-01 -0.22788377884E+00  0.11779931594E+01  0.11998801965E+01  0.00000000000E+00 0. -1.
</event>
<event>
 5    1  0.2111786E+001  0.1560027E+01  0.7818608E-02  0.3397925E+00
         11   -1    0    0    0    0  0.00000000000E+00  0.00000000000E+00  0.39999999674E+01  0.40000000000E+01  0.51100000000E-03 0. -1.
    9000002   -1    0    0    0    0 -0.00000000000E+00 -0.00000000000E+00  0.00000000000E+00  0.93800000000E+00  0.93800000000E+00 0.  1.
         11    1    1    2    0    0 -0.80123658443E-01 -0.19319828325E+00  0.27434621964E+01  0.27514233519E+01  0.51100000000E-03 0. -1.
    9000002    1    1    2    0    0 -0.24433247098E-01 -0.89751363267E-02  0.29728604278E-01  0.93883189472E+00  0.93800000000E+00 0.  1.
         22    1    1    2    0    0  0.10455690554E+00  0.20217341958E+00  0.12268091667E+01  0.12477447534E+01  0.00000000000E+00 0.  1.
</event>
<event>
 5    1  0.2111786E+001  0.1535583E+01  0.7818608E-02  0.3426391E+00
         11   -1    0    0    0    0  0.00000000000E+00  0.00000000000E+00  0.39999999674E+01  0.40000000000E+01  0.51100000000E-03 0.  1.
    9000002   -1    0    0    0    0 -0.00000000000E+00 -0.00000000000E+00  0.00000000000E+00  0.93800000000E+00  0.93800000000E+00 0. -1.
         11    1    1    2    0    0 -0.16319818410E+00 -0.23153737217E+00  0.31312730625E+01  0.31440601863E+01  0.51100000000E-03 0.  1.
    9000002    1    1    2    0    0  0.45777374307E+00  0.16624772250E+00  0.22153260689E+00  0.10798684184E+01  0.93800000000E+00 0. -1.
         22    1    1    2    0    0 -0.29457555897E+00  0.65289649675E-01  0.64719429793E+00  0.71407139529E+00  0.00000000000E+00 0.  1.
</event>
<event>
 5    1  0.2111786E+001  0.1520213E+01  0.7818608E-02  0.3444790E+00
         11   -1    0    0    0    0  0.00000000000E+00  0.00000000000E+00  0.39999999674E+01  0.40000000000E+01  0.51100000000E-03 0.  1.
    9000002   -1    0    0    0    0 -0.00000000000E+00 -0.00000000000E+00  0.00000000000E+00  0.93800000000E+00  0.93800000000E+00 0. -1.
         11    1    1    2    0    0  0.93331468525E-01  0.35415407904E+00  0.21117087615E+01  0.21432335452E+01  0.51100000000E-03 0.  1.
    9000002    1    1    2    0    0 -0.40962290150E-01 -0.43785635364E-01  0.62442568225E-01  0.94198628727E+00  0.93800000000E+00 0. -1.
         22    1    1    2    0    0 -0.52369178375E-01 -0.31036844367E+00  0.18258486377E+01  0.18527801676E+01  0.00000000000E+00 0. -1.
</event>
<event>
 5    1  0.2111786E+001  0.1588259E+01  0.7818608E-02  0.3366206E+00
         11   -1    0    0    0    0  0.00000000000E+00  0.00000000000E+00  0.39999999674E+01  0.40000000000E+01  0.51100000000E-03 0. -1.
    9000002   -1    0    0    0    0 -0.00000000000E+00 -0.00000000000E+00  0.00000000000E+00  0.93800000000E+00  0.93800000000E+00 0. -1.
         11    1    1    2    0    0  0.19101921878E-01  0.53048396521E-01  0.22137419327E+01  0.22144598939E+01  0.51100000000E-03 0. -1.
    9000002    1    1    2    0    0 -0.18702315554E-01 -0.32027273590E+00  0.77893691767E-01  0.99440224718E+00  0.93800000000E+00 0. -1.
         22    1    1    2    0    0 -0.39960632390E-03  0.26722433938E+00  0.17083643429E+01  0.17291378589E+01  0.00000000000E+00 0. -1.
</event>
<event>
 5    1  0.2111786E+001  0.1512267E+01  0.7818608E-02  0.3454461E+00
         11   -1    0    0    0    0  0.00000000000E+00  0.00000000000E+00  0.39999999674E+01  0.40000000000E+01  0.51100000000E-03 0.  1.
    9000002   -1    0    0    0    0 -0.00000000000E+00 -0.00000000000E+00  0.00000000000E+00  0.93800000000E+00  0.93800000000E+00 0.  1.
         11    1    1    2    0    0 -0.13407666851E+00  0.28411359483E+00  0.10848443934E+01  0.11294178619E+01  0.51100000000E-03 0.  1.
    9000002    1    1    2    0    0 -0.74827468749E-01 -0.17901013894E-01  0.70409546205E-01  0.94378021836E+00  0.93800000000E+00 0.  1.
         22    1    1    2    0    0  0.20890413726E+00 -0.26621258093E+00  0.28447460277E+01  0.28648019197E+01  0.00000000000E+00 0.  1.
</event>
<event>
 5    1  0.2111786E+001  0.1453827E+01  0.7818608E-02  0.3529090E+00
         11   -1    0    0    0    0  0.00000000000E+00  0.00000000000E+00  0.39999999674E+01  0.40000000000E+01  0.51100000000E-03 0.  1.
    9000002   -1    0    0    0    0 -0.00000000000E+00 -0.00000000000E+00  0.00000000000E+00  0.93800000000E+00  0.93800000000E+00 0. -1.
         11    1    1    2    0    0  0.73523086238E-01  0.48641487791E+00  0.26058316868E+01  0.26518605013E+01  0.51100000000E-03 0.  1.
    9000002    1    1    2    0    0  0.84022385350E-04 -0.89788777847E-01  0.12031379592E+00  0.94993759857E+00  0.93800000000E+00 0. -1.
         22    1    1    2    0    0 -0.73607108623E-01 -0.39662610007E+00  0.12738544847E+01  0.13362019001E+01  0.00000000000E+00 0.  1.
</event>
<event>
 5    1  0.2111786E+001  0.1559752E+01  0.7818608E-02  0.3398240E+00
         11   -1    0    0    0    0  0.00000000000E+00  0.00000000000E+00  0.39999999674E+01  0.40000000000E+01  0.51100000000E-03 0. -1.
    9000002   -1    0    0    0    0 -0.00000000000E+00 -0.00000000000E+00  0.00000000000E+00  0.93800000000E+00  0.93800000000E+00 0.  1.
         11    1    1    2    0    0  0.14611592444E+00  0.13147072227E+00  0.91354563077E+00  0.93445186864E+00  0.51100000000E-03 0. -1.
    9000002    1    1    2    0    0 -0.14640571659E+00  0.16458515623E+00  0.62937556327E-01  0.96557135598E+00  0.93800000000E+00 0.  1.
         22    1    1    2    0    0  0.28979214955E-03 -0.29605587850E+00  0.30235167803E+01  0.30379767754E+01  0.00000000000E+00 0. -1.
</event>
<event>
 5    1  0.2111786E+001  0.1573628E+01  0.7818608E-02  0.3382493E+00
         11   -1    0    0    0    0  0.00000000000E+00  0.00000000000E+00  0.39999999674E+01  0.40000000000E+01  0.51100000000E-03 0. -1.
    9000002   -1    0    0    0    0 -0.00000000000E+00 -0.00000000000E+00  0.00000000000E+00  0.93800000000E+00  0.93800000000E+00 0. -1.
         11    1    1    2    0    0  0.10328489470E+00 -0.82354341966E-01  0.21634622485E+01  0.21674914461E+01  0.51100000000E-03 0. -1.
    9000002    1    1    2    0    0  0.12871934395E+00 -0.65350219290E-02  0.30335812759E-01  0.94729912781E+00  0.93800000000E+00 0. -1.
         22    1    1    2    0    0 -0.23200423865E+00  0.88889363895E-01  0.18062019061E+01  0.18232094261E+01  0.00000000000E+00 0. -1.
</event>
<event>
 5    1  0.2111786E+001  0.1512009E+01  0.7818608E-02  0.3454777E+00
         11   -1    0    0    0    0  0.00000000000E+00  0.00000000000E+00  0.39999999674E+01  0.40000000000E+01  0.51100000000E-03 0.  1.
    9000002   -1    0    0    0    0 -0.00000000000E+00 -0.00000000000E+00  0.00000000000E+00  0.93800000000E+00  0.93800000000E+00 0. -1.
         11    1    1    2    0    0  0.37421759314E+00 -0.34825210920E-01  0.12191880510E+01  0.12758022445E+01  0.51100000000E-03 0.  1.
    9000002    1    1    2    0    0 -0.14554355107E+00 -0.28540529008E-01  0.82233967185E-01  0.95320717182E+00  0.93800000000E+00 0. -1.
         22    1    1    2    0    0 -0.22867404206E+00  0.63365739928E-01  0.26985779492E+01  0.27089905836E+01  0.00000000000E+00 0.  1.
</event>
<event>
 5    1  0.2111786E+001  0.1504212E+01  0.7818608E-02  0.3464376E+00
         11   -1    0    0    0    0  0.00000000000E+00  0.00000000000E+00  0.39999999674E+01  0.40000000000E+01  0.51100000000E-03 0. -1.
    9000002   -1    0    0    0    0 -0.00000000000E+00 -0.00000000000E+00  0.00000000000E+00  0.93800000000E+00  0.93800000000E+00 0. -1.
         11    1    1    2    0    0 -0.34810071209E+00  0.31187071157E+00  0.28558790826E+01  0.28938699076E+01  0.51100000000E-03 0. -1.
    9000002    1    1    2    0    0  0.86765861613E-01 -0.19926886928E+00  0.10711495695E+00  0.96878997260E+00  0.93800000000E+00 0. -1.
         22    1    1    2    0    0  0.26133485048E+00 -0.11260184228E+00  0.10370059278E+01  0.10753401198E+01  0.00000000000E+00 0. -1.
</event>
<event>
 5    1  0.2111786E+001  0.1542246E+01  0.7818608E-02  0.3418537E+00
         11   -1    0    0    0    0  0.00000000000E+00  0.00000000000E+00  0.39999999674E+01  0.40000000000E+01  0.51100000000E-03 0.  1.
    9000002   -1    0    0    0    0 -0.00000000000E+00 -0.00000000000E+00  0.00000000000E+00  0.93800000000E+00  0.93800000000E+00 0.  1.
         11    1    1    2    0    0  0.32363941741E+00 -0.85860307993E-01  0.15164551508E+01  0.15529813104E+01  0.51100000000E-03 0.  1.
    9000002    1    1    2    0    0 -0.10995710635E+00  0.19086650612E+00  0.76851061128E-01  0.96657678122E+00  0.93800000000E+00 0.  1.
         22    1    1    2    0    0 -0.21368231105E+00 -0.10500619813E+00  0.24066937555E+01  0.24184419084E+01  0.00000000000E+00 0.  1.
</event>
<event>
 5    1  0.2111786E+001  0.1579343E+01  0.7818608E-02  0.3376094E+00
         11   -1    0    0    0    0  0.00000000000E+00  0.00000000000E+00  0.39999999674E+01  0.40000000000E+01  0.51100000000E-03 0. -1.
    9000002   -1    0    0    0    0 -0.00000000000E+00 -0.00000000000E+00  0.00000000000E+00  0.93800000000E+00  0.93800000000E+00 0.  1.
         11    1    1    2    0    0 -0.14820946630E+00 -0.13612964287E+00  0.19406692308E+01  0.19510752548E+01  0.51100000000E-03 0. -1.
    9000002    1    1    2    0    0  0.22341459277E+00 -0.63216011198E-01  0.51351000661E-01  0.96767312126E+00  0.93800000000E+00 0.  1.
         22    1    1    2    0    0 -0.75205126465E-01  0.19934565407E+00  0.20079797359E+01  0.20192516239E+01  0.00000000000E+00 0. -1.
</event>
<event>
 5    1  0.2111786E+001  0.1559257E+01  0.7818608E-02  0.3398807E+00
         11   -1    0    0    0    0  0.00000000000E+00  0.00000000000E+00  0.39999999674E+01  0.40000000000E+01  0.51100000000E-03 0. -1.
    9000002   -1    0    0    0    0 -0.00000000000E+00 -0.00000000000E+00  0.00000000000E+00  0.93800000000E+00  0.93800000000E+00 0. -1.
         11    1    1    2    0    0 -0.11228078458E+00 -0.17455085707E+00  0.29624347073E+01  0.29696960505E+01  0.51100000000E-03 0. -1.
    9000002    1    1    2    0    0  0.14003385719E-01 -0.13814510420E-01  0.30109832616E-01  0.93868926569E+00  0.93800000000E+00 0. -1.
         22    1    1    2    0    0  0.98277398863E-01  0.18836536749E+00  0.10074554274E+01  0.10296146838E+01  0.00000000000E+00 0.  1.
</event>
<event>
 5    1  0.2111786E+001  0.1573179E+01  0.7818608E-02  0.3382998E+00
         11   -1    0    0    0    0  0.00000000000E+00  0.00000000000E+00  0.39999999674E+01  0.40000000000E+01  0.51100000000E-03 0. -1.
    9000002   -1    0    0    0    0 -0.00000000000E+00 -0.00000000000E+00  0.00000000000E+00  0.93800000000E+00  0.93800000000E+00 0. -1.
         11    1    1    2    0    0  0.13408908614E+00 -0.90381486912E-01  0.14061047095E+01  0.14153725344E+01  0.51100000000E-03 0. -1.
    9000002    1    1    2    0    0  0.70426248100E-01 -0.24345247451E-01  0.23181498395E-01  0.94124063308E+00  0.93800000000E+00 0. -1.
         22    1    1    2    0    0 -0.20451533424E+00  0.11472673436E+00  0.25707137595E+01  0.25813868325E+01  0.00000000000E+00 0. -1.
</event>
<event>
 5    1  0.2111786E+001  0.1562273E+01  0.7818608E-02  0.3395357E+00
         11   -1    0    0    0    0  0.00000000000E+00  0.00000000000E+00  0.39999999674E+01  0.40000000000E+01  0.51100000000E-03 0. -1.
    9000002   -1    0    0    0    0 -0.00000000000E+00 -0.00000000000E+00  0.00000000000E+00  0.93800000000E+00  0.93800000000E+00 0. -1.
         11    1    1    2    0    0  0.14599676025E+00  0.12164541235E+00  0.76647994505E+00  0.78968628432E+00  0.51100000000E-03 0. -1.
    9000002    1    1    2    0    0 -0.11001983793E+00  0.75460466071E-01  0.39758972407E-01  0.94827391748E+00  0.93800000000E+00 0. -1.
         22    1    1    2    0    0 -0.35976922315E-01 -0.19710587842E+00  0.31937610499E+01  0.32000397982E+01  0.00000000000E+00 0. -1.
</event>
<event>
 5    1  0.2111786E+001  0.1546339E+01  0.7818608E-02  0.3413748E+00
         11   -1    0    0    0    0  0.00000000000E+00  0.00000000000E+00  0.39999999674E+01  0.40000000000E+01  0.51100000000E-03 0. -1.
    9000002   -1    0    0    0    0 -0.00000000000E+00 -0.00000000000E+00  0.00000000000E+00  0.93800000000E+00  0.93800000000E+00 0.  1.
         11    1    1    2    0    0 -0.14158711121E+00 -0.24020688943E+00  0.16541953035E+01  0.16775305133E+01  0.51100000000E-03 0. -1.
    9000002    1    1    2    0    0  0.15643504565E-01  0.37965390733E-02  0.39823769825E-01  0.93898299537E+00  0.93800000000E+00 0.  1.
         22    1    1    2    0    0  0.12594360665E+00  0.23641035036E+00  0.23059808940E+01  0.23214864913E+01  0.00000000000E+00 0.  1.
</event>
<event>
 5    1  0.2111786E+001  0.1507074E+01  0.7818608E-02  0.3460839E+00
         11   -1    0    0    0    0  0.00000000000E+00  0.00000000000E+00  0.39999999674E+01  0.40000000000E+01  0.51100000000E-03 0.  1.
    9000002   -1    0    0    0    0 -0.00000000000E+00 -0.00000000000E+00  0.00000000000E+00  0.93800000000E+00  0.93800000000E+00 0. -1.
         11    1    1    2    0    0  0.33040636152E+00  0.41496657938E-01  0.22357238729E+01  0.22603875405E+01  0.51100000000E-03 0.  1.
    9000002    1    1    2    0    0  0.56940599167E-01 -0.73023914109E-01  0.76486124215E-01  0.94565789325E+00  0.93800000000E+00 0. -1.
         22    1    1    2    0    0 -0.38734696069E+00  0.31527256171E-01  0.16877899703E+01  0.17319545662E+01  0.00000000000E+00 0.  1.
</event>
<event>
 5    1  0.2111786E+001  0.1551353E+01  0.7818608E-02  0.3407917E+00
         11   -1    0    0    0    0  0.00000000000E+00  0.00000000000E+00  0.39999999674E+01  0.40000000000E+01  0.51100000000E-03 0. -1.
    9000002   -1    0    0    0    0 -0.00000000000E+00 -0.00000000000E+00  0.00000000000E+00  0.93800000000E+00  0.93800000000E+00 0.  1.
         11    1    1    2    0    0  0.45797418912E+00  0.53212728081E+00  0.13930411172E+01  0.15599562866E+01  0.51100000000E-03 0. -1.
    9000002    1    1    2    0    0 -0.71763247216E+00 -0.66556533996E+00  0.85684121629E+00  0.16037438875E+01  0.93800000000E+00 0.  1.
         22    1    1    2    0    0  0.25965828304E+00  0.13343805915E+00  0.17501176339E+01  0.17742998258E+01  0.00000000000E+00 0. -1.
</event>
<event>
 5    1  0.2111786E+001  0.1547677E+01  0.7818608E-02  0.3412187E+00
         11   -1    0    0    0    0  0.00000000000E+00  0.00000000000E+00  0.39999999674E+01  0.40000000000E+01  0.51100000000E-03 0.  1.
    9000002   -1    0    0    0    0 -0.00000000000E+00 -0.00000000000E+00  0.00000000000E+00  0.93800000000E+00  0.93800000000E+00 0.  1.
         11    1    1    2    0    0  0.17998937303E+00  0.81517834762E-01  0.60731445950E+00  0.63864892205E+00  0.51100000000E-03 0.  1.
    9000002    1    1    2    0    0  0.33193230465E-02  0.20299126226E-01  0.38915365095E-01  0.93903220289E+00  0.93800000000E+00 0.  1.
         22    1    1    2    0    0 -0.18330869608E+00 -0.10181696099E+00  0.33537701428E+01  0.33603188751E+01  0.00000000000E+00 0.  1.
</event>
<event>
 5    1  0.2111786E+001  0.1580481E+01  0.7818608E-02  0.3374825E+00
         11   -1    0    0    0    0  0.00000000000E+00  0.00000000000E+00  0.39999999674E+01  0.40000000000E+01  0.51100000000E-03 0. -1.
    9000002   -1    0    0    0    0 -0.00000000000E+00 -0.00000000000E+00  0.00000000000E+00  0.93800000000E+00  0.93800000000E+00 0.  1.
         11    1    1    2    0    0 -0.38450475021E+00  0.19644070958E+00  0.30950680549E+01  0.31250407007E+01  0.51100000000E-03 0. -1.
    9000002    1    1    2    0    0  0.58590985440E+00 -0.14554225067E+00  0.27391602206E+00  0.11486282651E+01  0.93800000000E+00 0.  1.
         22    1    1    2    0    0 -0.20140510419E+00 -0.50898458913E-01  0.63101589041E+00  0.66433103425E+00  0.00000000000E+00 0. -1.
</event>
<event>
 5    1  0.2111786E+001  0.1513407E+01  0.7818608E-02  0.3453066E+00
         11   -1    0    0    0    0  0.00000000000E+00  0.00000000000E+00  0.39999999674E+01  0.40000000000E+01  0.51100000000E-03 0. -1.
    9000002   -1    0    0    0    0 -0.00000000000E+00 -0.00000000000E+00  0.00000000000E+00  0.93800000000E+00  0.93800000000E+00 0.  1.
         11    1    1    2    0    0 -0.19932957186E+00 -0.20070807238E+00  0.34045954658E+01  0.34163264708E+01  0.51100000000E-03 0. -1.
    9000002    1    1    2    0    0  0.12274329992E+00 -0.28219855099E-01  0.76666897200E-01  0.94951782028E+00  0.93800000000E+00 0.  1.
         22    1    1    2    0    0  0.76586271934E-01  0.22892792748E+00  0.51873760440E+00  0.57215570892E+00  0.00000000000E+00 0. -1.
</event>
<event>
 5    1  0.2111786E+001  0.1543117E+01  0.7818608E-02  0.3417515E+00
         11   -1    0    0    0    0  0.00000000000E+00  0.00000000000E+00  0.39999999674E+01  0.40000000000E+01  0.51100000000E-03 0.  1.
    9000002   -1    0    0    0    0 -0.00000000000E+00 -0.00000000000E+00  0.00000000000E+00  0.93800000000E+00  0.93800000000E+00 0.  1.
         11    1    1    2    0    0  0.17015478806E+00  0.20888468676E+00  0.20347395631E+01  0.20524986760E+01  0.51100000000E-03 0.  1.
    9000002    1    1    2    0    0  0.73680370496E-01 -0.24447609167E-01  0.46306938802E-01  0.94234537998E+00  0.93800000000E+00 0.  1.
         22    1    1    2    0    0 -0.24383515856E+00 -0.18443707760E+00  0.19189534655E+01  0.19431559440E+01  0.00000000000E+00 0.  1.
</event>
<event>
 5    1  0.2111786E+001  0.1594336E+01  0.7818608E-02  0.3359534E+00
         11   -1    0    0    0    0  0.00000000000E+00  0.00000000000E+00  0.39999999674E+01  0.40000000000E+01  0.51100000000E-03 0. -1.
    9000002   -1    0    0    0    0 -0.00000000000E+00 -0.00000000000E+00  0.00000000000E+00  0.93800000000E+00  0.93800000000E+00 0. -1.
         11    1    1    2    0    0 -0.15214355720E-01  0.35933745075E-01  0.21586288977E+00  0.21936216391E+00  0.51100000000E-03 0. -1.
    9000002    1    1    2    0    0 -0.18072207309E+00 -0.87363032309E-01  0.30690142245E-01  0.95972842614E+00  0.93800000000E+00 0. -1.
         22    1    1    2    0    0  0.19593642881E+00  0.51429287235E-01  0.37534469353E+01  0.37589094099E+01  0.00000000000E+00 0. -1.
</event>
<event>
 5    1  0.2111786E+001  0.1581383E+01  0.7818608E-02  0.3373820E+00
         11   -1    0    0    0    0  0.00000000000E+00  0.00000000000E+00  0.39999999674E+01  0.40000000000E+01  0.51100000000E-03 0. -1.
    9000002   -1    0    0    0    0 -0.00000000000E+00 -0.00000000000E+00  0.00000000000E+00  0.93800000000E+00  0.93800000000E+00 0. -1.
         11    1    1    2    0    0  0.66627433014E-01  0.59376433947E-01  0.43077745470E+00  0.43992528041E+00  0.51100000000E-03 0. -1.
    9000002    1    1    2    0    0  0.38434171919E-01  0.12259208127E+00  0.24442971091E-01  0.94707310320E+00  0.93800000000E+00 0. -1.
         22    1    1    2    0    0 -0.10506160493E+00 -0.18196851522E+00  0.35447795416E+01  0.35510016164E+01  0.00000000000E+00 0. -1.
</event>
<event>
 5    1  0.2111786E+001  0.1593153E+01  0.7818608E-02  0.3360829E+00
         11   -1    0    0    0    0  0.00000000000E+00  0.00000000000E+00  0.39999999674E+01  0.40000000000E+01  0.51100000000E-03 0.  1.
    9000002   -1    0    0    0    0 -0.00000000000E+00 -0.00000000000E+00  0.00000000000E+00  0.93800000000E+00  0.93800000000E+00 0.  1.
         11    1    1    2    0    0 -0.56107194254E-01  0.76991071852E-02  0.26451528988E+00  0.27051043085E+00  0.51100000000E-03 0.  1.
    9000002    1    1    2    0    0  0.11830102716E+00 -0.23573724451E+00  0.51296300097E-01  0.97572664813E+00  0.93800000000E+00 0.  1.
         22    1    1    2    0    0 -0.62193832911E-01  0.22803813732E+00  0.36841883774E+01  0.36917629210E+01  0.00000000000E+00 0.  1.
</event>
<event>
 5    1  0.2111786E+001  0.1545849E+01  0.7818608E-02  0.3414319E+00
         11   -1    0    0    0    0  0.00000000000E+00  0.00000000000E+00  0.39999999674E+01  0.40000000000E+01  0.51100000000E-03 0. -1.
    9000002   -1    0    0    0    0 -0.00000000000E+00 -0.00000000000E+00  0.00000000000E+00  0.93800000000E+00  0.93800000000E+00 0.  1.
         11    1    1    2    0    0 -0.28526866738E+00 -0.28508554515E-01  0.29682016840E+01  0.29820148303E+01  0.51100000000E-03 0. -1.
    9000002    1    1    2    0    0  0.86497697008E-01 -0.94881114784E-01  0.51488932352E-01  0.94814523554E+00  0.93800000000E+00 0.  1.
         22    1    1    2    0    0  0.19877097037E+00  0.12338966930E+00  0.98030935104E+00  0.10078399342E+01  0.00000000000E+00 0.  1.
</event>
<event>
 5    1  0.2111786E+001  0.1517055E+01  0.7818608E-02  0.3448620E+00
         11   -1    0    0    0    0  0.00000000000E+00  0.00000000000E+00  0.39999999674E+01  0.40000000000E+01  0.51100000000E-03 0. -1.
    9000002   -1    0    0    0    0 -0.00000000000E+00 -0.00000000000E+00  0.00000000000E+00  0.93800000000E+00  0.93800000000E+00 0. -1.
         11    1    1    2    0    0  0.24677177248E+00 -0.21943200327E+00  0.81967767714E+00  0.88369591335E+00  0.51100000000E-03 0. -1.
    9000002    1    1    2    0    0  0.33739559816E-01  0.39369838396E+00  0.17727512059E+00  0.10331540271E+01  0.93800000000E+00 0. -1.
         22    1    1    2    0    0 -0.28051133230E+00 -0.17426638070E+00  0.30030471696E+01  0.30211500595E+01  0.00000000000E+00 0. -1.
</event>
<event>
 5    1  0.2111786E+001  0.1542843E+01  0.7818608E-02  0.3417836E+00
         11   -1    0    0    0    0  0.00000000000E+00  0.00000000000E+00  0.39999999674E+01  0.40000000000E+01  0.51100000000E-03 0.  1.
    9000002   -1    0    0    0    0 -0.00000000000E+00 -0.00000000000E+00  0.00000000000E+00  0.93800000000E+00  0.93800000000E+00 0. -1.
         11    1    1    2    0    0  0.12752563644E+00 -0.15717477830E+00  0.19084462624E+01  0.19191493158E+01  0.51100000000E-03 0.  1.
    9000002    1    1    2    0    0 -0.43855833740E+00 -0.22820859844E+00  0.22001407311E+00  0.10828955499E+01  0.93800000000E+00 0. -1.
         22    1    1    2    0    0  0.31103270096E+00  0.38538337674E+00  0.18715396319E+01  0.19359551342E+01  0.00000000000E+00 0.  1.
</event>
<event>
 5    1  0.2111786E+001  0.1542477E+01  0.7818608E-02  0.3418265E+00
         11   -1    0    0    0    0  0.00000000000E+00  0.00000000000E+00  0.39999999674E+01  0.40000000000E+01  0.51100000000E-03 0.  1.
    9000002   -1    0    0    0    0 -0.00000000000E+00 -0.00000000000E+00  0.00000000000E+00  0.93800000000E+00  0.93800000000E+00 0. -1.
         11    1    1    2    0    0  0.14876238147E+00 -0.15615727879E+00  0.63352220238E+00  0.66922790131E+00  0.51100000000E-03 0.  1.
    9000002    1    1    2    0    0 -0.83278269170E-01 -0.52692260866E-01  0.49372964926E-01  0.94445404025E+00  0.93800000000E+00 0. -1.
         22    1    1    2    0    0 -0.65484112299E-01  0.20884953965E+00  0.33171048001E+01  0.33243180584E+01  0.00000000000E+00 0.  1.
</event>
<event>
 5    1  0.2111786E+001  0.1553647E+01  0.7818608E-02  0.3405262E+00
         11   -1    0    0    0    0  0.00000000000E+00  0.00000000000E+00  0.39999999674E+01  0.40000000000E+01  0.51100000000E-03 0. -1.
    9000002   -1    0    0    0    0 -0.00000000000E+00 -0.00000000000E+00  0.00000000000E+00  0.93800000000E+00  0.93800000000E+00 0.  1.
         11    1    1    2    0    0 -0.26760996493E+00 -0.14285809879E+00  0.18335270051E+01  0.18584523318E+01  0.51100000000E-03 0. -1.
    9000002    1    1    2    0    0  0.78103841049E-01  0.64252316869E-01  0.41137671908E-01  0.94433303355E+00  0.93800000000E+00 0.  1.
         22    1    1    2    0    0  0.18950612389E+00  0.78605781916E-01  0.21253352903E+01  0.21352146347E+01  0.00000000000E+00 0. -1.
</event>
<event>
 5    1  0.2111786E+001  0.1564577E+01  0.7818608E-02  0.3392731E+00
         11   -1    0    0    0    0  0.00000000000E+00  0.00000000000E+00  0.39999999674E+01  0.40000000000E+01  0.51100000000E-03 0. -1.
    9000002   -1    0    0    0    0 -0.00000000000E+00 -0.00000000000E+00  0.00000000000E+00  0.93800000000E+00  0.93800000000E+00 0. -1.
         11    1    1    2    0    0 -0.40578489887E+00 -0.28766031373E+00  0.16680048593E+01  0.17405890704E+01  0.51100000000E-03 0. -1.
    9000002    1    1    2    0    0  0.60214770414E+00  0.22644829593E+00  0.32921603725E+00  0.11840979214E+01  0.93800000000E+00 0. -1.
         22    1    1    2    0    0 -0.19636280528E+00  0.61212017804E-01  0.20027790708E+01  0.20133130082E+01  0.00000000000E+00 0.  1.
</event>
<event>
 5    1  0.2111786E+001  0.1556407E+01  0.7818608E-02  0.3402081E+00
         11   -1    0    0    0    0  0.00000000000E+00  0.00000000000E+00  0.39999999674E+01  0.40000000000E+01  0.51100000000E-03 0.  1.
    9000002   -1    0    0    0    0 -0.00000000000E+00 -0.00000000000E+00  0.00000000000E+00  0.93800000000E+00  0.93800000000E+00 0.  1.
         11    1    1    2    0    0  0.13481571660E+00  0.19009178503E+00  0.13609393401E+01  0.13807484610E+01  0.51100000000E-03 0.  1.
    9000002    1    1    2    0    0 -0.68902310063E-02  0.21594436383E-01  0.32348417024E-01  0.93883130276E+00  0.93800000000E+00 0.  1.
         22    1    1    2    0    0 -0.12792548559E+00 -0.21168622141E+00  0.26067122103E+01  0.26184202362E+01  0.00000000000E+00 0.  1.
</event>
<event>
 5    1  0.2111786E+001  0.1568887E+01  0.7818608E-02  0.3387840E+00
         11   -1    0    0    0    0  0.00000000000E+00  0.00000000000E+00  0.39999999674E+01  0.40000000000E+01  0.51100000000E-03 0.  1.
    9000002   -1    0    0    0    0 -0.00000000000E+00 -0.00000000000E+00  0.00000000000E+00  0.93800000000E+00  0.93800000000E+00 0. -1.
         11    1    1    2    0    0 -0.15711184334E+00  0.10513983265E+00  0.17553189369E+01  0.17654697242E+01  0.51100000000E-03 0.  1.
    9000002    1    1    2    0    0  0.96109935854E-02  0.86917669833E-01  0.27815999984E-01  0.94247800101E+00  0.93800000000E+00 0. -1.
         22    1    1    2    0    0  0.14750084975E+00 -0.19205750248E+00  0.22168650304E+01  0.22300522747E+01  0.00000000000E+00 0.  1.
</event>
<event>
 5    1  0.2111786E+001  0.1514352E+01  0.7818608E-02  0.3451913E+00
         11   -1    0    0    0    0  0.00000000000E+00  0.00000000000E+00  0.39999999674E+01  0.40000000000E+01  0.51100000000E-03 0.  1.
    9000002   -1    0    0    0    0 -0.00000000000E+00 -0.00000000000E+00  0.00000000000E+00  0.93800000000E+00  0.93800000000E+00 0.  1.
         11    1    1    2    0    0  0.18574698326E+00 -0.25170252421E+00  0.87891513995E+00  0.93292453438E+00  0.51100000000E-03 0.  1.
    9000002    1    1    2    0    0  0.48787860989E-01  0.13725283769E+00  0.79774977317E-01  0.95258944139E+00  0.93800000000E+00 0.  1.
         22    1    1    2    0    0 -0.23453484425E+00  0.11444968652E+00  0.30413098501E+01  0.30524860242E+01  0.00000000000E+00 0.  1.
</event>
<event>
 5    1  0.2111786E+001  0.1555873E+01  0.7818608E-02  0.3402695E+00
         11   -1    0    0    0    0  0.00000000000E+00  0.00000000000E+00  0.39999999674E+01  0.40000000000E+01  0.51100000000E-03 0.  1.
    9000002   -1    0    0    0    0 -0.00000000000E+00 -0.00000000000E+00  0.00000000000E+00  0.93800000000E+00  0.93800000000E+00 0. -1.
         11    1    1    2    0    0  0.13903922294E+00  0.22041441603E+00  0.20439506655E+01  0.20604972711E+01  0.51100000000E-03 0.  1.
    9000002    1    1    2    0    0 -0.77006085452E-02 -0.15557379568E-01  0.32605799761E-01  0.93872704745E+00  0.93800000000E+00 0. -1.
         22    1    1    2    0    0 -0.13133861439E+00 -0.20485703647E+00  0.19234435021E+01  0.19387756814E+01  0.00000000000E+00 0.  1.
</event>
<event>
 5    1  0.2111786E+001  0.1563216E+01  0.7818608E-02  0.3394281E+00
         11   -1    0    0    0    0  0.00000000000E+00  0.00000000000E+00  0.39999999674E+01  0.40000000000E+01  0.51100000000E-03 0.  1.
    9000002   -1    0    0    0    0 -0.00000000000E+00 -0.00000000000E+00  0.00000000000E+00  0.93800000000E+00  0.93800000000E+00 0. -1.
         11    1    1    2    0    0  0.12526247515E+00  0.14705064431E+00  0.24663604833E+01  0.24739136756E+01  0.51100000000E-03 0.  1.
    9000002    1    1    2    0    0  0.12819319809E+00 -0.96187260447E-01  0.44454982103E-01  0.95263095191E+00  0.93800000000E+00 0. -1.
         22    1    1    2    0    0 -0.25345567324E+00 -0.50863383865E-01  0.14891845020E+01  0.15114553725E+01  0.00000000000E+00 0.  1.
</event>
<event>
 5    1  0.2111786E+001  0.1496489E+01  0.7818608E-02  0.3473989E+00
         11   -1    0    0    0    0  0.00000000000E+00  0.00000000000E+00  0.39999999674E+01  0.40000000000E+01  0.51100000000E-03 0. -1.
    9000002   -1    0    0    0    0 -0.00000000000E+00 -0.00000000000E+00  0.00000000000E+00  0.93800000000E+00  0.93800000000E+00 0. -1.
         11    1    1    2    0    0 -0.29527901165E+00 -0.14180583260E+00  0.34507918162E+01  0.34663039406E+01  0.51100000000E-03 0. -1.
    9000002    1    1    2    0    0  0.21122670986E+00 -0.94049577296E-01  0.11825901985E+00  0.97328887887E+00  0.93800000000E+00 0. -1.
         22    1    1    2    0    0  0.84052301787E-01  0.23585540989E+00  0.43094913132E+00  0.49840718053E+00  0.00000000000E+00 0. -1.
</event>
<event>
 5    1  0.2111786E+001  0.1550386E+01  0.7818608E-02  0.3409038E+00
         11   -1    0    0    0    0  0.00000000000E+00  0.00000000000E+00  0.39999999674E+01  0.40000000000E+01  0.51100000000E-03 0.  1.
    9000002   -1    0    0    0    0 -0.00000000000E+00 -0.00000000000E+00  0.00000000000E+00  0.93800000000E+00  0.93800000000E+00 0. -1.
         11    1    1    2    0    0 -0.46727514157E-01  0.28542685042E+00  0.14372795104E+01  0.14660916069E+01  0.51100000000E-03 0.  1.
    9000002    1    1    2    0    0  0.17846646069E-01 -0.85922366095E-01  0.41886107473E-01  0.94302682983E+00  0.93800000000E+00 0. -1.
         22    1    1    2    0    0  0.28880868088E-01 -0.19950448432E+00  0.25208343495E+01  0.25288815633E+01  0.00000000000E+00 0.  1.
</event>
<event>
 5    1  0.2111786E+001  0.1590004E+01  0.7818608E-02  0.3364284E+00
         11   -1    0    0    0    0  0.00000000000E+00  0.00000000000E+00  0.39999999674E+01  0.40000000000E+01  0.51100000000E-03 0. -1.
    9000002   -1    0    0    0    0 -0.00000000000E+00 -0.00000000000E+00  0.00000000000E+00  0.93800000000E+00  0.93800000000E+00 0. -1.
         11    1    1    2    0    0  0.56587854646E-01  0.11339446482E+00  0.99940123698E+00  0.10074043794E+01  0.51100000000E-03 0. -1.
    9000002    1    1    2    0    0  0.13472802353E+00 -0.25454855564E+00  0.62836949059E-01  0.98322891011E+00  0.93800000000E+00 0. -1.
         22    1    1    2    0    0 -0.19131587818E+00  0.14115409082E+00  0.29377617813E+01  0.29473667105E+01  0.00000000000E+00 0. -1.
</event>
<event>
 5    1  0.2111786E+001  0.1531740E+01  0.7818608E-02  0.3430955E+00
         11   -1    0    0    0    0  0.00000000000E+00  0.00000000000E+00  0.39999999674E+01  0.40000000000E+01  0.51100000000E-03 0.  1.
    9000002   -1    0    0    0    0 -0.00000000000E+00 -0.00000000000E+00  0.00000000000E+00  0.93800000000E+00  0.93800000000E+00 0. -1.
         11    1    1    2    0    0 -0.28769303055E+00  0.46551543083E-01  0.13180143969E+01  0.13498505612E+01  0.51100000000E-03 0.  1.
    9000002    1    1    2    0    0 -0.19459076740E-01 -0.36564457125E-01  0.52088559624E-01  0.94035782191E+00  0.93800000000E+00 0. -1.
         22    1    1    2    0    0  0.30715210729E+00 -0.99870859583E-02  0.26298970108E+01  0.26477916169E+01  0.00000000000E+00 0. -1.
</event>
<event>
 5    1  0.2111786E+001  0.1567131E+01  0.7818608E-02  0.3389829E+00
         11   -1    0    0    0    0  0.00000000000E+00  0.00000000000E+00  0.39999999674E+01  0.40000000000E+01  0.51100000000E-03 0.  1.
    9000002   -1    0    0    0    0 -0.00000000000E+00 -0.00000000000E+00  0.00000000000E+00  0.93800000000E+00  0.93800000000E+00 0. -1.
         11    1    1    2    0    0  0.16629190421E+00  0.61353165738E-02  0.11512327091E+01  0.11631971678E+01  0.51100000000E-03 0.  1.
    9000002    1    1    2    0    0  0.10539378998E+00  0.95533950443E-02  0.31556090011E-01  0.94447811258E+00  0.93800000000E+00 0. -1.
         22    1    1    2    0    0 -0.27168569418E+00 -0.15688711618E-01  0.28172111682E+01  0.28303247196E+01  0.00000000000E+00 0.  1.
</event>
<event>
 5    1  0.2111786E+001  0.1553338E+01  0.7818608E-02  0.3405620E+00
         11   -1    0    0    0    0  0.00000000000E+00  0.00000000000E+00  0.39999999674E+01  0.40000000000E+01  0.51100000000E-03 0. -1.
    9000002   -1    0    0    0    0 -0.00000000000E+00 -0.00000000000E+00  0.00000000000E+00  0.93800000000E+00  0.93800000000E+00 0.  1.
         11    1    1    2    0    0  0.22733791453E+00 -0.21471503335E-01  0.24487208789E+01  0.24593449853E+01  0.51100000000E-03 0. -1.
    9000002    1    1    2    0    0  0.39048895521E-01  0.92135161139E-02  0.35427372118E-01  0.93952583989E+00  0.93800000000E+00 0.  1.
         22    1    1    2    0    0 -0.26638681005E+00  0.12257987221E-01  0.15158517163E+01  0.15391291748E+01  0.00000000000E+00 0.  1.
</event>
<event>
 5    1  0.2111786E+001  0.1479391E+01  0.7818608E-02  0.3495659E+00
         11   -1    0    0    0    0  0.00000000000E+00  0.00000000000E+00  0.39999999674E+01  0.40000000000E+01  0.51100000000E-03 0. -1.
    9000002   -1    0    0    0    0 -0.00000000000E+00 -0.00000000000E+00  0.00000000000E+00  0.93800000000E+00  0.93800000000E+00 0.  1.
         11    1    1    2    0    0 -0.64861956832E+00 -0.24212973192E-01  0.26952392970E+01  0.27722930476E+01  0.51100000000E-03 0. -1.
    9000002    1    1    2    0    0  0.39157854023E+00  0.14298467110E+00  0.22685480509E+00  0.10512304561E+01  0.93800000000E+00 0.  1.
         22    1    1    2    0    0  0.25704102809E+00 -0.11877169791E+00  0.10779058652E+01  0.11144764962E+01  0.00000000000E+00 0.  1.
</event>
<event>
 5    1  0.2111786E+001  0.1552969E+01  0.7818608E-02  0.3406046E+00
         11   -1    0    0    0    0  0.00000000000E+00  0.00000000000E+00  0.39999999674E+01  0.40000000000E+01  0.51100000000E-03 0. -1.
    9000002   -1    0    0    0    0 -0.00000000000E+00 -0.00000000000E+00  0.00000000000E+00  0.93800000000E+00  0.93800000000E+00 0.  1.
         11    1    1    2    0    0  0.14774739938E+00  0.21904121832E+00  0.17551633593E+01  0.17749385985E+01  0.51100000000E-03 0. -1.
    9000002    1    1    2    0    0  0.46990611560E-01 -0.52405649397E-01  0.38013891330E-01  0.94140508050E+00  0.93800000000E+00 0.  1.
         22    1    1    2    0    0 -0.19473801094E+00 -0.16663556892E+00  0.22068227167E+01  0.22216563210E+01  0.00000000000E+00 0. -1.
</event>
<event>
 5    1  0.2111786E+001  0.1592517E+01  0.7818608E-02  0.3361525E+00
         11   -1    0    0    0    0  0.00000000000E+00  0.00000000000E+00  0.39999999674E+01  0.40000000000E+01  0.51100000000E-03 0.  1.
    9000002   -1    0    0    0    0 -0.00000000000E+00 -0.00000000000E+00  0.00000000000E+00  0.93800000000E+00  0.93800000000E+00 0. -1.
         11    1    1    2    0    0  0.13054450186E-01 -0.23321071336E-01  0.12598813828E+01  0.12601649300E+01  0.51100000000E-03 0.  1.
    9000002    1    1    2    0    0  0.25434754135E+00  0.34130354555E-01  0.49278642770E-01  0.97371964011E+00  0.93800000000E+00 0. -1.
         22    1    1    2    0    0 -0.26740199154E+00 -0.10809283219E-01  0.26908399418E+01  0.27041154299E+01  0.00000000000E+00 0.  1.
</event>
<event>
 5    1  0.2111786E+001  0.1548835E+01  0.7818608E-02  0.3410840E+00
         11   -1    0    0    0    0  0.00000000000E+00  0.00000000000E+00  0.39999999674E+01  0.40000000000E+01  0.51100000000E-03 0. -1.
    9000002   -1    0    0    0    0 -0.00000000000E+00 -0.00000000000E+00  0.00000000000E+00  0.93800000000E+00  0.93800000000E+00 0. -1.
         11    1    1    2    0    0  0.22809643749E+00  0.29099173072E-01  0.10750952174E+01  0.10994110852E+01  0.51100000000E-03 0. -1.
    9000002    1    1    2    0    0 -0.90632187098E-02  0.21574400524E+00  0.70250982334E-01  0.96509420175E+00  0.93800000000E+00 0. -1.
         22    1    1    2    0    0 -0.21903321878E+00 -0.24484317831E+00  0.28546537676E+01  0.28734947131E+01  0.00000000000E+00 0.  1.
</event>
<event>
 5    1  0.2111786E+001  0.1595345E+01  0.7818608E-02  0.3358431E+00
         11   -1    0    0    0    0  0.00000000000E+00  0.00000000000E+00  0.39999999674E+01  0.40000000000E+01  0.51100000000E-03 0. -1.
    9000002   -1    0    0    0    0 -0.00000000000E+00 -0.00000000000E+00  0.00000000000E+00  0.93800000000E+00  0.93800000000E+00 0. -1.
         11    1    1    2    0    0 -0.28219070301E-01  0.72818078576E-02  0.76737429437E+00  0.76792767200E+00  0.51100000000E-03 0. -1.
    9000002    1    1    2    0    0 -0.12599996944E+00  0.13774198415E+00  0.26291385984E-01  0.95675706607E+00  0.93800000000E+00 0. -1.
         22    1    1    2    0    0  0.15421903974E+00 -0.14502379201E+00  0.32063342870E+01  0.32133152619E+01  0.00000000000E+00 0. -1.
</event>
<event>
 5    1  0.2111786E+001  0.1484318E+01  0.7818608E-02  0.3489359E+00
         11   -1    0    0    0    0  0.00000000000E+00  0.00000000000E+00  0.39999999674E+01  0.40000000000E+01  0.51100000000E-03 0.  1.
    9000002   -1    0    0    0    0 -0.00000000000E+00 -0.00000000000E+00  0.00000000000E+00  0.93800000000E+00  0.93800000000E+00 0. -1.
         11    1    1    2    0    0  0.31027909404E+00  0.14102073738E+00  0.72850745437E+00  0.80429057980E+00  0.51100000000E-03 0.  1.
    9000002    1    1    2    0    0 -0.10788478233E+00  0.17368537566E-01  0.97538658173E-01  0.94936746426E+00  0.93800000000E+00 0. -1.
         22    1    1    2    0    0 -0.20239431171E+00 -0.15838927494E+00  0.31739538548E+01  0.31843419559E+01  0.00000000000E+00 0.  1.
</event>
<event>
 5    1  0.2111786E+001  0.1578911E+01  0.7818608E-02  0.3376575E+00
         11   -1    0    0    0    0  0.00000000000E+00  0.00000000000E+00  0.39999999674E+01  0.40000000000E+01  0.51100000000E-03 0. -1.
    9000002   -1    0    0    0    0 -0.00000000000E+00 -0.00000000000E+00  0.00000000000E+00  0.93800000000E+00  0.93800000000E+00 0.  1.
         11    1    1    2    0    0  0.67048496540E-01 -0.69670011073E-01  0.12608603449E+01  0.12645625654E+01  0.51100000000E-03 0. -1.
    9000002    1    1    2    0    0  0.17420009160E+00 -0.11190782083E+00  0.44158457862E-01  0.96159399004E+00  0.93800000000E+00 0.  1.
         22    1    1    2    0    0 -0.24124858814E+00  0.18157783190E+00  0.26949811646E+01  0.27118434446E+01  0.00000000000E+00 0. -1.
</event>
<event>
 5    1  0.2111786E+001  0.1550352E+01  0.7818608E-02  0.3409077E+00
         11   -1    0    0    0    0  0.00000000000E+00  0.00000000000E+00  0.39999999674E+01  0.40000000000E+01  0.51100000000E-03 0. -1.
    9000002   -1    0    0    0    0 -0.00000000000E+00 -0.00000000000E+00  0.00000000000E+00  0.93800000000E+00  0.93800000000E+00 0. -1.
         11    1    1    2    0    0  0.17367456139E+00  0.21800386214E-01  0.30776320995E+01  0.30826056691E+01  0.51100000000E-03 0. -1.
    9000002    1    1    2    0    0  0.59175885099E-01  0.26162289757E-01  0.39479175214E-01  0.94105730753E+00  0.93800000000E+00 0. -1.
         22    1    1    2    0    0 -0.23285044649E+00 -0.47962675971E-01  0.88288869261E+00  0.91433702334E+00  0.00000000000E+00 0. -1.
</event>
<event>
 5    1  0.2111786E+001  0.1576440E+01  0.7818608E-02  0.3379338E+00
         11   -1    0    0    0    0  0.00000000000E+00  0.00000000000E+00  0.39999999674E+01  0.40000000000E+01  0.51100000000E-03 0. -1.
    9000002   -1    0    0    0    0 -0.00000000000E+00 -0.00000000000E+00  0.00000000000E+00  0.93800000000E+00  0.93800000000E+00 0. -1.
         11    1    1    2    0    0 -0.20783849904E-01  0.12640936998E+00  0.78274126149E+00  0.79315536990E+00  0.51100000000E-03 0. -1.
    9000002    1    1    2    0    0 -0.75975930884E-01  0.77098393850E-01  0.24910608897E-01  0.94455335627E+00  0.93800000000E+00 0. -1.
         22    1    1    2    0    0  0.96759780787E-01 -0.20350776383E+00  0.31923480970E+01  0.32002912738E+01  0.00000000000E+00 0. -1.
</event>
<event>
 5    1  0.2111786E+001  0.1568746E+01  0.7818608E-02  0.3388000E+00
         11   -1    0    0    0    0  0.00000000000E+00  0.00000000000E+00  0.39999999674E+01  0.40000000000E+01  0.51100000000E-03 0. -1.
    9000002   -1    0    0    0    0 -0.00000000000E+00 -0.00000000000E+00  0.00000000000E+00  0.93800000000E+00  0.93800000000E+00 0.  1.
         11    1    1    2    0    0 -0.16338925506E+00  0.15732491932E-01  0.24732515828E+01  0.24786926419E+01  0.51100000000E-03 0. -1.
    9000002    1    1    2    0    0  0.49430761858E-01  0.22442086579E+00  0.58845615205E-01  0.96753032596E+00  0.93800000000E+00 0.  1.
         22    1    1    2    0    0  0.11395849320E+00 -0.24015335772E+00  0.14679027693E+01  0.14917770321E+01  0.00000000000E+00 0. -1.
</event>
<event>
 5    1  0.2111786E+001  0.1466620E+01  0.7818608E-02  0.3512201E+00
         11   -1    0    0    0    0  0.00000000000E+00  0.00000000000E+00  0.39999999674E+01  0.40000000000E+01  0.51100000000E-03 0.  1.
    9000002   -1    0    0    0    0 -0.00000000000E+00 -0.00000000000E+00  0.00000000000E+00  0.93800000000E+00  0.93800000000E+00 0.  1.
         11    1    1    2    0    0  0.39521876062E+00 -0.18549294832E-02  0.33258056144E+01  0.33492065561E+01  0.51100000000E-03 0.  1.
    9000002    1    1    2    0    0 -0.93764117348E-01 -0.42181806522E-02  0.10999408702E+00  0.94907966048E+00  0.93800000000E+00 0.  1.
         22    1    1    2    0    0 -0.30145464327E+00  0.60731101354E-02  0.56420026591E+00  0.63971378340E+00  0.00000000000E+00 0.  1.
</event>
<event>
 5    1  0.2111786E+001  0.1533742E+01  0.7818608E-02  0.3428574E+00
         11   -1    0    0    0    0  0.00000000000E+00  0.00000000000E+00  0.39999999674E+01  0.40000000000E+01  0.51100000000E-03 0.  1.
    9000002   -1    0    0    0    0 -0.00000000000E+00 -0.00000000000E+00  0.00000000000E+00  0.93800000000E+00  0.93800000000E+00 0. -1.
         11    1    1    2    0    0 -0.55025971478E-02 -0.22519526885E+00  0.77878759464E+00  0.81071176528E+00  0.51100000000E-03 0.  1.
    9000002    1    1    2    0    0 -0.34319671870E+00 -0.59213714855E-01  0.13639013487E+00  0.10098200437E+01  0.93800000000E+00 0. -1.
         22    1    1    2    0    0  0.34869931585E+00  0.28440898371E+00  0.30848222379E+01  0.31174681910E+01  0.00000000000E+00 0.  1.
</event>
<event>
 5    1  0.2111786E+001  0.1555745E+01  0.7818608E-02  0.3402843E+00
         11   -1    0    0    0    0  0.00000000000E+00  0.00000000000E+00  0.39999999674E+01  0.40000000000E+01  0.51100000000E-03 0. -1.
    9000002   -1    0    0    0    0 -0.00000000000E+00 -0.00000000000E+00  0.00000000000E+00  0.93800000000E+00  0.93800000000E+00 0.  1.
         11    1    1    2    0    0 -0.16145084804E-01 -0.22696015075E+00  0.17286744515E+01  0.17435845819E+01  0.51100000000E-03 0. -1.
    9000002    1    1    2    0    0  0.24825522344E-01 -0.52995122278E-01  0.34850434415E-01  0.94046974557E+00  0.93800000000E+00 0.  1.
         22    1    1    2    0    0 -0.86804375398E-02  0.27995527303E+00  0.22364750814E+01  0.22539456725E+01  0.00000000000E+00 0. -1.
</event>
<event>
 5    1  0.2111786E+001  0.1578600E+01  0.7818608E-02  0.3376923E+00
         11   -1    0    0    0    0  0.00000000000E+00  0.00000000000E+00  0.39999999674E+01  0.40000000000E+01  0.51100000000E-03 0. -1.
    9000002   -1    0    0    0    0 -0.00000000000E+00 -0.00000000000E+00  0.00000000000E+00  0.93800000000E+00  0.93800000000E+00 0. -1.
         11    1    1    2    0    0  0.26841029527E-01 -0.10925495348E+00  0.76258827591E+00  0.77084254254E+00  0.51100000000E-03 0. -1.
    9000002    1    1    2    0    0 -0.35431426844E-01 -0.14050456138E+00  0.29560621591E-01  0.94958661960E+00  0.93800000000E+00 0. -1.
         22    1    1    2    0    0  0.85903973168E-02  0.24975951486E+00  0.32078510699E+01  0.32175708379E+01  0.00000000000E+00 0.  1.
</event>
<event>
 5    1  0.2111786E+001  0.1526178E+01  0.7818608E-02  0.3437602E+00
         11   -1    0    0    0    0  0.00000000000E+00  0.00000000000E+00  0.39999999674E+01  0.40000000000E+01  0.51100000000E-03 0.  1.
    9000002   -1    0    0    0    0 -0.00000000000E+00 -0.00000000000E+00  0.00000000000E+00  0.93800000000E+00  0.93800000000E+00 0. -1.
         11    1    1    2    0    0 -0.18997990678E-01  0.18848392035E+00  0.36338440798E+00  0.40979946433E+00  0.51100000000E-03 0.  1.
    9000002    1    1    2    0    0  0.11542461105E+00  0.50910497067E-01  0.66510848009E-01  0.94877943298E+00  0.93800000000E+00 0. -1.
         22    1    1    2    0    0 -0.96426620369E-01 -0.23939441742E+00  0.35701047114E+01  0.35794211027E+01  0.00000000000E+00 0.  1.
</event>
<event>
 5    1  0.2111786E+001  0.1468648E+01  0.7818608E-02  0.3509553E+00
         11   -1    0    0    0    0  0.00000000000E+00  0.00000000000E+00  0.39999999674E+01  0.40000000000E+01  0.51100000000E-03 0.  1.
    9000002   -1    0    0    0    0 -0.00000000000E+00 -0.00000000000E+00  0.00000000000E+00  0.93800000000E+00  0.93800000000E+00 0.  1.
         11    1    1    2    0    0 -0.65494078402E+00  0.15142698366E+00  0.20492143561E+01  0.21566541912E+01  0.51100000000E-03 0.  1.
    9000002    1    1    2    0    0  0.42536462822E+00 -0.84429558521E-01  0.24917623775E+00  0.10630128008E+01  0.93800000000E+00 0.  1.
         22    1    1    2    0    0  0.22957615580E+00 -0.66997425136E-01  0.17016093735E+01  0.17183330080E+01  0.00000000000E+00 0.  1.
</event>
<event>
 5    1  0.2111786E+001  0.1541050E+01  0.7818608E-02  0.3419941E+00
         11   -1    0    0    0    0  0.00000000000E+00  0.00000000000E+00  0.39999999674E+01  0.40000000000E+01  0.51100000000E-03 0.  1.
    9000002   -1    0    0    0    0 -0.00000000000E+00 -0.00000000000E+00  0.00000000000E+00  0.93800000000E+00  0.93800000000E+00 0. -1.
         11    1    1    2    0    0  0.28029567328E+00  0.27311421343E+00  0.27915381729E+01  0.28188371130E+01  0.51100000000E-03 0.  1.
    9000002    1    1    2    0    0 -0.12871111527E+00 -0.12392406819E+00  0.66077914901E-01  0.95714889997E+00  0.93800000000E+00 0. -1.
         22    1    1    2    0    0 -0.15158455802E+00 -0.14919014524E+00  0.11423838796E+01  0.11620139870E+01  0.00000000000E+00 0.  1.
</event>
<event>
 5    1  0.2111786E+001  0.1509595E+01  0.7818608E-02  0.3457736E+00
         11   -1    0    0    0    0  0.00000000000E+00  0.00000000000E+00  0.39999999674E+01  0.40000000000E+01  0.51100000000E-03 0.  1.
    9000002   -1    0    0    0    0 -0.00000000000E+00 -0.00000000000E+00  0.00000000000E+00  0.93800000000E+00  0.93800000000E+00 0.  1.
         11    1    1    2    0    0 -0.11267943889E-01  0.22962127487E+00  0.34482180045E+01  0.34558733432E+01  0.51100000000E-03 0.  1.
    9000002    1    1    2    0    0 -0.24916120220E-01  0.11908020415E-01  0.68820460584E-01  0.94092660170E+00  0.93800000000E+00 0.  1.
         22    1    1    2    0    0  0.36184064109E-01 -0.24152929528E+00  0.48296150227E+00  0.54120005511E+00  0.00000000000E+00 0.  1.
</event>
<event>
 5    1  0.3234340E+001  0.1573293E+01  0.7818608E-02  0.3382871E+00
         11   -1    0    0    0    0  0.00000000000E+00  0.00000000000E+00  0.39999999674E+01  0.40000000000E+01  0.51100000000E-03 0. -1.
    9000002   -1    0    0    0    0 -0.00000000000E+00 -0.00000000000E+00  0.00000000000E+00  0.93800000000E+00  0.93800000000E+00 0.  1.
         11    1    1    2    0    0 -0.71971865429E-01  0.15859238891E+00  0.12934964805E+01  0.13051685337E+01  0.51100000000E-03 0. -1.
    9000002    1    1    2    0    0 -0.25482451334E-01  0.18614659903E-01  0.20017522884E-01  0.93874414092E+00  0.93800000000E+00 0.  1.
         22    1    1    2    0    0  0.97454316763E-01 -0.17720704881E+00  0.26864859640E+01  0.26940873254E+01  0.00000000000E+00 0. -1.
</event>
<event>
 5    1  0.2111786E+001  0.1562565E+01  0.7818608E-02  0.3395024E+00
         11   -1    0    0    0    0  0.00000000000E+00  0.00000000000E+00  0.39999999674E+01  0.40000000000E+01  0.51100000000E-03 0.  1.
    9000002   -1    0    0    0    0 -0.00000000000E+00 -0.00000000000E+00  0.00000000000E+00  0.93800000000E+00  0.93800000000E+00 0.  1.
         11    1    1    2    0    0 -0.28489529711E-01 -0.18763652735E+00  0.88252396520E+00  0.90270035448E+00  0.51100000000E-03 0.  1.
    9000002    1    1    2    0    0 -0.36516527426E-01 -0.94950928908E-02  0.28328250503E-01  0.93918587263E+00  0.93800000000E+00 0.  1.
         22    1    1    2    0    0  0.65006057137E-01  0.19713162024E+00  0.30891477517E+01  0.30961137729E+01  0.00000000000E+00 0.  1.
</event>
<event>
 5    1  0.2111786E+001  0.1450607E+01  0.7818608E-02  0.3533392E+00
         11   -1    0    0    0    0  0.00000000000E+00  0.00000000000E+00  0.39999999674E+01  0.40000000000E+01  0.51100000000E-03 0.  1.
    9000002   -1    0    0    0    0 -0.00000000000E+00 -0.00000000000E+00  0.00000000000E+00  0.93800000000E+00  0.93800000000E+00 0.  1.
         11    1    1    2    0    0 -0.48070038362E+00  0.13006238296E+00  0.63097026949E+00  0.80381143583E+00  0.51100000000E-03 0.  1.
    9000002    1    1    2    0    0  0.66830087353E+00  0.10263522631E-01  0.50001321978E+00  0.12556228006E+01  0.93800000000E+00 0.  1.
         22    1    1    2    0    0 -0.18760048992E+00 -0.14032590560E+00  0.28690164781E+01  0.28785657636E+01  0.00000000000E+00 0.  1.
</event>
<event>
 5    1  0.2111786E+001  0.1509900E+01  0.7818608E-02  0.3457362E+00
         11   -1    0    0    0    0  0.00000000000E+00  0.00000000000E+00  0.39999999674E+01  0.40000000000E+01  0.51100000000E-03 0.  1.
    9000002   -1    0    0    0    0 -0.00000000000E+00 -0.00000000000E+00  0.00000000000E+00  0.93800000000E+00  0.93800000000E+00 0. -1.
         11    1    1    2    0    0 -0.55258631126E+00  0.47075260190E-01  0.21162195265E+01  0.21876821197E+01  0.51100000000E-03 0.  1.
    9000002    1    1    2    0    0  0.35249054090E+00 -0.31393596659E-01  0.16039708429E+00  0.10152863458E+01  0.93800000000E+00 0. -1.
         22    1    1    2    0    0  0.20009577036E+00 -0.15681663531E-01  0.17233833566E+01  0.17350315345E+01  0.00000000000E+00 0.  1.
</event>
<event>
 5    1  0.2111786E+001  0.1498829E+01  0.7818608E-02  0.3471065E+00
         11   -1    0    0    0    0  0.00000000000E+00  0.00000000000E+00  0.39999999674E+01  0.40000000000E+01  0.51100000000E-03 0. -1.
    9000002   -1    0    0    0    0 -0.00000000000E+00 -0.00000000000E+00  0.00000000000E+00  0.93800000000E+00  0.93800000000E+00 0. -1.
         11    1    1    2    0    0  0.11767448304E+00 -0.38948860430E+00  0.10604095876E+01  0.11357893341E+01  0.51100000000E-03 0. -1.
    9000002    1    1    2    0    0  0.84256704704E-01  0.27161869172E+00  0.13677571181E+00  0.98966029592E+00  0.93800000000E+00 0. -1.
         22    1    1    2    0    0 -0.20193118774E+00  0.11786991258E+00  0.28028146679E+01  0.28125503700E+01  0.00000000000E+00 0. -1.
</event>
<event>
 5    1  0.2111786E+001  0.1520390E+01  0.7818608E-02  0.3444577E+00
         11   -1    0    0    0    0  0.00000000000E+00  0.00000000000E+00  0.39999999674E+01  0.40000000000E+01  0.51100000000E-03 0. -1.
    9000002   -1    0    0    0    0 -0.00000000000E+00 -0.00000000000E+00  0.00000000000E+00  0.93800000000E+00  0.93800000000E+00 0. -1.
         11    1    1    2    0    0 -0.28591697935E+00 -0.51432366222E-01  0.33602987765E+01  0.33728329244E+01  0.51100000000E-03 0. -1.
    9000002    1    1    2    0    0  0.44164239337E+00  0.26585691184E+00  0.25881794091E+00  0.11011623984E+01  0.93800000000E+00 0. -1.
         22    1    1    2    0    0 -0.15572541402E+00 -0.21442454562E+00  0.38088324992E+00  0.46400467714E+00  0.00000000000E+00 0. -1.
</event>
<event>
 5    1  0.2111786E+001  0.1531217E+01  0.7818608E-02  0.3431577E+00
         11   -1    0    0    0    0  0.00000000000E+00  0.00000000000E+00  0.39999999674E+01  0.40000000000E+01  0.51100000000E-03 0.  1.
    9000002   -1    0    0    0    0 -0.00000000000E+00 -0.00000000000E+00  0.00000000000E+00  0.93800000000E+00  0.93800000000E+00 0. -1.
         11    1    1    2    0    0  0.11993816680E+00  0.23935548097E+00  0.81946644202E+00  0.86209148055E+00  0.51100000000E-03 0.  1.
    9000002    1    1    2    0    0 -0.97432871436E-01 -0.93079343324E-02  0.58046051882E-01  0.94487731808E+00  0.93800000000E+00 0. -1.
         22    1    1    2    0    0 -0.22505295366E-01 -0.23004754664E+00  0.31224874735E+01  0.31310312014E+01  0.00000000000E+00 0.  1.
</event>
<event>
 5    1  0.2111786E+001  0.1579066E+01  0.7818608E-02  0.3376403E+00
         11   -1    0    0    0    0  0.00000000000E+00  0.00000000000E+00  0.39999999674E+01  0.40000000000E+01  0.51100000000E-03 0.  1.
    9000002   -1    0    0    0    0 -0.00000000000E+00 -0.00000000000E+00  0.00000000000E+00  0.93800000000E+00  0.93800000000E+00 0.  1.
         11    1    1    2    0    0 -0.14136923744E+00 -0.60058256706E-01  0.12478729405E+01  0.12572904963E+01  0.51100000000E-03 0.  1.
    9000002    1    1    2    0    0  0.15660663419E+00 -0.22707254867E+00  0.66761753098E-01  0.97999424075E+00  0.93800000000E+00 0.  1.
         22    1    1    2    0    0 -0.15237396750E-01  0.28713080537E+00  0.26853652738E+01  0.27007152629E+01  0.00000000000E+00 0.  1.
</event>
<event>
 5    1  0.2111786E+001  0.1539916E+01  0.7818608E-02  0.3421275E+00
         11   -1    0    0    0    0  0.00000000000E+00  0.00000000000E+00  0.39999999674E+01  0.40000000000E+01  0.51100000000E-03 0. -1.
    9000002   -1    0    0    0    0 -0.00000000000E+00 -0.00000000000E+00  0.00000000000E+00  0.93800000000E+00  0.93800000000E+00 0. -1.
         11    1    1    2    0    0 -0.28732076115E-01  0.13327022570E+00  0.35013651362E+01  0.35040183452E+01  0.51100000000E-03 0. -1.
    9000002    1    1    2    0    0 -0.17609178578E+00 -0.15299924107E+00  0.82913545827E-01  0.97012150830E+00  0.93800000000E+00 0. -1.
         22    1    1    2    0    0  0.20482386189E+00  0.19729015371E-01  0.41572128533E+00  0.46386014652E+00  0.00000000000E+00 0. -1.
</event>
<event>
 5    1  0.2111786E+001  0.1565978E+01  0.7818608E-02  0.3391139E+00
         11   -1    0    0    0    0  0.00000000000E+00  0.00000000000E+00  0.39999999674E+01  0.40000000000E+01  0.51100000000E-03 0.  1.
    9000002   -1    0    0    0    0 -0.00000000000E+00 -0.00000000000E+00  0.00000000000E+00  0.93800000000E+00  0.93800000000E+00 0.  1.
         11    1    1    2    0    0 -0.20161739456E+00  0.11548861773E+00  0.17960724612E+01  0.18110394091E+01  0.51100000000E-03 0.  1.
    9000002    1    1    2    0    0  0.14134847719E+00  0.12390487333E+00  0.48960925015E-01  0.95790029847E+00  0.93800000000E+00 0.  1.
         22    1    1    2    0    0  0.60268917371E-01 -0.23939349106E+00  0.21549665812E+01  0.21690602924E+01  0.00000000000E+00 0.  1.
</event>
<event>
 5    1  0.2111786E+001  0.1501419E+01  0.7818608E-02  0.3467839E+00
         11   -1    0    0    0    0  0.00000000000E+00  0.00000000000E+00  0.39999999674E+01  0.40000000000E+01  0.51100000000E-03 0.  1.
    9000002   -1    0    0    0    0 -0.00000000000E+00 -0.00000000000E+00  0.00000000000E+00  0.93800000000E+00  0.93800000000E+00 0.  1.
         11    1    1    2    0    0  0.29233144439E+00  0.51025829414E+00  0.19491113412E+01  0.20358920604E+01  0.51100000000E-03 0.  1.
    9000002    1    1    2    0    0 -0.37812241868E+00 -0.27830529517E+00  0.24213320023E+00  0.10765235192E+01  0.93800000000E+00 0.  1.
         22    1    1    2    0    0  0.85790974290E-01 -0.23195299897E+00  0.18087554260E+01  0.18255844204E+01  0.00000000000E+00 0.  1.
</event>
<event>
 5    1  0.2111786E+001  0.1554499E+01  0.7818608E-02  0.3404280E+00
         11   -1    0    0    0    0  0.00000000000E+00  0.00000000000E+00  0.39999999674E+01  0.40000000000E+01  0.51100000000E-03 0.  1.
    9000002   -1    0    0    0    0 -0.00000000000E+00 -0.00000000000E+00  0.00000000000E+00  0.93800000000E+00  0.93800000000E+00 0.  1.
         11    1    1    2    0    0 -0.29422506130E+00 -0.55649425526E-01  0.26477082375E+01  0.26645871008E+01  0.51100000000E-03 0.  1.
    9000002    1    1    2    0    0  0.10606538076E+00 -0.51509349672E-01  0.43024365019E-01  0.94636048844E+00  0.93800000000E+00 0.  1.
         22    1    1    2    0    0  0.18815968054E+00  0.10715877520E+00  0.13092673648E+01  0.13270524108E+01  0.00000000000E+00 0.  1.
</event>
<event>
 5    1  0.2111786E+001  0.1562506E+01  0.7818608E-02  0.3395091E+00
         11   -1    0    0    0    0  0.00000000000E+00  0.00000000000E+00  0.39999999674E+01  0.40000000000E+01  0.51100000000E-03 0.  1.
    9000002   -1    0    0    0    0 -0.00000000000E+00 -0.00000000000E+00  0.00000000000E+00  0.93800000000E+00  0.93800000000E+00 0.  1.
         11    1    1    2    0    0  0.18294669610E+00 -0.96133346653E-01  0.29599423514E+01  0.29671484794E+01  0.51100000000E-03 0.  1.
    9000002    1    1    2    0    0 -0.23246671374E-01 -0.27519636223E-01  0.28286532388E-01  0.93911759968E+00  0.93800000000E+00 0.  1.
         22    1    1    2    0    0 -0.15970002473E+00  0.12365298288E+00  0.10117710836E+01  0.10317339209E+01  0.00000000000E+00 0. -1.
</event>
<event>
 5    1  0.2111786E+001  0.1504241E+01  0.7818608E-02  0.3464339E+00
         11   -1    0    0    0    0  0.00000000000E+00  0.00000000000E+00  0.39999999674E+01  0.40000000000E+01  0.51100000000E-03 0. -1.
    9000002   -1    0    0    0    0 -0.00000000000E+00 -0.00000000000E+00  0.00000000000E+00  0.93800000000E+00  0.93800000000E+00 0.  1.
         11    1    1    2    0    0  0.26889056552E+00 -0.94414305554E-01  0.13003468748E+01  0.13312093950E+01  0.51100000000E-03 0. -1.
    9000002    1    1    2    0    0  0.21902163327E+00  0.51131542509E-01  0.10956267197E+00  0.97078982770E+00  0.93800000000E+00 0.  1.
         22    1    1    2    0    0 -0.48791219878E+00  0.43282763045E-01  0.25900904206E+01  0.26360007773E+01  0.00000000000E+00 0. -1.
</event>
<event>
 5    1  0.2111786E+001  0.1577749E+01  0.7818608E-02  0.3377873E+00
         11   -1    0    0    0    0  0.00000000000E+00  0.00000000000E+00  0.39999999674E+01  0.40000000000E+01  0.51100000000E-03 0.  1.
    9000002   -1    0    0    0    0 -0.00000000000E+00 -0.00000000000E+00  0.00000000000E+00  0.93800000000E+00  0.93800000000E+00 0.  1.
         11    1    1    2    0    0  0.10530872545E+00 -0.13054174417E-02  0.24156688285E+01  0.24179635609E+01  0.51100000000E-03 0.  1.
    9000002    1    1    2    0    0  0.38531293588E-01  0.19397111401E+00  0.42491028447E-01  0.95956184853E+00  0.93800000000E+00 0.  1.
         22    1    1    2    0    0 -0.14384001904E+00 -0.19266569657E+00  0.15418401104E+01  0.15604745906E+01  0.00000000000E+00 0.  1.
</event>
<event>
 5    1  0.2111786E+001  0.1569133E+01  0.7818608E-02  0.3387562E+00
         11   -1    0    0    0    0  0.00000000000E+00  0.00000000000E+00  0.39999999674E+01  0.40000000000E+01  0.51100000000E-03 0.  1.
    9000002   -1    0    0    0    0 -0.00000000000E+00 -0.00000000000E+00  0.00000000000E+00  0.93800000000E+00  0.93800000000E+00 0.  1.
         11    1    1    2    0    0  0.14395380151E+00 -0.43453444200E-01  0.27457491877E+01  0.27498635896E+01  0.51100000000E-03 0.  1.
    9000002    1    1    2    0    0  0.62829824611E-01 -0.13868509898E-01  0.25249722989E-01  0.94054317867E+00  0.93800000000E+00 0.  1.
         22    1    1    2    0    0 -0.20678362612E+00  0.57321954098E-01  0.12290010567E+01  0.12475932317E+01  0.00000000000E+00 0.  1.
</event>
<event>
 5    1  0.2111786E+001  0.1542631E+01  0.7818608E-02  0.3418084E+00
         11   -1    0    0    0    0  0.00000000000E+00  0.00000000000E+00  0.39999999674E+01  0.40000000000E+01  0.51100000000E-03 0.  1.
    9000002   -1    0    0    0    0 -0.00000000000E+00 -0.00000000000E+00  0.00000000000E+00  0.93800000000E+00  0.93800000000E+00 0. -1.
         11    1    1    2    0    0  0.67915137865E-01 -0.30418779034E+00  0.21671415807E+01  0.21894395561E+01  0.51100000000E-03 0.  1.
    9000002    1    1    2    0    0 -0.58488975411E-01  0.37209601109E-01  0.45829412510E-01  0.94167396147E+00  0.93800000000E+00 0. -1.
         22    1    1    2    0    0 -0.94261624534E-02  0.26697818923E+00  0.17870289742E+01  0.18068864825E+01  0.00000000000E+00 0.  1.
</event>
<event>
 5    1  0.2111786E+001  0.1575415E+01  0.7818608E-02  0.3380487E+00
         11   -1    0    0    0    0  0.00000000000E+00  0.00000000000E+00  0.39999999674E+01  0.40000000000E+01  0.51100000000E-03 0. -1.
    9000002   -1    0    0    0    0 -0.00000000000E+00 -0.00000000000E+00  0.00000000000E+00  0.93800000000E+00  0.93800000000E+00 0.  1.
         11    1    1    2    0    0  0.41546319709E-01  0.16189511346E+00  0.15349581853E+01  0.15440314168E+01  0.51100000000E-03 0. -1.
    9000002    1    1    2    0    0 -0.44231341553E-01  0.49055948179E-01  0.20711377868E-01  0.94055082733E+00  0.93800000000E+00 0.  1.
         22    1    1    2    0    0  0.26850218433E-02 -0.21095106164E+00  0.24443304042E+01  0.24534177559E+01  0.00000000000E+00 0. -1.
</event>
<event>
 5    1  0.2111786E+001  0.1585026E+01  0.7818608E-02  0.3369777E+00
         11   -1    0    0    0    0  0.00000000000E+00  0.00000000000E+00  0.39999999674E+01  0.40000000000E+01  0.51100000000E-03 0. -1.
    9000002   -1    0    0    0    0 -0.00000000000E+00 -0.00000000000E+00  0.00000000000E+00  0.93800000000E+00  0.93800000000E+00 0.  1.
         11    1    1    2    0    0 -0.91901764850E-01 -0.21017443250E+00  0.21183019465E+01  0.21306859515E+01  0.51100000000E-03 0. -1.
    9000002    1    1    2    0    0  0.39806260194E+00  0.25655927184E+00  0.16588723931E+00  0.10637852561E+01  0.93800000000E+00 0.  1.
         22    1    1    2    0    0 -0.30616083709E+00 -0.46384839343E-01  0.17158107816E+01  0.17435287923E+01  0.00000000000E+00 0.  1.
</event>
<event>
 5    1  0.2111786E+001  0.1550850E+01  0.7818608E-02  0.3408500E+00
         11   -1    0    0    0    0  0.00000000000E+00  0.00000000000E+00  0.39999999674E+01  0.40000000000E+01  0.51100000000E-03 0.  1.
    9000002   -1    0    0    0    0 -0.00000000000E+00 -0.00000000000E+00  0.00000000000E+00  0.93800000000E+00  0.93800000000E+00 0. -1.
         11    1    1    2    0    0 -0.50840269278E-01  0.36087110190E+00  0.14277448239E+01  0.14735223881E+01  0.51100000000E-03 0.  1.
    9000002    1    1    2    0    0  0.31932762529E+00 -0.29990559382E+00  0.17316347401E+00  0.10496395030E+01  0.93800000000E+00 0. -1.
         22    1    1    2    0    0 -0.26848735601E+00 -0.60965508080E-01  0.23990916695E+01  0.24148381089E+01  0.00000000000E+00 0.  1.
</event>
<event>
 5    1  0.2111786E+001  0.1571025E+01  0.7818608E-02  0.3385425E+00
         11   -1    0    0    0    0  0.00000000000E+00  0.00000000000E+00  0.39999999674E+01  0.40000000000E+01  0.51100000000E-03 0.  1.
    9000002   -1    0    0    0    0 -0.00000000000E+00 -0.00000000000E+00  0.00000000000E+00  0.93800000000E+00  0.93800000000E+00 0.  1.
         11    1    1    2    0    0  0.43475372252E-01  0.13740165035E+00  0.21594971969E+01  0.21643007476E+01  0.51100000000E-03 0.  1.
    9000002    1    1    2    0    0  0.23629684642E-01  0.10599954076E+00  0.29026276035E-01  0.94471201397E+00  0.93800000000E+00 0.  1.
         22    1    1    2    0    0 -0.67105056893E-01 -0.24340119111E+00  0.18114764944E+01  0.18289872384E+01  0.00000000000E+00 0.  1.
</event>
<event>
 5    1  0.2111786E+001  0.1466463E+01  0.7818608E-02  0.3512407E+00
         11   -1    0    0    0    0  0.00000000000E+00  0.00000000000E+00  0.39999999674E+01  0.40000000000E+01  0.51100000000E-03 0.  1.
    9000002   -1    0    0    0    0 -0.00000000000E+00 -0.00000000000E+00  0.00000000000E+00  0.93800000000E+00  0.93800000000E+00 0.  1.
         11    1    1    2    0    0  0.20053837076E+00  0.63364958226E+00  0.23554041199E+01  0.24473774250E+01  0.51100000000E-03 0.  1.
    9000002    1    1    2    0    0 -0.78567217125E-01 -0.37801896940E+00  0.21973349254E+00  0.10378814752E+01  0.93800000000E+00 0.  1.
         22    1    1    2    0    0 -0.12197115364E+00 -0.25563061285E+00  0.14248623550E+01  0.14527410998E+01  0.00000000000E+00 0.  1.
</event>
<event>
 5    1  0.2111786E+001  0.1569636E+01  0.7818608E-02  0.3386994E+00
         11   -1    0    0    0    0  0.00000000000E+00  0.00000000000E+00  0.39999999674E+01  0.40000000000E+01  0.51100000000E-03 0.  1.
    9000002   -1    0    0    0    0 -0.00000000000E+00 -0.00000000000E+00  0.00000000000E+00  0.93800000000E+00  0.93800000000E+00 0.  1.
         11    1    1    2    0    0  0.76207678234E-01  0.15875279506E+00  0.97171394108E+00  0.98754154575E+00  0.51100000000E-03 0.  1.
    9000002    1    1    2    0    0 -0.97788251073E-01  0.53492311101E-01  0.30500881411E-01  0.94509167447E+00  0.93800000000E+00 0.  1.
         22    1    1    2    0    0  0.21580572839E-01 -0.21224510616E+00  0.29977851449E+01  0.30053667798E+01  0.00000000000E+00 0.  1.
</event>
<event>
 5    1  0.2111786E+001  0.1507600E+01  0.7818608E-02  0.3460192E+00
         11   -1    0    0    0    0  0.00000000000E+00  0.00000000000E+00  0.39999999674E+01  0.40000000000E+01  0.51100000000E-03 0. -1.
    9000002   -1    0    0    0    0 -0.00000000000E+00 -0.00000000000E+00  0.00000000000E+00  0.93800000000E+00  0.93800000000E+00 0.  1.
         11    1    1    2    0    0  0.17703483495E+00 -0.16942178396E+00  0.81913375963E+00  0.85500026372E+00  0.51100000000E-03 0. -1.
    9000002    1    1    2    0    0  0.29560322490E-01 -0.31594617898E+00  0.14397382547E+00  0.10006339306E+01  0.93800000000E+00 0.  1.
         22    1    1    2    0    0 -0.20659515744E+00  0.48536796294E+00  0.30368923823E+01  0.30823658057E+01  0.00000000000E+00 0. -1.
</event>
<event>
 5    1  0.2111786E+001  0.1555338E+01  0.7818608E-02  0.3403312E+00
         11   -1    0    0    0    0  0.00000000000E+00  0.00000000000E+00  0.39999999674E+01  0.40000000000E+01  0.51100000000E-03 0. -1.
    9000002   -1    0    0    0    0 -0.00000000000E+00 -0.00000000000E+00  0.00000000000E+00  0.93800000000E+00  0.93800000000E+00 0. -1.
         11    1    1    2    0    0  0.11565906841E+00 -0.23587372202E+00  0.20278641672E+01  0.20448097160E+01  0.51100000000E-03 0. -1.
    9000002    1    1    2    0    0 -0.32650839350E-01  0.53025993801E-02  0.33555873833E-01  0.93918272532E+00  0.93800000000E+00 0. -1.
         22    1    1    2    0    0 -0.83008229056E-01  0.23057112264E+00  0.19385799263E+01  0.19540075587E+01  0.00000000000E+00 0. -1.
</event>
<event>
 5    1  0.2111786E+001  0.1573864E+01  0.7818608E-02  0.3382228E+00
         11   -1    0    0    0    0  0.00000000000E+00  0.00000000000E+00  0.39999999674E+01  0.40000000000E+01  0.51100000000E-03 0. -1.
    9000002   -1    0    0    0    0 -0.00000000000E+00 -0.00000000000E+00  0.00000000000E+00  0.93800000000E+00  0.93800000000E+00 0. -1.
         11    1    1    2    0    0  0.14536897308E+00  0.29093115782E-01  0.86608924845E+00  0.87868617556E+00  0.51100000000E-03 0. -1.
    9000002    1    1    2    0    0  0.54521773074E-01 -0.35166346531E-02  0.20935865372E-01  0.93982301574E+00  0.93800000000E+00 0. -1.
         22    1    1    2    0    0 -0.19989074616E+00 -0.25576481128E-01  0.31129748535E+01  0.31194908087E+01  0.00000000000E+00 0. -1.
</event>
<event>
 5    1  0.2111786E+001  0.1561074E+01  0.7818608E-02  0.3396728E+00
         11   -1    0    0    0    0  0.00000000000E+00  0.00000000000E+00  0.39999999674E+01  0.40000000000E+01  0.51100000000E-03 0.  1.
    9000002   -1    0    0    0    0 -0.00000000000E+00 -0.00000000000E+00  0.00000000000E+00  0.93800000000E+00  0.93800000000E+00 0.  1.
         11    1    1    2    0    0 -0.17563385527E+00 -0.12313610219E+00  0.15773111080E+01  0.15918292443E+01  0.51100000000E-03 0.  1.
    9000002    1    1    2    0    0 -0.94778838266E-01  0.83915618440E-01  0.39456362254E-01  0.94732553208E+00  0.93800000000E+00 0.  1.
         22    1    1    2    0    0  0.27041269354E+00  0.39220483747E-01  0.23832324972E+01  0.23988452236E+01  0.00000000000E+00 0.  1.
</event>
<event>
 5    1  0.2111786E+001  0.1536706E+01  0.7818608E-02  0.3425062E+00
         11   -1    0    0    0    0  0.00000000000E+00  0.00000000000E+00  0.39999999674E+01  0.40000000000E+01  0.51100000000E-03 0. -1.
    9000002   -1    0    0    0    0 -0.00000000000E+00 -0.00000000000E+00  0.00000000000E+00  0.93800000000E+00  0.93800000000E+00 0. -1.
         11    1    1    2    0    0  0.13431728451E+00  0.13490637747E+00  0.22315957390E+01  0.22397010218E+01  0.51100000000E-03 0. -1.
    9000002    1    1    2    0    0  0.28565316316E+00 -0.22688142972E+00  0.14245328966E+00  0.10164693072E+01  0.93800000000E+00 0. -1.
         22    1    1    2    0    0 -0.41997044767E+00  0.91975052251E-01  0.16259509387E+01  0.16818296710E+01  0.00000000000E+00 0. -1.
</event>
<event>
 5    1  0.2111786E+001  0.1568031E+01  0.7818608E-02  0.3388809E+00
         11   -1    0    0    0    0  0.00000000000E+00  0.00000000000E+00  0.39999999674E+01  0.40000000000E+01  0.51100000000E-03 0.  1.
    9000002   -1    0    0    0    0 -0.00000000000E+00 -0.00000000000E+00  0.00000000000E+00  0.93800000000E+00  0.93800000000E+00 0.  1.
         11    1    1    2    0    0 -0.20352688081E+00 -0.46468406865E-01  0.18053147983E+01  0.18173453953E+01  0.51100000000E-03 0.  1.
    9000002    1    1    2    0    0 -0.92080785651E-02 -0.29783223585E-02  0.23327015027E-01  0.93833992175E+00  0.93800000000E+00 0.  1.
         22    1    1    2    0    0  0.21273495937E+00  0.49446729223E-01  0.21713581541E+01  0.21823146829E+01  0.00000000000E+00 0.  1.
</event>
<event>
 5    1  0.2111786E+001  0.1539128E+01  0.7818608E-02  0.3422203E+00
         11   -1    0    0    0    0  0.00000000000E+00  0.00000000000E+00  0.39999999674E+01  0.40000000000E+01  0.51100000000E-03 0.  1.
    9000002   -1    0    0    0    0 -0.00000000000E+00 -0.00000000000E+00  0.00000000000E+00  0.93800000000E+00  0.93800000000E+00 0. -1.
         11    1    1    2    0    0  0.23967040997E+00 -0.30530238290E+00  0.21299202315E+01  0.21649969755E+01  0.51100000000E-03 0.  1.
    9000002    1    1    2    0    0 -0.55735724981E-01  0.17963361948E+00  0.70039722892E-01  0.95923108325E+00  0.93800000000E+00 0. -1.
         22    1    1    2    0    0 -0.18393468499E+00  0.12566876342E+00  0.18000400130E+01  0.18137719412E+01  0.00000000000E+00 0.  1.
</event>
<event>
 5    1  0.2111786E+001  0.1557879E+01  0.7818608E-02  0.3400389E+00
         11   -1    0    0    0    0  0.00000000000E+00  0.00000000000E+00  0.39999999674E+01  0.40000000000E+01  0.51100000000E-03 0. -1.
    9000002   -1    0    0    0    0 -0.00000000000E+00 -0.00000000000E+00  0.00000000000E+00  0.93800000000E+00  0.93800000000E+00 0.  1.
         11    1    1    2    0    0  0.82425966724E-01  0.28967030519E+00  0.27904403496E+01  0.28066457795E+01  0.51100000000E-03 0. -1.
    9000002    1    1    2    0    0  0.80601130110E-01 -0.16159855390E+00  0.53359275231E-01  0.95671408846E+00  0.93800000000E+00 0.  1.
         22    1    1    2    0    0 -0.16302709683E+00 -0.12807175129E+00  0.11562003426E+01  0.11746401321E+01  0.00000000000E+00 0. -1.
</event>
<event>
 5    1  0.2111786E+001  0.1226116E+01  0.7818608E-02  0.3933842E+00
         11   -1    0    0    0    0  0.00000000000E+00  0.00000000000E+00  0.39999999674E+01  0.40000000000E+01  0.51100000000E-03 0.  1.
    9000002   -1    0    0    0    0 -0.00000000000E+00 -0.00000000000E+00  0.00000000000E+00  0.93800000000E+00  0.93800000000E+00 0.  1.
         11    1    1    2    0    0  0.12944727506E+00  0.77598686590E+00  0.89829688831E+00  0.11940895166E+01  0.51100000000E-03 0.  1.
    9000002    1    1    2    0    0 -0.98831209330E-01 -0.40272904828E+00  0.54782515177E+00  0.11627186638E+01  0.93800000000E+00 0.  1.
         22    1    1    2    0    0 -0.30616065731E-01 -0.37325781761E+00  0.25538779273E+01  0.25811918196E+01  0.00000000000E+00 0.  1.
</event>
<event>
 5    1  0.2111786E+001  0.1569428E+01  0.7818608E-02  0.3387228E+00
         11   -1    0    0    0    0  0.00000000000E+00  0.00000000000E+00  0.39999999674E+01  0.40000000000E+01  0.51100000000E-03 0. -1.
    9000002   -1    0    0    0    0 -0.00000000000E+00 -0.00000000000E+00  0.00000000000E+00  0.93800000000E+00  0.93800000000E+00 0.  1.
         11    1    1    2    0    0 -0.86817713866E-01  0.13102707053E+00  0.87119692470E+00  0.88526253246E+00  0.51100000000E-03 0. -1.
    9000002    1    1    2    0    0 -0.79172629648E-01  0.34665383913E-01  0.27289331416E-01  0.94236866551E+00  0.93800000000E+00 0.  1.
         22    1    1    2    0    0  0.16599034351E+00 -0.16569245444E+00  0.31015137112E+01  0.31103688020E+01  0.00000000000E+00 0. -1.
</event>
<event>
 5    1  0.2111786E+001  0.1449021E+01  0.7818608E-02  0.3535518E+00
         11   -1    0    0    0    0  0.00000000000E+00  0.00000000000E+00  0.39999999674E+01  0.40000000000E+01  0.51100000000E-03 0. -1.
    9000002   -1    0    0    0    0 -0.00000000000E+00 -0.00000000000E+00  0.00000000000E+00  0.93800000000E+00  0.93800000000E+00 0. -1.
         11    1    1    2    0    0  0.41959241786E+00 -0.16628215531E+00  0.11047082278E+01  0.11933516170E+01  0.51100000000E-03 0. -1.
    9000002    1    1    2    0    0 -0.19841514011E-01  0.22369398548E+00  0.15756366969E+00  0.97729370960E+00  0.93800000000E+00 0. -1.
         22    1    1    2    0    0 -0.39975090385E+00 -0.57411830166E-01  0.27377280699E+01  0.27673546734E+01  0.00000000000E+00 0. -1.
</event>
<event>
 5    1  0.2111786E+001  0.1545289E+01  0.7818608E-02  0.3414973E+00
         11   -1    0    0    0    0  0.00000000000E+00  0.00000000000E+00  0.39999999674E+01  0.40000000000E+01  0.51100000000E-03 0.  1.
    9000002   -1    0    0    0    0 -0.00000000000E+00 -0.00000000000E+00  0.00000000000E+00  0.93800000000E+00  0.93800000000E+00 0.  1.
         11    1    1    2    0    0  0.15437687007E+00 -0.20620482504E+00  0.63947328417E+00  0.68940480864E+00  0.51100000000E-03 0.  1.
    9000002    1    1    2    0    0 -0.36811962876E+00  0.92059337746E-01  0.14293355981E+00  0.10218908872E+01  0.93800000000E+00 0.  1.
         22    1    1    2    0    0  0.21374275869E+00  0.11414548729E+00  0.32175931234E+01  0.32267043042E+01  0.00000000000E+00 0.  1.
</event>
<event>
 5    1  0.2111786E+001  0.1548507E+01  0.7818608E-02  0.3411222E+00
         11   -1    0    0    0    0  0.00000000000E+00  0.00000000000E+00  0.39999999674E+01  0.40000000000E+01  0.51100000000E-03 0. -1.
    9000002   -1    0    0    0    0 -0.00000000000E+00 -0.00000000000E+00  0.00000000000E+00  0.93800000000E+00  0.93800000000E+00 0. -1.
         11    1    1    2    0    0  0.16865662632E+00  0.16120078445E+00  0.88643278817E+00  0.91662102287E+00  0.51100000000E-03 0. -1.
    9000002    1    1    2    0    0 -0.14053788268E-01 -0.20160488617E-01  0.38408285384E-01  0.93910763529E+00  0.93800000000E+00 0. -1.
         22    1    1    2    0    0 -0.15460283805E+00 -0.14104029584E+00  0.30751588938E+01  0.30822713418E+01  0.00000000000E+00 0. -1.
</event>
<event>
 5    1  0.2111786E+001  0.1570817E+01  0.7818608E-02  0.3385660E+00
         11   -1    0    0    0    0  0.00000000000E+00  0.00000000000E+00  0.39999999674E+01  0.40000000000E+01  0.51100000000E-03 0. -1.
    9000002   -1    0    0    0    0 -0.00000000000E+00 -0.00000000000E+00  0.00000000000E+00  0.93800000000E+00  0.93800000000E+00 0.  1.
         11    1    1    2    0    0 -0.28777915586E+00  0.36389650285E+00  0.15999259259E+01  0.16658333461E+01  0.51100000000E-03 0. -1.
    9000002    1    1    2    0    0  0.53565937285E+00 -0.38020507339E+00  0.33629829145E+00  0.11934937798E+01  0.93800000000E+00 0.  1.
         22    1    1    2    0    0 -0.24788021699E+00  0.16308570536E-01  0.20637757500E+01  0.20786728741E+01  0.00000000000E+00 0. -1.
</event>
<event>
 5    1  0.2111786E+001  0.1571264E+01  0.7818608E-02  0.3385155E+00
         11   -1    0    0    0    0  0.00000000000E+00  0.00000000000E+00  0.39999999674E+01  0.40000000000E+01  0.51100000000E-03 0.  1.
    9000002   -1    0    0    0    0 -0.00000000000E+00 -0.00000000000E+00  0.00000000000E+00  0.93800000000E+00  0.93800000000E+00 0. -1.
         11    1    1    2    0    0 -0.13472601343E+00  0.43249942431E-01  0.25855990413E+01  0.25894679607E+01  0.51100000000E-03 0.  1.
    9000002    1    1    2    0    0 -0.80214226155E-01 -0.14185039053E+00  0.38892820283E-01  0.95284442951E+00  0.93800000000E+00 0. -1.
         22    1    1    2    0    0  0.21494023958E+00  0.98600448104E-01  0.13755081058E+01  0.13956876098E+01  0.00000000000E+00 0. -1.
</event>
<event>
 5    1  0.2111786E+001  0.1567247E+01  0.7818608E-02  0.3389698E+00
         11   -1    0    0    0    0  0.00000000000E+00  0.00000000000E+00  0.39999999674E+01  0.40000000000E+01  0.51100000000E-03 0.  1.
    9000002   -1    0    0    0    0 -0.00000000000E+00 -0.00000000000E+00  0.00000000000E+00  0.93800000000E+00  0.93800000000E+00 0. -1.
         11    1    1    2    0    0  0.60803698246E-01  0.26947420595E+00  0.87162777591E+00  0.91435697529E+00  0.51100000000E-03 0.  1.
    9000002    1    1    2    0    0  0.17130723795E+00 -0.49569688975E+00  0.21960502859E+00  0.10968737142E+01  0.93800000000E+00 0. -1.
         22    1    1    2    0    0 -0.23211093619E+00  0.22622268379E+00  0.29087671629E+01  0.29267693105E+01  0.00000000000E+00 0.  1.
</event>
<event>
 5    1  0.2111786E+001  0.1554397E+01  0.7818608E-02  0.3404396E+00
         11   -1    0    0    0    0  0.00000000000E+00  0.00000000000E+00  0.39999999674E+01  0.40000000000E+01  0.51100000000E-03 0. -1.
    9000002   -1    0    0    0    0 -0.00000000000E+00 -0.00000000000E+00  0.00000000000E+00  0.93800000000E+00  0.93800000000E+00 0. -1.
         11    1    1    2    0    0 -0.14571427533E+00  0.80865207484E-02  0.26013178806E+01  0.26054084169E+01  0.51100000000E-03 0. -1.
    9000002    1    1    2    0    0 -0.14865371959E+00 -0.46451764581E-02  0.48787986241E-01  0.95096991204E+00  0.93800000000E+00 0. -1.
         22    1    1    2    0    0  0.29436799493E+00 -0.34413442903E-02  0.13498941005E+01  0.13816216710E+01  0.00000000000E+00 0.  1.
</event>
<event>
 5    1  0.2111786E+001  0.1208762E+01  0.7818608E-02  0.3972894E+00
         11   -1    0    0    0    0  0.00000000000E+00  0.00000000000E+00  0.39999999674E+01  0.40000000000E+01  0.51100000000E-03 0. -1.
    9000002   -1    0    0    0    0 -0.00000000000E+00 -0.00000000000E+00  0.00000000000E+00  0.93800000000E+00  0.93800000000E+00 0.  1.
         11    1    1    2    0    0  0.85309610449E-01  0.40920591096E+00  0.90412434857E-01  0.42767028970E+00  0.51100000000E-03 0. -1.
    9000002    1    1    2    0    0  0.37050712255E+00 -0.38384352846E+00  0.74099359509E+00  0.13090175286E+01  0.93800000000E+00 0.  1.
         22    1    1    2    0    0 -0.45581673300E+00 -0.25362382493E-01  0.31685939374E+01  0.32013121817E+01  0.00000000000E+00 0. -1.
</event>
<event>
 5    1  0.2111786E+001  0.1395443E+01  0.7818608E-02  0.3614205E+00
         11   -1    0    0    0    0  0.00000000000E+00  0.00000000000E+00  0.39999999674E+01  0.40000000000E+01  0.51100000000E-03 0.  1.
    9000002   -1    0    0    0    0 -0.00000000000E+00 -0.00000000000E+00  0.00000000000E+00  0.93800000000E+00  0.93800000000E+00 0. -1.
         11    1    1    2    0    0  0.54151009690E+00  0.24155952226E+00  0.24153226453E+01  0.24870399936E+01  0.51100000000E-03 0.  1.
    9000002    1    1    2    0    0 -0.21809317654E+00  0.14567207481E+00  0.22350278512E+00  0.99929098965E+00  0.93800000000E+00 0. -1.
         22    1    1    2    0    0 -0.32341692036E+00 -0.38723159707E+00  0.13611745370E+01  0.14516690168E+01  0.00000000000E+00 0. -1.
</event>
<event>
 5    1  0.2111786E+001  0.1524130E+01  0.7818608E-02  0.3440064E+00
         11   -1    0    0    0    0  0.00000000000E+00  0.00000000000E+00  0.39999999674E+01  0.40000000000E+01  0.51100000000E-03 0.  1.
    9000002   -1    0    0    0    0 -0.00000000000E+00 -0.00000000000E+00  0.00000000000E+00  0.93800000000E+00  0.93800000000E+00 0. -1.
         11    1    1    2    0    0 -0.18981723438E+00  0.50704546680E-01  0.33512285715E+01  0.33569829807E+01  0.51100000000E-03 0.  1.
    9000002    1    1    2    0    0 -0.54703559247E-01 -0.99139216843E-01  0.65928721535E-01  0.94710699503E+00  0.93800000000E+00 0. -1.
         22    1    1    2    0    0  0.24452079362E+00  0.48434670163E-01  0.58284267434E+00  0.63391002423E+00  0.00000000000E+00 0. -1.
</event>
<event>
 5    1  0.2111786E+001  0.1510464E+01  0.7818608E-02  0.3456670E+00
         11   -1    0    0    0    0  0.00000000000E+00  0.00000000000E+00  0.39999999674E+01  0.40000000000E+01  0.51100000000E-03 0.  1.
    9000002   -1    0    0    0    0 -0.00000000000E+00 -0.00000000000E+00  0.00000000000E+00  0.93800000000E+00  0.93800000000E+00 0. -1.
         11    1    1    2    0    0 -0.95819009564E-01 -0.14234333194E+00  0.19743832439E-01  0.17272228224E+00  0.51100000000E-03 0.  1.
    9000002    1    1    2    0    0  0.22082788828E+00 -0.32510738340E+00  0.30991725836E+00  0.10631803582E+01  0.93800000000E+00 0. -1.
         22    1    1    2    0    0 -0.12500887871E+00  0.46745071534E+00  0.36703388766E+01  0.37020973596E+01  0.00000000000E+00 0.  1.
</event>
<event>
 5    1  0.2111786E+001  0.1567572E+01  0.7818608E-02  0.3389330E+00
         11   -1    0    0    0    0  0.00000000000E+00  0.00000000000E+00  0.39999999674E+01  0.40000000000E+01  0.51100000000E-03 0.  1.
    9000002   -1    0    0    0    0 -0.00000000000E+00 -0.00000000000E+00  0.00000000000E+00  0.93800000000E+00  0.93800000000E+00 0.  1.
         11    1    1    2    0    0  0.25707562231E+00  0.13781996291E+00  0.14780035879E+01  0.15065115614E+01  0.51100000000E-03 0.  1.
    9000002    1    1    2    0    0 -0.36369681728E+00  0.92628296382E-01  0.12147296130E+00  0.10175731210E+01  0.93800000000E+00 0.  1.
         22    1    1    2    0    0  0.10662119497E+00 -0.23044825929E+00  0.24005234182E+01  0.24139153176E+01  0.00000000000E+00 0.  1.
</event>
<event>
 5    1  0.2111786E+001  0.1557531E+01  0.7818608E-02  0.3400788E+00
         11   -1    0    0    0    0  0.00000000000E+00  0.00000000000E+00  0.39999999674E+01  0.40000000000E+01  0.51100000000E-03 0.  1.
    9000002   -1    0    0    0    0 -0.00000000000E+00 -0.00000000000E+00  0.00000000000E+00  0.93800000000E+00  0.93800000000E+00 0. -1.
         11    1    1    2    0    0  0.50388101947E-01 -0.22401174586E-01  0.39898094096E-01  0.68065354433E-01  0.51100000000E-03 0.  1.
    9000002    1    1    2    0    0  0.17484201085E+00  0.14682117130E-01  0.52364896420E-01  0.95570464878E+00  0.93800000000E+00 0. -1.
         22    1    1    2    0    0 -0.22523011280E+00  0.77190574558E-02  0.39077369768E+01  0.39142299968E+01  0.00000000000E+00 0.  1.
</event>
<event>
 5    1  0.2111786E+001  0.1594172E+01  0.7818608E-02  0.3359714E+00
         11   -1    0    0    0    0  0.00000000000E+00  0.00000000000E+00  0.39999999674E+01  0.40000000000E+01  0.51100000000E-03 0. -1.
    9000002   -1    0    0    0    0 -0.00000000000E+00 -0.00000000000E+00  0.00000000000E+00  0.93800000000E+00  0.93800000000E+00 0. -1.
         11    1    1    2    0    0  0.23341163936E-01  0.94650442686E-01  0.11960514080E+01  0.12000178115E+01  0.51100000000E-03 0. -1.
    9000002    1    1    2    0    0 -0.23567252301E+00 -0.92918511394E-01  0.46867283995E-01  0.97273631071E+00  0.93800000000E+00 0. -1.
         22    1    1    2    0    0  0.21233135908E+00 -0.17319312918E-02  0.27570812753E+01  0.27652458777E+01  0.00000000000E+00 0. -1.
</event>
<event>
 5    1  0.2111786E+001  0.1526235E+01  0.7818608E-02  0.3437534E+00
         11   -1    0    0    0    0  0.00000000000E+00  0.00000000000E+00  0.39999999674E+01  0.40000000000E+01  0.51100000000E-03 0. -1.
    9000002   -1    0    0    0    0 -0.00000000000E+00 -0.00000000000E+00  0.00000000000E+00  0.93800000000E+00  0.93800000000E+00 0. -1.
         11    1    1    2    0    0  0.36614598893E+00  0.59543291682E-01  0.17734780502E+01  0.18118589748E+01  0.51100000000E-03 0. -1.
    9000002    1    1    2    0    0 -0.11386976177E+00  0.44876800824E-01  0.65800302830E-01  0.94823727503E+00  0.93800000000E+00 0. -1.
         22    1    1    2    0    0 -0.25227622716E+00 -0.10442009251E+00  0.21607216143E+01  0.21779037502E+01  0.00000000000E+00 0. -1.
</event>
<event>
 5    1  0.2111786E+001  0.1561164E+01  0.7818608E-02  0.3396624E+00
         11   -1    0    0    0    0  0.00000000000E+00  0.00000000000E+00  0.39999999674E+01  0.40000000000E+01  0.51100000000E-03 0. -1.
    9000002   -1    0    0    0    0 -0.00000000000E+00 -0.00000000000E+00  0.00000000000E+00  0.93800000000E+00  0.93800000000E+00 0.  1.
         11    1    1    2    0    0 -0.20709492052E+00 -0.59028953604E-01  0.14114877292E+01  0.14278202248E+01  0.51100000000E-03 0. -1.
    9000002    1    1    2    0    0  0.29820773185E-01 -0.14938175782E+00  0.44323964493E-01  0.95132160803E+00  0.93800000000E+00 0.  1.
         22    1    1    2    0    0  0.17727414734E+00  0.20841071142E+00  0.25441882736E+01  0.25588581672E+01  0.00000000000E+00 0. -1.
</event>
<event>
 5    1  0.2111786E+001  0.1462119E+01  0.7818608E-02  0.3518106E+00
         11   -1    0    0    0    0  0.00000000000E+00  0.00000000000E+00  0.39999999674E+01  0.40000000000E+01  0.51100000000E-03 0. -1.
    9000002   -1    0    0    0    0 -0.00000000000E+00 -0.00000000000E+00  0.00000000000E+00  0.93800000000E+00  0.93800000000E+00 0.  1.
         11    1    1    2    0    0 -0.77328319682E-01 -0.42318528936E+00  0.95049543941E+00  0.10433155321E+01  0.51100000000E-03 0. -1.
    9000002    1    1    2    0    0 -0.41739753766E-01  0.20714069311E-01  0.13346307065E+00  0.94859246831E+00  0.93800000000E+00 0.  1.
         22    1    1    2    0    0  0.11906807345E+00  0.40247122005E+00  0.29160414573E+01  0.29460919995E+01  0.00000000000E+00 0.  1.
</event>
<event>
 5    1  0.2111786E+001  0.1596956E+01  0.7818608E-02  0.3356674E+00
         11   -1    0    0    0    0  0.00000000000E+00  0.00000000000E+00  0.39999999674E+01  0.40000000000E+01  0.51100000000E-03 0. -1.
    9000002   -1    0    0    0    0 -0.00000000000E+00 -0.00000000000E+00  0.00000000000E+00  0.93800000000E+00  0.93800000000E+00 0. -1.
         11    1    1    2    0    0  0.10329297798E+00 -0.69345515284E-01  0.12270329150E+01  0.12333240756E+01  0.51100000000E-03 0. -1.
    9000002    1    1    2    0    0 -0.36092900236E+00  0.38087497647E-01  0.90660415349E-01  0.10098434102E+01  0.93800000000E+00 0. -1.
         22    1    1    2    0    0  0.25763602437E+00  0.31258017636E-01  0.26823066370E+01  0.26948325142E+01  0.00000000000E+00 0. -1.
</event>
<event>
 5    1  0.2111786E+001  0.1503780E+01  0.7818608E-02  0.3464910E+00
         11   -1    0    0    0    0  0.00000000000E+00  0.00000000000E+00  0.39999999674E+01  0.40000000000E+01  0.51100000000E-03 0. -1.
    9000002   -1    0    0    0    0 -0.00000000000E+00 -0.00000000000E+00  0.00000000000E+00  0.93800000000E+00  0.93800000000E+00 0. -1.
         11    1    1    2    0    0  0.17880096864E+00 -0.67365006673E-01  0.27590581571E+00  0.33560707795E+00  0.51100000000E-03 0. -1.
    9000002    1    1    2    0    0  0.68404165659E-01 -0.11008722776E+00  0.85133776736E-01  0.95073134351E+00  0.93800000000E+00 0. -1.
         22    1    1    2    0    0 -0.24720513430E+00  0.17745223444E+00  0.36389603749E+01  0.36516615785E+01  0.00000000000E+00 0. -1.
</event>
<event>
 5    1  0.2111786E+001  0.1572189E+01  0.7818608E-02  0.3384113E+00
         11   -1    0    0    0    0  0.00000000000E+00  0.00000000000E+00  0.39999999674E+01  0.40000000000E+01  0.51100000000E-03 0.  1.
    9000002   -1    0    0    0    0 -0.00000000000E+00 -0.00000000000E+00  0.00000000000E+00  0.93800000000E+00  0.93800000000E+00 0. -1.
         11    1    1    2    0    0  0.17420583498E+00  0.50621085483E-01  0.16129754481E+01  0.16231451644E+01  0.51100000000E-03 0.  1.
    9000002    1    1    2    0    0  0.27435450224E-01  0.31688577035E-01  0.21352827905E-01  0.93917879720E+00  0.93800000000E+00 0. -1.
         22    1    1    2    0    0 -0.20164128520E+00 -0.82309662518E-01  0.23656716913E+01  0.23756760384E+01  0.00000000000E+00 0.  1.
</event>
<event>
 5    1  0.2111786E+001  0.1512850E+01  0.7818608E-02  0.3453747E+00
         11   -1    0    0    0    0  0.00000000000E+00  0.00000000000E+00  0.39999999674E+01  0.40000000000E+01  0.51100000000E-03 0. -1.
    9000002   -1    0    0    0    0 -0.00000000000E+00 -0.00000000000E+00  0.00000000000E+00  0.93800000000E+00  0.93800000000E+00 0. -1.
         11    1    1    2    0    0  0.56761511123E+00 -0.26898689082E+00  0.26366326992E+01  0.27104193612E+01  0.51100000000E-03 0. -1.
    9000002    1    1    2    0    0 -0.42468404201E+00  0.12746865438E+00  0.21223182016E+00  0.10590047870E+01  0.93800000000E+00 0. -1.
         22    1    1    2    0    0 -0.14293106922E+00  0.14151823644E+00  0.11511354480E+01  0.11685758518E+01  0.00000000000E+00 0.  1.
</event>
<event>
 5    1  0.2111786E+001  0.1592513E+01  0.7818608E-02  0.3361530E+00
         11   -1    0    0    0    0  0.00000000000E+00  0.00000000000E+00  0.39999999674E+01  0.40000000000E+01  0.51100000000E-03 0.  1.
    9000002   -1    0    0    0    0 -0.00000000000E+00 -0.00000000000E+00  0.00000000000E+00  0.93800000000E+00  0.93800000000E+00 0.  1.
         11    1    1    2    0    0 -0.31354262958E+00 -0.16046210102E+00  0.22121064368E+01  0.22399714764E+01  0.51100000000E-03 0.  1.
    9000002    1    1    2    0    0  0.38704380703E+00  0.35822176629E+00  0.19794628963E+00  0.10941446321E+01  0.93800000000E+00 0.  1.
         22    1    1    2    0    0 -0.73501177454E-01 -0.19775966527E+00  0.15899472409E+01  0.16038838914E+01  0.00000000000E+00 0.  1.
</event>
<event>
 5    1  0.2111786E+001  0.1549988E+01  0.7818608E-02  0.3409500E+00
         11   -1    0    0    0    0  0.00000000000E+00  0.00000000000E+00  0.39999999674E+01  0.40000000000E+01  0.51100000000E-03 0. -1.
    9000002   -1    0    0    0    0 -0.00000000000E+00 -0.00000000000E+00  0.00000000000E+00  0.93800000000E+00  0.93800000000E+00 0.  1.
         11    1    1    2    0    0  0.45743648059E-01 -0.13554917175E+00  0.29809840217E+00  0.33064932753E+00  0.51100000000E-03 0. -1.
    9000002    1    1    2    0    0 -0.16485473810E+00 -0.72159642621E-01  0.59361215808E-01  0.95694924246E+00  0.93800000000E+00 0.  1.
         22    1    1    2    0    0  0.11911109004E+00  0.20770881437E+00  0.36425403494E+01  0.36504014300E+01  0.00000000000E+00 0. -1.
</event>
<event>
 5    1  0.2111786E+001  0.1569441E+01  0.7818608E-02  0.3387214E+00
         11   -1    0    0    0    0  0.00000000000E+00  0.00000000000E+00  0.39999999674E+01  0.40000000000E+01  0.51100000000E-03 0.  1.
    9000002   -1    0    0    0    0 -0.00000000000E+00 -0.00000000000E+00  0.00000000000E+00  0.93800000000E+00  0.93800000000E+00 0. -1.
         11    1    1    2    0    0 -0.98131879013E-01  0.20927650453E+00  0.23072417643E+01  0.23187909222E+01  0.51100000000E-03 0.  1.
    9000002    1    1    2    0    0  0.15989161067E+00 -0.50837373779E-02  0.39625013445E-01  0.95236826556E+00  0.93800000000E+00 0. -1.
         22    1    1    2    0    0 -0.61759731653E-01 -0.20419276715E+00  0.16531331897E+01  0.16668408122E+01  0.00000000000E+00 0.  1.
</event>
<event>
 5    1  0.2111786E+001  0.1591214E+01  0.7818608E-02  0.3362955E+00
         11   -1    0    0    0    0  0.00000000000E+00  0.00000000000E+00  0.39999999674E+01  0.40000000000E+01  0.51100000000E-03 0. -1.
    9000002   -1    0    0    0    0 -0.00000000000E+00 -0.00000000000E+00  0.00000000000E+00  0.93800000000E+00  0.93800000000E+00 0.  1.
         11    1    1    2    0    0 -0.53395862512E-01 -0.91596652694E-02  0.68995614078E+00  0.69208002061E+00  0.51100000000E-03 0. -1.
    9000002    1    1    2    0    0 -0.15990130335E+00 -0.68774105087E-01  0.26344259919E-01  0.95437745383E+00  0.93800000000E+00 0.  1.
         22    1    1    2    0    0  0.21329716586E+00  0.77933770356E-01  0.32836995667E+01  0.32915425256E+01  0.00000000000E+00 0. -1.
</event>
<event>
 5    1  0.2111786E+001  0.1493524E+01  0.7818608E-02  0.3477709E+00
         11   -1    0    0    0    0  0.00000000000E+00  0.00000000000E+00  0.39999999674E+01  0.40000000000E+01  0.51100000000E-03 0.  1.
    9000002   -1    0    0    0    0 -0.00000000000E+00 -0.00000000000E+00  0.00000000000E+00  0.93800000000E+00  0.93800000000E+00 0.  1.
         11    1    1    2    0    0 -0.22753785550E+00  0.32780270886E+00  0.26886935238E+01  0.27181429722E+01  0.51100000000E-03 0.  1.
    9000002    1    1    2    0    0  0.75913896298E-01 -0.12147936219E-01  0.85510072226E-01  0.94502193861E+00  0.93800000000E+00 0.  1.
         22    1    1    2    0    0  0.15162395920E+00 -0.31565477264E+00  0.12257963714E+01  0.12748350892E+01  0.00000000000E+00 0.  1.
</event>
<event>
 5    1  0.2111786E+001  0.1565075E+01  0.7818608E-02  0.3392164E+00
         11   -1    0    0    0    0  0.00000000000E+00  0.00000000000E+00  0.39999999674E+01  0.40000000000E+01  0.51100000000E-03 0.  1.
    9000002   -1    0    0    0    0 -0.00000000000E+00 -0.00000000000E+00  0.00000000000E+00  0.93800000000E+00  0.93800000000E+00 0. -1.
         11    1    1    2    0    0  0.71162495660E-01 -0.22129381907E+00  0.14055179103E+01  0.14246107933E+01  0.51100000000E-03 0.  1.
    9000002    1    1    2    0    0 -0.14238524870E+00  0.22272838870E-01  0.39657482629E-01  0.94983490899E+00  0.93800000000E+00 0. -1.
         22    1    1    2    0    0  0.71222753042E-01  0.19902098020E+00  0.25548245744E+01  0.25635542977E+01  0.00000000000E+00 0.  1.
</event>
<event>
 5    1  0.2111786E+001  0.1590037E+01  0.7818608E-02  0.3364248E+00
         11   -1    0    0    0    0  0.00000000000E+00  0.00000000000E+00  0.39999999674E+01  0.40000000000E+01  0.51100000000E-03 0.  1.
    9000002   -1    0    0    0    0 -0.00000000000E+00 -0.00000000000E+00  0.00000000000E+00  0.93800000000E+00  0.93800000000E+00 0. -1.
         11    1    1    2    0    0 -0.57462868108E-01  0.37389603621E-03  0.14068161664E+01  0.14079893849E+01  0.51100000000E-03 0.  1.
    9000002    1    1    2    0    0 -0.13758486254E+00 -0.11040310239E+00  0.27776540430E-01  0.95484761906E+00  0.93800000000E+00 0. -1.
         22    1    1    2    0    0  0.19504773065E+00  0.11002920635E+00  0.25654072606E+01  0.25751629960E+01  0.00000000000E+00 0. -1.
</event>
<event>
 5    1  0.2111786E+001  0.1558778E+01  0.7818608E-02  0.3399356E+00
         11   -1    0    0    0    0  0.00000000000E+00  0.00000000000E+00  0.39999999674E+01  0.40000000000E+01  0.51100000000E-03 0.  1.
    9000002   -1    0    0    0    0 -0.00000000000E+00 -0.00000000000E+00  0.00000000000E+00  0.93800000000E+00  0.93800000000E+00 0.  1.
         11    1    1    2    0    0 -0.16942880485E+00  0.12664713223E+00  0.28932741622E+01  0.29009965968E+01  0.51100000000E-03 0.  1.
    9000002    1    1    2    0    0 -0.42543980055E-01 -0.60920391050E-01  0.33990631004E-01  0.94155225414E+00  0.93800000000E+00 0.  1.
         22    1    1    2    0    0  0.21197278491E+00 -0.65726741179E-01  0.10727351742E+01  0.10954511490E+01  0.00000000000E+00 0.  1.
</event>
<event>
 5    1  0.2111786E+001  0.1487030E+01  0.7818608E-02  0.3485911E+00
         11   -1    0    0    0    0  0.00000000000E+00  0.00000000000E+00  0.39999999674E+01  0.40000000000E+01  0.51100000000E-03 0. -1.
    9000002   -1    0    0    0    0 -0.00000000000E+00 -0.00000000000E+00  0.00000000000E+00  0.93800000000E+00  0.93800000000E+00 0.  1.
         11    1    1    2    0    0  0.60997027617E-02 -0.38110731228E+00  0.76020071997E+00  0.85040307244E+00  0.51100000000E-03 0. -1.
    9000002    1    1    2    0    0 -0.21583125339E+00  0.26775221959E+00  0.17588675765E+00  0.10144232512E+01  0.93800000000E+00 0.  1.
         22    1    1    2    0    0  0.20973155063E+00  0.11335509269E+00  0.30639124897E+01  0.30731736764E+01  0.00000000000E+00 0. -1.
</event>
<event>
 5    1  0.2111786E+001  0.1453348E+01  0.7818608E-02  0.3529729E+00
         11   -1    0    0    0    0  0.00000000000E+00  0.00000000000E+00  0.39999999674E+01  0.40000000000E+01  0.51100000000E-03 0.  1.
    9000002   -1    0    0    0    0 -0.00000000000E+00 -0.00000000000E+00  0.00000000000E+00  0.93800000000E+00  0.93800000000E+00 0.  1.
         11    1    1    2    0    0 -0.63924096556E-01  0.51486033983E+00  0.16213893493E+01  0.17023722104E+01  0.51100000000E-03 0.  1.
    9000002    1    1    2    0    0 -0.19220667907E+00 -0.19529517607E+00  0.17310184050E+00  0.99241718066E+00  0.93800000000E+00 0.  1.
         22    1    1    2    0    0  0.25613077563E+00 -0.31956516375E+00  0.22055087776E+01  0.22432106089E+01  0.00000000000E+00 0.  1.
</event>
<event>
 5    1  0.2111786E+001  0.1539932E+01  0.7818608E-02  0.3421256E+00
         11   -1    0    0    0    0  0.00000000000E+00  0.00000000000E+00  0.39999999674E+01  0.40000000000E+01  0.51100000000E-03 0.  1.
    9000002   -1    0    0    0    0 -0.00000000000E+00 -0.00000000000E+00  0.00000000000E+00  0.93800000000E+00  0.93800000000E+00 0.  1.
         11    1    1    2    0    0  0.16543621672E+00  0.25605131677E+00  0.20163564663E+01  0.20392707223E+01  0.51100000000E-03 0.  1.
    9000002    1    1    2    0    0  0.13198659772E-01 -0.34672255785E-01  0.45514701896E-01  0.93983613361E+00  0.93800000000E+00 0.  1.
         22    1    1    2    0    0 -0.17863487649E+00 -0.22137906098E+00  0.19381287992E+01  0.19588931441E+01  0.00000000000E+00 0.  1.
</event>
<event>
 5    1  0.2111786E+001  0.1550865E+01  0.7818608E-02  0.3408482E+00
         11   -1    0    0    0    0  0.00000000000E+00  0.00000000000E+00  0.39999999674E+01  0.40000000000E+01  0.51100000000E-03 0.  1.
    9000002   -1    0    0    0    0 -0.00000000000E+00 -0.00000000000E+00  0.00000000000E+00  0.93800000000E+00  0.93800000000E+00 0. -1.
         11    1    1    2    0    0  0.21350918833E+00 -0.98040354368E-02  0.81166125431E+00  0.83933101068E+00  0.51100000000E-03 0.  1.
    9000002    1    1    2    0    0 -0.12965131306E-01  0.28313844147E+00  0.92411223796E-01  0.98423539153E+00  0.93800000000E+00 0. -1.
         22    1    1    2    0    0 -0.20054405702E+00 -0.27333440603E+00  0.30959274893E+01  0.31144335978E+01  0.00000000000E+00 0.  1.
</event>
<event>
 5    1  0.2111786E+001  0.1580596E+01  0.7818608E-02  0.3374697E+00
         11   -1    0    0    0    0  0.00000000000E+00  0.00000000000E+00  0.39999999674E+01  0.40000000000E+01  0.51100000000E-03 0.  1.
    9000002   -1    0    0    0    0 -0.00000000000E+00 -0.00000000000E+00  0.00000000000E+00  0.93800000000E+00  0.93800000000E+00 0.  1.
         11    1    1    2    0    0  0.83009309109E-01 -0.33681141107E-01  0.43698198901E+00  0.44607004440E+00  0.51100000000E-03 0.  1.
    9000002    1    1    2    0    0  0.12115033185E+00 -0.56097970974E-01  0.25920576748E-01  0.94780813541E+00  0.93800000000E+00 0.  1.
         22    1    1    2    0    0 -0.20415964096E+00  0.89779112082E-01  0.35370974016E+01  0.35441218202E+01  0.00000000000E+00 0.  1.
</event>
<event>
 5    1  0.2111786E+001  0.1599497E+01  0.7818608E-02  0.3353910E+00
         11   -1    0    0    0    0  0.00000000000E+00  0.00000000000E+00  0.39999999674E+01  0.40000000000E+01  0.51100000000E-03 0.  1.
    9000002   -1    0    0    0    0 -0.00000000000E+00 -0.00000000000E+00  0.00000000000E+00  0.93800000000E+00  0.93800000000E+00 0.  1.
         11    1    1    2    0    0  0.18284604139E-01 -0.15990830084E+00  0.16452577487E+01  0.16531117059E+01  0.51100000000E-03 0.  1.
    9000002    1    1    2    0    0 -0.61862640380E-02  0.37261648393E+00  0.93510257776E-01  0.10136416932E+01  0.93800000000E+00 0.  1.
         22    1    1    2    0    0 -0.12098340101E-01 -0.21270818309E+00  0.22612319609E+01  0.22712466009E+01  0.00000000000E+00 0.  1.
</event>
<event>
 5    1  0.2111786E+001  0.1520156E+01  0.7818608E-02  0.3444860E+00
         11   -1    0    0    0    0  0.00000000000E+00  0.00000000000E+00  0.39999999674E+01  0.40000000000E+01  0.51100000000E-03 0. -1.
    9000002   -1    0    0    0    0 -0.00000000000E+00 -0.00000000000E+00  0.00000000000E+00  0.93800000000E+00  0.93800000000E+00 0. -1.
         11    1    1    2    0    0 -0.27672870286E+00 -0.31373837710E+00  0.19948862218E+01  0.20382791378E+01  0.51100000000E-03 0. -1.
    9000002    1    1    2    0    0  0.15895964759E+00  0.71593139506E-01  0.81705181424E-01  0.95755599516E+00  0.93800000000E+00 0. -1.
         22    1    1    2    0    0  0.11776905527E+00  0.24214523759E+00  0.19234085641E+01  0.19421648671E+01  0.00000000000E+00 0. -1.
</event>
<event>
 5    1  0.2111786E+001  0.1491803E+01  0.7818608E-02  0.3479874E+00
         11   -1    0    0    0    0  0.00000000000E+00  0.00000000000E+00  0.39999999674E+01  0.40000000000E+01  0.51100000000E-03 0.  1.
    9000002   -1    0    0    0    0 -0.00000000000E+00 -0.00000000000E+00  0.00000000000E+00  0.93800000000E+00  0.93800000000E+00 0. -1.
         11    1    1    2    0    0  0.14707794605E+00  0.12385770821E+00  0.20949531395E+01  0.21037589149E+01  0.51100000000E-03 0.  1.
    9000002    1    1    2    0    0  0.32330403071E+00  0.18659498739E+00  0.18779134599E+00  0.10268655098E+01  0.93800000000E+00 0. -1.
         22    1    1    2    0    0 -0.47038197675E+00 -0.31045269560E+00  0.17172554819E+01  0.18073755753E+01  0.00000000000E+00 0. -1.
</event>
<event>
 5    1  0.2111786E+001  0.1578148E+01  0.7818608E-02  0.3377428E+00
         11   -1    0    0    0    0  0.00000000000E+00  0.00000000000E+00  0.39999999674E+01  0.40000000000E+01  0.51100000000E-03 0. -1.
    9000002   -1    0    0    0    0 -0.00000000000E+00 -0.00000000000E+00  0.00000000000E+00  0.93800000000E+00  0.93800000000E+00 0.  1.
         11    1    1    2    0    0 -0.19245207276E+00  0.43458806398E-01  0.59004912989E+00  0.62216131748E+00  0.51100000000E-03 0. -1.
    9000002    1    1    2    0    0  0.42046848111E+00 -0.14165274640E+00  0.15232200695E+00  0.10487636712E+01  0.93800000000E+00 0.  1.
         22    1    1    2    0    0 -0.22801640835E+00  0.98193940000E-01  0.32576288305E+01  0.32670750113E+01  0.00000000000E+00 0. -1.
</event>
<event>
 5    1  0.2111786E+001  0.1503264E+01  0.7818608E-02  0.3465549E+00
         11   -1    0    0    0    0  0.00000000000E+00  0.00000000000E+00  0.39999999674E+01  0.40000000000E+01  0.51100000000E-03 0.  1.
    9000002   -1    0    0    0    0 -0.00000000000E+00 -0.00000000000E+00  0.00000000000E+00  0.93800000000E+00  0.93800000000E+00 0.  1.
         11    1    1    2    0    0 -0.12101327898E+00 -0.40263185736E+00  0.11398483106E+01  0.12149119550E+01  0.51100000000E-03 0.  1.
    9000002    1    1    2    0    0  0.21675456888E+00  0.21249397489E+00  0.14135833500E+00  0.99597309771E+00  0.93800000000E+00 0.  1.
         22    1    1    2    0    0 -0.95741289892E-01  0.19013788247E+00  0.27187933218E+01  0.27271149473E+01  0.00000000000E+00 0.  1.
</event>
<event>
 5    1  0.2111786E+001  0.1582087E+01  0.7818608E-02  0.3373038E+00
         11   -1    0    0    0    0  0.00000000000E+00  0.00000000000E+00  0.39999999674E+01  0.40000000000E+01  0.51100000000E-03 0.  1.
    9000002   -1    0    0    0    0 -0.00000000000E+00 -0.00000000000E+00  0.00000000000E+00  0.93800000000E+00  0.93800000000E+00 0.  1.
         11    1    1    2    0    0 -0.41690131744E-01 -0.25958642467E+00  0.26253038464E+01  0.26384358484E+01  0.51100000000E-03 0.  1.
    9000002    1    1    2    0    0  0.27303409698E+00  0.32253916386E+00  0.13584582726E+00  0.10377269482E+01  0.93800000000E+00 0.  1.
         22    1    1    2    0    0 -0.23134396523E+00 -0.62952739180E-01  0.12388502937E+01  0.12618372033E+01  0.00000000000E+00 0.  1.
</event>
<event>
 5    1  0.2111786E+001  0.1496490E+01  0.7818608E-02  0.3473988E+00
         11   -1    0    0    0    0  0.00000000000E+00  0.00000000000E+00  0.39999999674E+01  0.40000000000E+01  0.51100000000E-03 0. -1.
    9000002   -1    0    0    0    0 -0.00000000000E+00 -0.00000000000E+00  0.00000000000E+00  0.93800000000E+00  0.93800000000E+00 0.  1.
         11    1    1    2    0    0 -0.34162630896E+00  0.14780028643E+00  0.20766159539E+01  0.21097126678E+01  0.51100000000E-03 0. -1.
    9000002    1    1    2    0    0 -0.61864331064E-01 -0.10323818406E+00  0.89391534754E-01  0.94990534507E+00  0.93800000000E+00 0.  1.
         22    1    1    2    0    0  0.40349064002E+00 -0.44562102368E-01  0.18339924787E+01  0.18783819871E+01  0.00000000000E+00 0. -1.
</event>
<event>
 5    1  0.2111786E+001  0.1584592E+01  0.7818608E-02  0.3370259E+00
         11   -1    0    0    0    0  0.00000000000E+00  0.00000000000E+00  0.39999999674E+01  0.40000000000E+01  0.51100000000E-03 0. -1.
    9000002   -1    0    0    0    0 -0.00000000000E+00 -0.00000000000E+00  0.00000000000E+00  0.93800000000E+00  0.93800000000E+00 0. -1.
         11    1    1    2    0    0  0.21167579963E-01  0.10521228495E+00  0.13469593695E+01  0.13512281434E+01  0.51100000000E-03 0. -1.
    9000002    1    1    2    0    0 -0.29095906406E-02  0.98032691411E-01  0.17431263122E-01  0.94327446867E+00  0.93800000000E+00 0. -1.
         22    1    1    2    0    0 -0.18257989323E-01 -0.20324497636E+00  0.26356093347E+01  0.26434973879E+01  0.00000000000E+00 0. -1.
</event>
<event>
 5    1  0.2111786E+001  0.1541734E+01  0.7818608E-02  0.3419137E+00
         11   -1    0    0    0    0  0.00000000000E+00  0.00000000000E+00  0.39999999674E+01  0.40000000000E+01  0.51100000000E-03 0. -1.
    9000002   -1    0    0    0    0 -0.00000000000E+00 -0.00000000000E+00  0.00000000000E+00  0.93800000000E+00  0.93800000000E+00 0. -1.
         11    1    1    2    0    0  0.11283753653E+00  0.25568734204E+00  0.26472778111E+01  0.26619895561E+01  0.51100000000E-03 0. -1.
    9000002    1    1    2    0    0  0.12223603834E-01 -0.16564992389E-01  0.43464145024E-01  0.93923210516E+00  0.93800000000E+00 0. -1.
         22    1    1    2    0    0 -0.12506114036E+00 -0.23912234965E+00  0.13092580112E+01  0.13367783387E+01  0.00000000000E+00 0. -1.
</event>
<event>
 5    1  0.2111786E+001  0.1587112E+01  0.7818608E-02  0.3367472E+00
         11   -1    0    0    0    0  0.00000000000E+00  0.00000000000E+00  0.39999999674E+01  0.40000000000E+01  0.51100000000E-03 0. -1.
    9000002   -1    0    0    0    0 -0.00000000000E+00 -0.00000000000E+00  0.00000000000E+00  0.93800000000E+00  0.93800000000E+00 0. -1.
         11    1    1    2    0    0 -0.19701075473E+00  0.10393912771E+00  0.15197153992E+01  0.15359530382E+01  0.51100000000E-03 0. -1.
    9000002    1    1    2    0    0  0.36743466525E+00  0.41765526627E-01  0.10221682002E+00  0.10134322231E+01  0.93800000000E+00 0. -1.
         22    1    1    2    0    0 -0.17042391051E+00 -0.14570465434E+00  0.23780677481E+01  0.23886147387E+01  0.00000000000E+00 0.  1.
</event>
<event>
 5    1  0.2111786E+001  0.1516068E+01  0.7818608E-02  0.3449821E+00
         11   -1    0    0    0    0  0.00000000000E+00  0.00000000000E+00  0.39999999674E+01  0.40000000000E+01  0.51100000000E-03 0. -1.
    9000002   -1    0    0    0    0 -0.00000000000E+00 -0.00000000000E+00  0.00000000000E+00  0.93800000000E+00  0.93800000000E+00 0. -1.
         11    1    1    2    0    0  0.12559267925E+00  0.45024451034E+00  0.15819864015E+01  0.16495983984E+01  0.51100000000E-03 0. -1.
    9000002    1    1    2    0    0  0.71490026133E-01 -0.34726758076E+00  0.15522562405E+00  0.10147140439E+01  0.93800000000E+00 0. -1.
         22    1    1    2    0    0 -0.19708270539E+00 -0.10297692958E+00  0.22627879418E+01  0.22736875577E+01  0.00000000000E+00 0. -1.
</event>
<event>
 5    1  0.2111786E+001  0.1506364E+01  0.7818608E-02  0.3461716E+00
         11   -1    0    0    0    0  0.00000000000E+00  0.00000000000E+00  0.39999999674E+01  0.40000000000E+01  0.51100000000E-03 0.  1.
    9000002   -1    0    0    0    0 -0.00000000000E+00 -0.00000000000E+00  0.00000000000E+00  0.93800000000E+00  0.93800000000E+00 0. -1.
         11    1    1    2    0    0 -0.53770695261E+00  0.10786520641E+00  0.31440400054E+01  0.31915124137E+01  0.51100000000E-03 0.  1.
    9000002    1    1    2    0    0  0.31769740074E+00 -0.54910395950E-01  0.14750635572E+00  0.10027706193E+01  0.93800000000E+00 0. -1.
         22    1    1    2    0    0  0.22000955187E+00 -0.52954810462E-01  0.70845360621E+00  0.74371696701E+00  0.00000000000E+00 0.  1.
</event>
<event>
 5    1  0.2126659E+001  0.1565247E+01  0.7818608E-02  0.3391969E+00
         11   -1    0    0    0    0  0.00000000000E+00  0.00000000000E+00  0.39999999674E+01  0.40000000000E+01  0.51100000000E-03 0. -1.
    9000002   -1    0    0    0    0 -0.00000000000E+00 -0.00000000000E+00  0.00000000000E+00  0.93800000000E+00  0.93800000000E+00 0.  1.
         11    1    1    2    0    0 -0.17729446227E-01 -0.20476474589E+00  0.25874344380E+01  0.25955847446E+01  0.51100000000E-03 0. -1.
    9000002    1    1    2    0    0 -0.27383594679E-01 -0.80342971079E-02  0.25899953683E-01  0.93879136063E+00  0.93800000000E+00 0.  1.
         22    1    1    2    0    0  0.45113040906E-01  0.21279904300E+00  0.13866655757E+01  0.14036238948E+01  0.00000000000E+00 0. -1.
</event>
<event>
 5    1  0.2111786E+001  0.1551026E+01  0.7818608E-02  0.3408296E+00
         11   -1    0    0    0    0  0.00000000000E+00  0.00000000000E+00  0.39999999674E+01  0.40000000000E+01  0.51100000000E-03 0. -1.
    9000002   -1    0    0    0    0 -0.00000000000E+00 -0.00000000000E+00  0.00000000000E+00  0.93800000000E+00  0.93800000000E+00 0.  1.
         11    1    1    2    0    0 -0.18335440352E+00 -0.12549662781E+00  0.61856013009E+00  0.65725576189E+00  0.51100000000E-03 0. -1.
    9000002    1    1    2    0    0  0.37946320653E-01  0.26361433434E+00  0.85621262223E-01  0.97882962821E+00  0.93800000000E+00 0.  1.
         22    1    1    2    0    0  0.14540808287E+00 -0.13811770653E+00  0.32958185750E+01  0.33019146099E+01  0.00000000000E+00 0. -1.
</event>
<event>
 5    1  0.2111786E+001  0.1370219E+01  0.7818608E-02  0.3655831E+00
         11   -1    0    0    0    0  0.00000000000E+00  0.00000000000E+00  0.39999999674E+01  0.40000000000E+01  0.51100000000E-03 0. -1.
    9000002   -1    0    0    0    0 -0.00000000000E+00 -0.00000000000E+00  0.00000000000E+00  0.93800000000E+00  0.93800000000E+00 0.  1.
         11    1    1    2    0    0  0.75593501034E+00  0.75826853057E-01  0.26717115488E+01  0.27776303412E+01  0.51100000000E-03 0. -1.
    9000002    1    1    2    0    0 -0.33293198633E+00 -0.37750505442E-01  0.28819486178E+00  0.10369036052E+01  0.93800000000E+00 0.  1.
         22    1    1    2    0    0 -0.42300302400E+00 -0.38076347615E-01  0.10400935568E+01  0.11234660536E+01  0.00000000000E+00 0. -1.
</event>
<event>
 5    1  0.2111786E+001  0.1581473E+01  0.7818608E-02  0.3373720E+00
         11   -1    0    0    0    0  0.00000000000E+00  0.00000000000E+00  0.39999999674E+01  0.40000000000E+01  0.51100000000E-03 0.  1.
    9000002   -1    0    0    0    0 -0.00000000000E+00 -0.00000000000E+00  0.00000000000E+00  0.93800000000E+00  0.93800000000E+00 0. -1.
         11    1    1    2    0    0  0.12376108839E+00 -0.13685870248E-01  0.11108438253E+01  0.11178006868E+01  0.51100000000E-03 0.  1.
    9000002    1    1    2    0    0  0.52770442555E-01 -0.11295173692E+00  0.23727474262E-01  0.94654625218E+00  0.93800000000E+00 0. -1.
         22    1    1    2    0    0 -0.17653153095E+00  0.12663760717E+00  0.28654286678E+01  0.28736530610E+01  0.00000000000E+00 0.  1.
</event>
<event>
 5    1  0.2111786E+001  0.1568389E+01  0.7818608E-02  0.3388405E+00
         11   -1    0    0    0    0  0.00000000000E+00  0.00000000000E+00  0.39999999674E+01  0.40000000000E+01  0.51100000000E-03 0. -1.
    9000002   -1    0    0    0    0 -0.00000000000E+00 -0.00000000000E+00  0.00000000000E+00  0.93800000000E+00  0.93800000000E+00 0. -1.
         11    1    1    2    0    0 -0.10201768925E+00  0.15503407972E+00  0.18616839967E+01  0.18709117401E+01  0.51100000000E-03 0. -1.
    9000002    1    1    2    0    0 -0.49564686309E-01  0.35300427153E-01  0.25510209655E-01  0.94031779154E+00  0.93800000000E+00 0. -1.
         22    1    1    2    0    0  0.15158237556E+00 -0.19033450687E+00  0.21128057610E+01  0.21267704683E+01  0.00000000000E+00 0. -1.
</event>
<event>
 5    1  0.2111786E+001  0.1557987E+01  0.7818608E-02  0.3400265E+00
         11   -1    0    0    0    0  0.00000000000E+00  0.00000000000E+00  0.39999999674E+01  0.40000000000E+01  0.51100000000E-03 0.  1.
    9000002   -1    0    0    0    0 -0.00000000000E+00 -0.00000000000E+00  0.00000000000E+00  0.93800000000E+00  0.93800000000E+00 0.  1.
         11    1    1    2    0    0 -0.14911326494E+00  0.19605912755E-01  0.19202737584E+01  0.19261543879E+01  0.51100000000E-03 0.  1.
    9000002    1    1    2    0    0 -0.17784300594E+00 -0.18082506668E+00  0.75363843459E-01  0.97460225138E+00  0.93800000000E+00 0.  1.
         22    1    1    2    0    0  0.32695627088E+00  0.16121915392E+00  0.20043623655E+01  0.20372433607E+01  0.00000000000E+00 0. -1.
</event>
<event>
 5    1  0.2111786E+001  0.1512136E+01  0.7818608E-02  0.3454621E+00
         11   -1    0    0    0    0  0.00000000000E+00  0.00000000000E+00  0.39999999674E+01  0.40000000000E+01  0.51100000000E-03 0.  1.
    9000002   -1    0    0    0    0 -0.00000000000E+00 -0.00000000000E+00  0.00000000000E+00  0.93800000000E+00  0.93800000000E+00 0. -1.
         11    1    1    2    0    0 -0.25313064446E+00  0.18900300366E+00  0.29263846010E+01  0.29433865449E+01  0.51100000000E-03 0.  1.
    9000002    1    1    2    0    0  0.59733120148E-01  0.57635674905E-01  0.71212801709E-01  0.94435437193E+00  0.93800000000E+00 0. -1.
         22    1    1    2    0    0  0.19339752431E+00 -0.24663867856E+00  0.10024025646E+01  0.10502590832E+01  0.00000000000E+00 0.  1.
</event>
<event>
 5    1  0.2111786E+001  0.1559504E+01  0.7818608E-02  0.3398525E+00
         11   -1    0    0    0    0  0.00000000000E+00  0.00000000000E+00  0.39999999674E+01  0.40000000000E+01  0.51100000000E-03 0. -1.
    9000002   -1    0    0    0    0 -0.00000000000E+00 -0.00000000000E+00  0.00000000000E+00  0.93800000000E+00  0.93800000000E+00 0. -1.
         11    1    1    2    0    0 -0.14944747682E+00  0.78889814721E-01  0.62422625231E+00  0.64669685819E+00  0.51100000000E-03 0. -1.
    9000002    1    1    2    0    0  0.35499622225E-01  0.15062328647E+00  0.46113198481E-01  0.95179726028E+00  0.93800000000E+00 0. -1.
         22    1    1    2    0    0  0.11394785460E+00 -0.22951310119E+00  0.33296605166E+01  0.33395058815E+01  0.00000000000E+00 0. -1.
</event>
<event>
 5    1  0.2111786E+001  0.1574630E+01  0.7818608E-02  0.3381368E+00
         11   -1    0    0    0    0  0.00000000000E+00  0.00000000000E+00  0.39999999674E+01  0.40000000000E+01  0.51100000000E-03 0.  1.
    9000002   -1    0    0    0    0 -0.00000000000E+00 -0.00000000000E+00  0.00000000000E+00  0.93800000000E+00  0.93800000000E+00 0. -1.
         11    1    1    2    0    0  0.11092808368E+00  0.10383264936E+00  0.11695567918E+01  0.11793852675E+01  0.51100000000E-03 0.  1.
    9000002    1    1    2    0    0  0.15513800854E-01  0.87567370039E-01  0.23691040178E-01  0.94250410487E+00  0.93800000000E+00 0. -1.
         22    1    1    2    0    0 -0.12644188454E+00 -0.19140001940E+00  0.28067521354E+01  0.28161106276E+01  0.00000000000E+00 0.  1.
</event>
<event>
 5    1  0.2111786E+001  0.1549943E+01  0.7818608E-02  0.3409553E+00
         11   -1    0    0    0    0  0.00000000000E+00  0.00000000000E+00  0.39999999674E+01  0.40000000000E+01  0.51100000000E-03 0. -1.
    9000002   -1    0    0    0    0 -0.00000000000E+00 -0.00000000000E+00  0.00000000000E+00  0.93800000000E+00  0.93800000000E+00 0.  1.
         11    1    1    2    0    0  0.29675460821E+00  0.67165264913E-01  0.18938098374E+01  0.19180955220E+01  0.51100000000E-03 0. -1.
    9000002    1    1    2    0    0 -0.84172487380E-01  0.23263239745E-01  0.42173613724E-01  0.94299989377E+00  0.93800000000E+00 0.  1.
         22    1    1    2    0    0 -0.21258212083E+00 -0.90428504658E-01  0.20640165162E+01  0.20769045842E+01  0.00000000000E+00 0. -1.
</event>
<event>
 5    1  0.2111786E+001  0.1448363E+01  0.7818608E-02  0.3536402E+00
         11   -1    0    0    0    0  0.00000000000E+00  0.00000000000E+00  0.39999999674E+01  0.40000000000E+01  0.51100000000E-03 0.  1.
    9000002   -1    0    0    0    0 -0.00000000000E+00 -0.00000000000E+00  0.00000000000E+00  0.93800000000E+00  0.93800000000E+00 0. -1.
         11    1    1    2    0    0 -0.55612564446E+00  0.21978007708E+00  0.21001513918E+01  0.21836243139E+01  0.51100000000E-03 0.  1.
    9000002    1    1    2    0    0  0.24538067386E+00 -0.38175867723E-01  0.16704804632E+00  0.98459033195E+00  0.93800000000E+00 0. -1.
         22    1    1    2    0    0  0.31074497059E+00 -0.18160420935E+00  0.17328005293E+01  0.17697853542E+01  0.00000000000E+00 0.  1.
</event>
<event>
 5    1  0.2111786E+001  0.1577067E+01  0.7818608E-02  0.3378636E+00
         11   -1    0    0    0    0  0.00000000000E+00  0.00000000000E+00  0.39999999674E+01  0.40000000000E+01  0.51100000000E-03 0. -1.
    9000002   -1    0    0    0    0 -0.00000000000E+00 -0.00000000000E+00  0.00000000000E+00  0.93800000000E+00  0.93800000000E+00 0.  1.
         11    1    1    2    0    0  0.85501378556E-01  0.10820302811E+00  0.11996954284E+01  0.12075958609E+01  0.51100000000E-03 0. -1.
    9000002    1    1    2    0    0  0.11170070629E-01  0.10650103291E+00  0.24273364018E-01  0.94440480552E+00  0.93800000000E+00 0.  1.
         22    1    1    2    0    0 -0.96671449185E-01 -0.21470406101E+00  0.27760311749E+01  0.27859993336E+01  0.00000000000E+00 0. -1.
</event>
<event>
 5    1  0.2111786E+001  0.1584192E+01  0.7818608E-02  0.3370701E+00
         11   -1    0    0    0    0  0.00000000000E+00  0.00000000000E+00  0.39999999674E+01  0.40000000000E+01  0.51100000000E-03 0. -1.
    9000002   -1    0    0    0    0 -0.00000000000E+00 -0.00000000000E+00  0.00000000000E+00  0.93800000000E+00  0.93800000000E+00 0. -1.
         11    1    1    2    0    0 -0.15733653574E+00 -0.92014662256E-01  0.95279282700E+00  0.97007005719E+00  0.51100000000E-03 0. -1.
    9000002    1    1    2    0    0  0.11924455650E+00  0.32053935946E+00  0.90871138393E-01  0.10025299542E+01  0.93800000000E+00 0. -1.
         22    1    1    2    0    0  0.38091979236E-01 -0.22852469720E+00  0.29563360020E+01  0.29653999886E+01  0.00000000000E+00 0. -1.
</event>
<event>
 5    1  0.2111786E+001  0.1573550E+01  0.7818608E-02  0.3382581E+00
         11   -1    0    0    0    0  0.00000000000E+00  0.00000000000E+00  0.39999999674E+01  0.40000000000E+01  0.51100000000E-03 0. -1.
    9000002   -1    0    0    0    0 -0.00000000000E+00 -0.00000000000E+00  0.00000000000E+00  0.93800000000E+00  0.93800000000E+00 0. -1.
         11    1    1    2    0    0 -0.81292136389E-01 -0.12168778951E+00  0.25526086610E+01  0.25568002595E+01  0.51100000000E-03 0. -1.
    9000002    1    1    2    0    0 -0.62883911322E-01 -0.31059105654E-01  0.22476359579E-01  0.94088694384E+00  0.93800000000E+00 0. -1.
         22    1    1    2    0    0  0.14417604771E+00  0.15274689516E+00  0.14249149468E+01  0.14403127967E+01  0.00000000000E+00 0. -1.
</event>
<event>
 5    1  0.2111786E+001  0.1466187E+01  0.7818608E-02  0.3512768E+00
         11   -1    0    0    0    0  0.00000000000E+00  0.00000000000E+00  0.39999999674E+01  0.40000000000E+01  0.51100000000E-03 0.  1.
    9000002   -1    0    0    0    0 -0.00000000000E+00 -0.00000000000E+00  0.00000000000E+00  0.93800000000E+00  0.93800000000E+00 0. -1.
         11    1    1    2    0    0 -0.27026367865E+00 -0.83443432381E-01  0.28536421517E+00  0.40179380138E+00  0.51100000000E-03 0.  1.
    9000002    1    1    2    0    0  0.58039236807E-01 -0.10857871257E+00  0.14734273534E+00  0.95745066269E+00  0.93800000000E+00 0. -1.
         22    1    1    2    0    0  0.21222444184E+00  0.19202214495E+00  0.35672930169E+01  0.35787555359E+01  0.00000000000E+00 0.  1.
</event>
<event>
 5    1  0.2111786E+001  0.1587280E+01  0.7818608E-02  0.3367286E+00
         11   -1    0    0    0    0  0.00000000000E+00  0.00000000000E+00  0.39999999674E+01  0.40000000000E+01  0.51100000000E-03 0. -1.
    9000002   -1    0    0    0    0 -0.00000000000E+00 -0.00000000000E+00  0.00000000000E+00  0.93800000000E+00  0.93800000000E+00 0.  1.
         11    1    1    2    0    0 -0.15768744461E+00 -0.80553468885E-01  0.14639499708E+01  0.14746199408E+01  0.51100000000E-03 0. -1.
    9000002    1    1    2    0    0  0.89796525616E-01  0.31560641008E+00  0.81946329156E-01  0.99711083785E+00  0.93800000000E+00 0.  1.
         22    1    1    2    0    0  0.67890918996E-01 -0.23505294120E+00  0.24541036674E+01  0.24662692214E+01  0.00000000000E+00 0. -1.
</event>
<event>
 5    1  0.3006649E+001  0.1564272E+01  0.7818608E-02  0.3393078E+00
         11   -1    0    0    0    0  0.00000000000E+00  0.00000000000E+00  0.39999999674E+01  0.40000000000E+01  0.51100000000E-03 0.  1.
    9000002   -1    0    0    0    0 -0.00000000000E+00 -0.00000000000E+00  0.00000000000E+00  0.93800000000E+00  0.93800000000E+00 0.  1.
         11    1    1    2    0    0 -0.23207736779E+00  0.13388617842E-01  0.20992844195E+01  0.21121161177E+01  0.51100000000E-03 0.  1.
    9000002    1    1    2    0    0  0.11428545553E-01 -0.25089223178E-01  0.26594060948E-01  0.93878183027E+00  0.93800000000E+00 0.  1.
         22    1    1    2    0    0  0.22064882224E+00  0.11700605336E-01  0.18741214869E+01  0.18871020520E+01  0.00000000000E+00 0.  1.
</event>
<event>
 5    1  0.2111786E+001  0.1570503E+01  0.7818608E-02  0.3386014E+00
         11   -1    0    0    0    0  0.00000000000E+00  0.00000000000E+00  0.39999999674E+01  0.40000000000E+01  0.51100000000E-03 0. -1.
    9000002   -1    0    0    0    0 -0.00000000000E+00 -0.00000000000E+00  0.00000000000E+00  0.93800000000E+00  0.93800000000E+00 0. -1.
         11    1    1    2    0    0 -0.12179163330E-01 -0.15820201376E+00  0.21774176840E+01  0.21831912974E+01  0.51100000000E-03 0. -1.
    9000002    1    1    2    0    0  0.80700928187E-02 -0.84526224453E-01  0.26306466763E-01  0.94220265294E+00  0.93800000000E+00 0. -1.
         22    1    1    2    0    0  0.41090705115E-02  0.24272823821E+00  0.17962758166E+01  0.18126060497E+01  0.00000000000E+00 0. -1.
</event>
<event>
 5    1  0.2111786E+001  0.1541116E+01  0.7818608E-02  0.3419863E+00
         11   -1    0    0    0    0  0.00000000000E+00  0.00000000000E+00  0.39999999674E+01  0.40000000000E+01  0.51100000000E-03 0. -1.
    9000002   -1    0    0    0    0 -0.00000000000E+00 -0.00000000000E+00  0.00000000000E+00  0.93800000000E+00  0.93800000000E+00 0.  1.
         11    1    1    2    0    0  0.18088706067E-01 -0.26140875958E+00  0.14136183604E+01  0.14376991587E+01  0.51100000000E-03 0. -1.
    9000002    1    1    2    0    0  0.15930969934E+00 -0.21478257065E-01  0.61741958471E-01  0.95367550313E+00  0.93800000000E+00 0.  1.
         22    1    1    2    0    0 -0.17739840540E+00  0.28288701665E+00  0.25246396484E+01  0.25466253382E+01  0.00000000000E+00 0. -1.
</event>
<event>
 5    1  0.2111786E+001  0.1505895E+01  0.7818608E-02  0.3462294E+00
         11   -1    0    0    0    0  0.00000000000E+00  0.00000000000E+00  0.39999999674E+01  0.40000000000E+01  0.51100000000E-03 0. -1.
    9000002   -1    0    0    0    0 -0.00000000000E+00 -0.00000000000E+00  0.00000000000E+00  0.93800000000E+00  0.93800000000E+00 0.  1.
         11    1    1    2    0    0 -0.87287351438E-01 -0.36117984660E+00  0.21483942069E+01  0.21802907817E+01  0.51100000000E-03 0. -1.
    9000002    1    1    2    0    0 -0.53915616327E-01  0.24471391137E-01  0.73758144603E-01  0.94275659985E+00  0.93800000000E+00 0.  1.
         22    1    1    2    0    0  0.14120296776E+00  0.33670845546E+00  0.17778476158E+01  0.18149526185E+01  0.00000000000E+00 0. -1.
</event>
<event>
 5    1  0.2111786E+001  0.1538075E+01  0.7818608E-02  0.3423445E+00
         11   -1    0    0    0    0  0.00000000000E+00  0.00000000000E+00  0.39999999674E+01  0.40000000000E+01  0.51100000000E-03 0.  1.
    9000002   -1    0    0    0    0 -0.00000000000E+00 -0.00000000000E+00  0.00000000000E+00  0.93800000000E+00  0.93800000000E+00 0. -1.
         11    1    1    2    0    0 -0.12811886811E+00 -0.29127848129E+00  0.12837425325E+01  0.13225931910E+01  0.51100000000E-03 0.  1.
    9000002    1    1    2    0    0  0.64395289525E-02  0.12371160294E+00  0.56745913431E-01  0.94784499098E+00  0.93800000000E+00 0. -1.
         22    1    1    2    0    0  0.12167933916E+00  0.16756687835E+00  0.26595115214E+01  0.26675618180E+01  0.00000000000E+00 0.  1.
</event>
<event>
 5    1  0.2111786E+001  0.1563505E+01  0.7818608E-02  0.3393952E+00
         11   -1    0    0    0    0  0.00000000000E+00  0.00000000000E+00  0.39999999674E+01  0.40000000000E+01  0.51100000000E-03 0.  1.
    9000002   -1    0    0    0    0 -0.00000000000E+00 -0.00000000000E+00  0.00000000000E+00  0.93800000000E+00  0.93800000000E+00 0. -1.
         11    1    1    2    0    0  0.10372266465E+00  0.16869587149E+00  0.13682532848E+01  0.13825100364E+01  0.51100000000E-03 0.  1.
    9000002    1    1    2    0    0 -0.71961392542E-01  0.98938740234E-01  0.36878743252E-01  0.94666327595E+00  0.93800000000E+00 0. -1.
         22    1    1    2    0    0 -0.31761272106E-01 -0.26763461173E+00  0.25948679393E+01  0.26088266876E+01  0.00000000000E+00 0.  1.
</event>
<event>
 5    1  0.2111786E+001  0.1504777E+01  0.7818608E-02  0.3463677E+00
         11   -1    0    0    0    0  0.00000000000E+00  0.00000000000E+00  0.39999999674E+01  0.40000000000E+01  0.51100000000E-03 0.  1.
    9000002   -1    0    0    0    0 -0.00000000000E+00 -0.00000000000E+00  0.00000000000E+00  0.93800000000E+00  0.93800000000E+00 0. -1.
         11    1    1    2    0    0 -0.13478121624E+00  0.39417548649E+00  0.19692797037E+01  0.20128594345E+01  0.51100000000E-03 0.  1.
    9000002    1    1    2    0    0  0.18223093192E-01 -0.90330827077E-01  0.78276118440E-01  0.94576048245E+00  0.93800000000E+00 0. -1.
         22    1    1    2    0    0  0.11655812305E+00 -0.30384465941E+00  0.19524441452E+01  0.19793800830E+01  0.00000000000E+00 0. -1.
</event>
<event>
 5    1  0.2111786E+001  0.1560517E+01  0.7818608E-02  0.3397364E+00
         11   -1    0    0    0    0  0.00000000000E+00  0.00000000000E+00  0.39999999674E+01  0.40000000000E+01  0.51100000000E-03 0. -1.
    9000002   -1    0    0    0    0 -0.00000000000E+00 -0.00000000000E+00  0.00000000000E+00  0.93800000000E+00  0.93800000000E+00 0.  1.
         11    1    1    2    0    0 -0.23347423667E+00 -0.22400137773E-01  0.16028068701E+01  0.16198771895E+01  0.51100000000E-03 0. -1.
    9000002    1    1    2    0    0  0.27552056717E-03  0.88488490491E-01  0.34256421885E-01  0.94278724604E+00  0.93800000000E+00 0.  1.
         22    1    1    2    0    0  0.23319871611E+00 -0.66088352718E-01  0.23629366754E+01  0.23753355644E+01  0.00000000000E+00 0. -1.
</event>
<event>
 5    1  0.2111786E+001  0.1496540E+01  0.7818608E-02  0.3473925E+00
         11   -1    0    0    0    0  0.00000000000E+00  0.00000000000E+00  0.39999999674E+01  0.40000000000E+01  0.51100000000E-03 0. -1.
    9000002   -1    0    0    0    0 -0.00000000000E+00 -0.00000000000E+00  0.00000000000E+00  0.93800000000E+00  0.93800000000E+00 0.  1.
         11    1    1    2    0    0 -0.24064712523E+00  0.32498634062E+00  0.14035661234E+01  0.14606591951E+01  0.51100000000E-03 0. -1.
    9000002    1    1    2    0    0  0.44970867590E-01 -0.79876804561E-01  0.84883588654E-01  0.94628320627E+00  0.93800000000E+00 0.  1.
         22    1    1    2    0    0  0.19567625764E+00 -0.24510953606E+00  0.25115502553E+01  0.25310575986E+01  0.00000000000E+00 0. -1.
</event>
<event>
 5    1  0.2111786E+001  0.1565606E+01  0.7818608E-02  0.3391561E+00
         11   -1    0    0    0    0  0.00000000000E+00  0.00000000000E+00  0.39999999674E+01  0.40000000000E+01  0.51100000000E-03 0. -1.
    9000002   -1    0    0    0    0 -0.00000000000E+00 -0.00000000000E+00  0.00000000000E+00  0.93800000000E+00  0.93800000000E+00 0.  1.
         11    1    1    2    0    0 -0.34970343472E-01  0.22407970964E+00  0.19629120356E+01  0.19759702836E+01  0.51100000000E-03 0. -1.
    9000002    1    1    2    0    0 -0.17346317054E+00 -0.76366170990E-01  0.49653634683E-01  0.95824357396E+00  0.93800000000E+00 0.  1.
         22    1    1    2    0    0  0.20843351401E+00 -0.14771353865E+00  0.19874342971E+01  0.20037861424E+01  0.00000000000E+00 0. -1.
</event>
<event>
 5    1  0.2111786E+001  0.1485452E+01  0.7818608E-02  0.3487916E+00
         11   -1    0    0    0    0  0.00000000000E+00  0.00000000000E+00  0.39999999674E+01  0.40000000000E+01  0.51100000000E-03 0. -1.
    9000002   -1    0    0    0    0 -0.00000000000E+00 -0.00000000000E+00  0.00000000000E+00  0.93800000000E+00  0.93800000000E+00 0. -1.
         11    1    1    2    0    0  0.15220567248E+00 -0.35999498017E+00  0.58380382597E+00  0.70255969200E+00  0.51100000000E-03 0. -1.
    9000002    1    1    2    0    0  0.98036979113E-01  0.59341060408E-01  0.16314385040E+00  0.95895387097E+00  0.93800000000E+00 0. -1.
         22    1    1    2    0    0 -0.25024265159E+00  0.30065391976E+00  0.32530522910E+01  0.32764864370E+01  0.00000000000E+00 0. -1.
</event>
<event>
 5    1  0.2111786E+001  0.1506366E+01  0.7818608E-02  0.3461713E+00
         11   -1    0    0    0    0  0.00000000000E+00  0.00000000000E+00  0.39999999674E+01  0.40000000000E+01  0.51100000000E-03 0.  1.
    9000002   -1    0    0    0    0 -0.00000000000E+00 -0.00000000000E+00  0.00000000000E+00  0.93800000000E+00  0.93800000000E+00 0. -1.
         11    1    1    2    0    0  0.36599797847E+00 -0.15400952426E-01  0.34411092244E+01  0.34605526531E+01  0.51100000000E-03 0.  1.
    9000002    1    1    2    0    0 -0.15416295087E+00 -0.69007606668E-01  0.91588860260E-01  0.95747625794E+00  0.93800000000E+00 0. -1.
         22    1    1    2    0    0 -0.21183502761E+00  0.84408559094E-01  0.46730188273E+00  0.51997108898E+00  0.00000000000E+00 0. -1.
</event>
<event>
 5    1  0.2111786E+001  0.1565487E+01  0.7818608E-02  0.3391696E+00
         11   -1    0    0    0    0  0.00000000000E+00  0.00000000000E+00  0.39999999674E+01  0.40000000000E+01  0.51100000000E-03 0. -1.
    9000002   -1    0    0    0    0 -0.00000000000E+00 -0.00000000000E+00  0.00000000000E+00  0.93800000000E+00  0.93800000000E+00 0. -1.
         11    1    1    2    0    0  0.14387934672E+00 -0.18961482485E+00  0.21836347213E+01  0.21965691214E+01  0.51100000000E-03 0. -1.
    9000002    1    1    2    0    0 -0.12280881064E+00 -0.33001758424E-01  0.36196152426E-01  0.94727254868E+00  0.93800000000E+00 0. -1.
         22    1    1    2    0    0 -0.21070536075E-01  0.22261658327E+00  0.17801690937E+01  0.17941583299E+01  0.00000000000E+00 0.  1.
</event>
<event>
 5    1  0.2111786E+001  0.1553545E+01  0.7818608E-02  0.3405381E+00
         11   -1    0    0    0    0  0.00000000000E+00  0.00000000000E+00  0.39999999674E+01  0.40000000000E+01  0.51100000000E-03 0. -1.
    9000002   -1    0    0    0    0 -0.00000000000E+00 -0.00000000000E+00  0.00000000000E+00  0.93800000000E+00  0.93800000000E+00 0.  1.
         11    1    1    2    0    0  0.38001010994E-01  0.19065520770E+00  0.12945651368E+01  0.13090808377E+01  0.51100000000E-03 0. -1.
    9000002    1    1    2    0    0  0.10059603376E+00  0.12620746874E+00  0.52173567096E-01  0.95321244656E+00  0.93800000000E+00 0.  1.
         22    1    1    2    0    0 -0.13859704476E+00 -0.31686267643E+00  0.26532612634E+01  0.26757067157E+01  0.00000000000E+00 0. -1.
</event>
<event>
 5    1  0.2111786E+001  0.1550957E+01  0.7818608E-02  0.3408376E+00
         11   -1    0    0    0    0  0.00000000000E+00  0.00000000000E+00  0.39999999674E+01  0.40000000000E+01  0.51100000000E-03 0.  1.
    9000002   -1    0    0    0    0 -0.00000000000E+00 -0.00000000000E+00  0.00000000000E+00  0.93800000000E+00  0.93800000000E+00 0.  1.
         11    1    1    2    0    0 -0.14828058511E+00  0.26140592015E-01  0.32461733838E+01  0.32496634228E+01  0.51100000000E-03 0.  1.
    9000002    1    1    2    0    0 -0.69484457009E-01 -0.11976624293E-01  0.39560739740E-01  0.94147787092E+00  0.93800000000E+00 0.  1.
         22    1    1    2    0    0  0.21776504212E+00 -0.14163967721E-01  0.71426584378E+00  0.74685870627E+00  0.00000000000E+00 0. -1.
</event>
<event>
 5    1  0.2111786E+001  0.1559097E+01  0.7818608E-02  0.3398991E+00
         11   -1    0    0    0    0  0.00000000000E+00  0.00000000000E+00  0.39999999674E+01  0.40000000000E+01  0.51100000000E-03 0. -1.
    9000002   -1    0    0    0    0 -0.00000000000E+00 -0.00000000000E+00  0.00000000000E+00  0.93800000000E+00  0.93800000000E+00 0.  1.
         11    1    1    2    0    0  0.91557607306E-01 -0.25293850304E+00  0.91324679398E+00  0.95204025630E+00  0.51100000000E-03 0. -1.
    9000002    1    1    2    0    0 -0.32226473294E+00  0.19446602110E+00  0.12929116703E+00  0.10189366012E+01  0.93800000000E+00 0.  1.
         22    1    1    2    0    0  0.23070712564E+00  0.58472481935E-01  0.29574620063E+01  0.29670231425E+01  0.00000000000E+00 0. -1.
</event>
<event>
 5    1  0.2111786E+001  0.1551289E+01  0.7818608E-02  0.3407991E+00
         11   -1    0    0    0    0  0.00000000000E+00  0.00000000000E+00  0.39999999674E+01  0.40000000000E+01  0.51100000000E-03 0.  1.
    9000002   -1    0    0    0    0 -0.00000000000E+00 -0.00000000000E+00  0.00000000000E+00  0.93800000000E+00  0.93800000000E+00 0. -1.
         11    1    1    2    0    0  0.25354890014E+00  0.16471110895E+00  0.13890657304E+01  0.14215908900E+01  0.51100000000E-03 0.  1.
    9000002    1    1    2    0    0 -0.32786451465E-01 -0.24865038496E+00  0.79740042487E-01  0.97421991343E+00  0.93800000000E+00 0. -1.
         22    1    1    2    0    0 -0.22076244867E+00  0.83939276014E-01  0.25311941945E+01  0.25421891966E+01  0.00000000000E+00 0.  1.
</event>
<event>
 5    1  0.2111786E+001  0.1564093E+01  0.7818608E-02  0.3393282E+00
         11   -1    0    0    0    0  0.00000000000E+00  0.00000000000E+00  0.39999999674E+01  0.40000000000E+01  0.51100000000E-03 0.  1.
    9000002   -1    0    0    0    0 -0.00000000000E+00 -0.00000000000E+00  0.00000000000E+00  0.93800000000E+00  0.93800000000E+00 0. -1.
         11    1    1    2    0    0  0.89110010412E-01  0.13887431724E+00  0.25337891607E+01  0.25391562461E+01  0.51100000000E-03 0.  1.
    9000002    1    1    2    0    0 -0.77784556253E-01  0.11853847367E+00  0.39949743064E-01  0.94949554444E+00  0.93800000000E+00 0. -1.
         22    1    1    2    0    0 -0.11325454160E-01 -0.25741279092E+00  0.14262610635E+01  0.14493482094E+01  0.00000000000E+00 0.  1.
</event>
<event>
 5    1  0.2111786E+001  0.1583022E+01  0.7818608E-02  0.3372000E+00
         11   -1    0    0    0    0  0.00000000000E+00  0.00000000000E+00  0.39999999674E+01  0.40000000000E+01  0.51100000000E-03 0.  1.
    9000002   -1    0    0    0    0 -0.00000000000E+00 -0.00000000000E+00  0.00000000000E+00  0.93800000000E+00  0.93800000000E+00 0.  1.
         11    1    1    2    0    0 -0.93049088068E-02 -0.71598014927E-01  0.49368697583E+00  0.49893882219E+00  0.51100000000E-03 0.  1.
    9000002    1    1    2    0    0  0.18380785041E+00 -0.24231440618E+00  0.74913923947E-01  0.98891743504E+00  0.93800000000E+00 0.  1.
         22    1    1    2    0    0 -0.17450294160E+00  0.31391242111E+00  0.34313990676E+01  0.34501437428E+01  0.00000000000E+00 0.  1.
</event>
<event>
 5    1  0.2111786E+001  0.1494187E+01  0.7818608E-02  0.3476875E+00
         11   -1    0    0    0    0  0.00000000000E+00  0.00000000000E+00  0.39999999674E+01  0.40000000000E+01  0.51100000000E-03 0. -1.
    9000002   -1    0    0    0    0 -0.00000000000E+00 -0.00000000000E+00  0.00000000000E+00  0.93800000000E+00  0.93800000000E+00 0.  1.
         11    1    1    2    0    0 -0.23939369610E+00  0.47121740462E+00  0.10530270195E+01  0.11782280547E+01  0.51100000000E-03 0. -1.
    9000002    1    1    2    0    0  0.47307164585E-01 -0.14838727270E+00  0.18039072751E+00  0.96780244115E+00  0.93800000000E+00 0.  1.
         22    1    1    2    0    0  0.19208653152E+00 -0.32283013193E+00  0.27665822204E+01  0.27919695041E+01  0.00000000000E+00 0.  1.
</event>
<event>
 5    1  0.2111786E+001  0.1542288E+01  0.7818608E-02  0.3418487E+00
         11   -1    0    0    0    0  0.00000000000E+00  0.00000000000E+00  0.39999999674E+01  0.40000000000E+01  0.51100000000E-03 0. -1.
    9000002   -1    0    0    0    0 -0.00000000000E+00 -0.00000000000E+00  0.00000000000E+00  0.93800000000E+00  0.93800000000E+00 0.  1.
         11    1    1    2    0    0  0.11611592072E+00  0.35054516240E+00  0.21263865151E+01  0.21582133098E+01  0.51100000000E-03 0. -1.
    9000002    1    1    2    0    0 -0.11328790513E+00 -0.12671104491E+00  0.62964251976E-01  0.95535246657E+00  0.93800000000E+00 0.  1.
         22    1    1    2    0    0 -0.28280155953E-02 -0.22383411749E+00  0.18106492003E+01  0.18244342236E+01  0.00000000000E+00 0. -1.
</event>
<event>
 5    1  0.2111786E+001  0.1576475E+01  0.7818608E-02  0.3379299E+00
         11   -1    0    0    0    0  0.00000000000E+00  0.00000000000E+00  0.39999999674E+01  0.40000000000E+01  0.51100000000E-03 0.  1.
    9000002   -1    0    0    0    0 -0.00000000000E+00 -0.00000000000E+00  0.00000000000E+00  0.93800000000E+00  0.93800000000E+00 0. -1.
         11    1    1    2    0    0  0.14153058986E+00  0.30846889941E-01  0.19008531875E+01  0.19063644824E+01  0.51100000000E-03 0.  1.
    9000002    1    1    2    0    0  0.82215075982E-01 -0.39263178146E-02  0.21548895245E-01  0.94185088500E+00  0.93800000000E+00 0. -1.
         22    1    1    2    0    0 -0.22374566584E+00 -0.26920572126E-01  0.20775978847E+01  0.20897846326E+01  0.00000000000E+00 0.  1.
</event>
<event>
 5    1  0.2111786E+001  0.1547403E+01  0.7818608E-02  0.3412507E+00
         11   -1    0    0    0    0  0.00000000000E+00  0.00000000000E+00  0.39999999674E+01  0.40000000000E+01  0.51100000000E-03 0.  1.
    9000002   -1    0    0    0    0 -0.00000000000E+00 -0.00000000000E+00  0.00000000000E+00  0.93800000000E+00  0.93800000000E+00 0. -1.
         11    1    1    2    0    0 -0.13873749476E+00  0.80094620639E-01  0.39105670028E+00  0.42259773386E+00  0.51100000000E-03 0.  1.
    9000002    1    1    2    0    0 -0.50873681878E-01  0.39353517697E-01  0.41699989714E-01  0.94112683524E+00  0.93800000000E+00 0. -1.
         22    1    1    2    0    0  0.18961117664E+00 -0.11944813834E+00  0.35672432774E+01  0.35742754309E+01  0.00000000000E+00 0.  1.
</event>
<event>
 5    1  0.2111786E+001  0.1533812E+01  0.7818608E-02  0.3428491E+00
         11   -1    0    0    0    0  0.00000000000E+00  0.00000000000E+00  0.39999999674E+01  0.40000000000E+01  0.51100000000E-03 0.  1.
    9000002   -1    0    0    0    0 -0.00000000000E+00 -0.00000000000E+00  0.00000000000E+00  0.93800000000E+00  0.93800000000E+00 0. -1.
         11    1    1    2    0    0  0.11277445219E+00  0.21371510568E+00  0.65662668520E+00  0.69967927531E+00  0.51100000000E-03 0.  1.
    9000002    1    1    2    0    0 -0.31309989299E+00  0.73512863188E-01  0.12327600754E+00  0.99923803875E+00  0.93800000000E+00 0. -1.
         22    1    1    2    0    0  0.20032544080E+00 -0.28722796887E+00  0.32200972746E+01  0.32390826859E+01  0.00000000000E+00 0.  1.
</event>
<event>
 5    1  0.2111786E+001  0.1559784E+01  0.7818608E-02  0.3398203E+00
         11   -1    0    0    0    0  0.00000000000E+00  0.00000000000E+00  0.39999999674E+01  0.40000000000E+01  0.51100000000E-03 0.  1.
    9000002   -1    0    0    0    0 -0.00000000000E+00 -0.00000000000E+00  0.00000000000E+00  0.93800000000E+00  0.93800000000E+00 0. -1.
         11    1    1    2    0    0  0.22022399295E+00 -0.74132363901E-01  0.20098556201E+01  0.20232434577E+01  0.51100000000E-03 0.  1.
    9000002    1    1    2    0    0 -0.20028899662E-01 -0.83965429093E-01  0.34552354899E-01  0.94259705884E+00  0.93800000000E+00 0. -1.
         22    1    1    2    0    0 -0.20019509329E+00  0.15809779299E+00  0.19555919924E+01  0.19721594835E+01  0.00000000000E+00 0.  1.
</event>
<event>
 5    1  0.2111786E+001  0.1543283E+01  0.7818608E-02  0.3417320E+00
         11   -1    0    0    0    0  0.00000000000E+00  0.00000000000E+00  0.39999999674E+01  0.40000000000E+01  0.51100000000E-03 0. -1.
    9000002   -1    0    0    0    0 -0.00000000000E+00 -0.00000000000E+00  0.00000000000E+00  0.93800000000E+00  0.93800000000E+00 0. -1.
         11    1    1    2    0    0 -0.11364712129E+00  0.29912017764E+00  0.17079814825E+01  0.17376966233E+01  0.51100000000E-03 0. -1.
    9000002    1    1    2    0    0  0.10191907452E-01 -0.87256118207E-01  0.47358102534E-01  0.94329438407E+00  0.93800000000E+00 0. -1.
         22    1    1    2    0    0  0.10345521384E+00 -0.21186405944E+00  0.22446603823E+01  0.22570089926E+01  0.00000000000E+00 0. -1.
</event>
<event>
 5    1  0.2111786E+001  0.1556791E+01  0.7818608E-02  0.3401639E+00
         11   -1    0    0    0    0  0.00000000000E+00  0.00000000000E+00  0.39999999674E+01  0.40000000000E+01  0.51100000000E-03 0. -1.
    9000002   -1    0    0    0    0 -0.00000000000E+00 -0.00000000000E+00  0.00000000000E+00  0.93800000000E+00  0.93800000000E+00 0.  1.
         11    1    1    2    0    0 -0.14937307481E+00  0.20526391750E+00  0.15166315181E+01  0.15377311255E+01  0.51100000000E-03 0. -1.
    9000002    1    1    2    0    0 -0.14078723731E+00 -0.19007745683E+00  0.70457982601E-01  0.96992722052E+00  0.93800000000E+00 0.  1.
         22    1    1    2    0    0  0.29016031212E+00 -0.15186460669E-01  0.24129104666E+01  0.24303416540E+01  0.00000000000E+00 0.  1.
</event>
<event>
 5    1  0.2111786E+001  0.1513919E+01  0.7818608E-02  0.3452442E+00
         11   -1    0    0    0    0  0.00000000000E+00  0.00000000000E+00  0.39999999674E+01  0.40000000000E+01  0.51100000000E-03 0. -1.
    9000002   -1    0    0    0    0 -0.00000000000E+00 -0.00000000000E+00  0.00000000000E+00  0.93800000000E+00  0.93800000000E+00 0. -1.
         11    1    1    2    0    0  0.41632356583E+00  0.22744995503E-01  0.24567900117E+01  0.24919189531E+01  0.51100000000E-03 0. -1.
    9000002    1    1    2    0    0 -0.12381622246E+00 -0.97331389363E-01  0.82718907042E-01  0.95471999763E+00  0.93800000000E+00 0. -1.
         22    1    1    2    0    0 -0.29250734336E+00  0.74586393860E-01  0.14604910486E+01  0.14913610492E+01  0.00000000000E+00 0.  1.
</event>
<event>
 5    1  0.2111786E+001  0.1476517E+01  0.7818608E-02  0.3499354E+00
         11   -1    0    0    0    0  0.00000000000E+00  0.00000000000E+00  0.39999999674E+01  0.40000000000E+01  0.51100000000E-03 0. -1.
    9000002   -1    0    0    0    0 -0.00000000000E+00 -0.00000000000E+00  0.00000000000E+00  0.93800000000E+00  0.93800000000E+00 0. -1.
         11    1    1    2    0    0 -0.82803539839E+00  0.22232221016E-01  0.18759295455E+01  0.20506703327E+01  0.51100000000E-03 0. -1.
    9000002    1    1    2    0    0  0.80054192300E+00  0.32318134400E+00  0.76930876242E+00  0.14889571933E+01  0.93800000000E+00 0. -1.
         22    1    1    2    0    0  0.27493475389E-01 -0.34541356502E+00  0.13547616594E+01  0.13983724740E+01  0.00000000000E+00 0. -1.
</event>
<event>
 5    1  0.2111786E+001  0.1542903E+01  0.7818608E-02  0.3417766E+00
         11   -1    0    0    0    0  0.00000000000E+00  0.00000000000E+00  0.39999999674E+01  0.40000000000E+01  0.51100000000E-03 0.  1.
    9000002   -1    0    0    0    0 -0.00000000000E+00 -0.00000000000E+00  0.00000000000E+00  0.93800000000E+00  0.93800000000E+00 0.  1.
         11    1    1    2    0    0  0.29425351256E+00  0.27853815625E-01  0.28491269246E+01  0.28644171237E+01  0.51100000000E-03 0.  1.
    9000002    1    1    2    0    0 -0.51383533338E-01 -0.60441503059E-01  0.46657984003E-01  0.94250432904E+00  0.93800000000E+00 0.  1.
         22    1    1    2    0    0 -0.24286997922E+00  0.32587687434E-01  0.11042150587E+01  0.11310785473E+01  0.00000000000E+00 0. -1.
</event>
<event>
 5    1  0.2111786E+001  0.1575509E+01  0.7818608E-02  0.3380382E+00
         11   -1    0    0    0    0  0.00000000000E+00  0.00000000000E+00  0.39999999674E+01  0.40000000000E+01  0.51100000000E-03 0.  1.
    9000002   -1    0    0    0    0 -0.00000000000E+00 -0.00000000000E+00  0.00000000000E+00  0.93800000000E+00  0.93800000000E+00 0. -1.
         11    1    1    2    0    0  0.12284249767E-01  0.14705148749E+00  0.25280391679E+01  0.25323422633E+01  0.51100000000E-03 0.  1.
    9000002    1    1    2    0    0  0.15731023993E+00 -0.10220447052E-01  0.34506563867E-01  0.95178026460E+00  0.93800000000E+00 0. -1.
         22    1    1    2    0    0 -0.16959448970E+00 -0.13683104044E+00  0.14374542356E+01  0.14538774721E+01  0.00000000000E+00 0.  1.
</event>
<event>
 5    1  0.2111786E+001  0.1555949E+01  0.7818608E-02  0.3402608E+00
         11   -1    0    0    0    0  0.00000000000E+00  0.00000000000E+00  0.39999999674E+01  0.40000000000E+01  0.51100000000E-03 0. -1.
    9000002   -1    0    0    0    0 -0.00000000000E+00 -0.00000000000E+00  0.00000000000E+00  0.93800000000E+00  0.93800000000E+00 0.  1.
         11    1    1    2    0    0  0.15296944582E+00  0.23298856543E+00  0.25810660326E+01  0.25960711563E+01  0.51100000000E-03 0. -1.
    9000002    1    1    2    0    0 -0.45161259393E-01 -0.41957100953E-01  0.34953318984E-01  0.94067298897E+00  0.93800000000E+00 0.  1.
         22    1    1    2    0    0 -0.10780818642E+00 -0.19103146448E+00  0.13839806158E+01  0.14012558547E+01  0.00000000000E+00 0. -1.
</event>
<event>
 5    1  0.2111786E+001  0.1557076E+01  0.7818608E-02  0.3401311E+00
         11   -1    0    0    0    0  0.00000000000E+00  0.00000000000E+00  0.39999999674E+01  0.40000000000E+01  0.51100000000E-03 0. -1.
    9000002   -1    0    0    0    0 -0.00000000000E+00 -0.00000000000E+00  0.00000000000E+00  0.93800000000E+00  0.93800000000E+00 0. -1.
         11    1    1    2    0    0 -0.24800142580E-01 -0.24300362543E+00  0.14764008906E+01  0.14964710689E+01  0.51100000000E-03 0. -1.
    9000002    1    1    2    0    0  0.13589566966E+00  0.10860788914E-01  0.44280360147E-01  0.94888900303E+00  0.93800000000E+00 0. -1.
         22    1    1    2    0    0 -0.11109552708E+00  0.23214283652E+00  0.24793187166E+01  0.24926399281E+01  0.00000000000E+00 0. -1.
</event>
<event>
 5    1  0.2111786E+001  0.1477903E+01  0.7818608E-02  0.3497570E+00
         11   -1    0    0    0    0  0.00000000000E+00  0.00000000000E+00  0.39999999674E+01  0.40000000000E+01  0.51100000000E-03 0.  1.
    9000002   -1    0    0    0    0 -0.00000000000E+00 -0.00000000000E+00  0.00000000000E+00  0.93800000000E+00  0.93800000000E+00 0.  1.
         11    1    1    2    0    0 -0.41226803095E+00 -0.70125472687E+00  0.30303244315E+01  0.31376088894E+01  0.51100000000E-03 0.  1.
    9000002    1    1    2    0    0  0.43449614911E+00  0.47461783126E+00  0.43250566734E+00  0.12169445927E+01  0.93800000000E+00 0.  1.
         22    1    1    2    0    0 -0.22228118154E-01  0.22663689561E+00  0.53716986850E+00  0.58344651795E+00  0.00000000000E+00 0.  1.
</event>
<event>
 5    1  0.2111786E+001  0.1561854E+01  0.7818608E-02  0.3395836E+00
         11   -1    0    0    0    0  0.00000000000E+00  0.00000000000E+00  0.39999999674E+01  0.40000000000E+01  0.51100000000E-03 0.  1.
    9000002   -1    0    0    0    0 -0.00000000000E+00 -0.00000000000E+00  0.00000000000E+00  0.93800000000E+00  0.93800000000E+00 0.  1.
         11    1    1    2    0    0 -0.68243115159E-01 -0.21594731977E+00  0.20374038851E+01  0.20499524921E+01  0.51100000000E-03 0.  1.
    9000002    1    1    2    0    0 -0.40721304269E-01 -0.65558073730E-03  0.29023957862E-01  0.93933223331E+00  0.93800000000E+00 0.  1.
         22    1    1    2    0    0  0.10896441943E+00  0.21660290051E+00  0.19335721244E+01  0.19487152746E+01  0.00000000000E+00 0.  1.
</event>
<event>
 5    1  0.2111786E+001  0.1528143E+01  0.7818608E-02  0.3435249E+00
         11   -1    0    0    0    0  0.00000000000E+00  0.00000000000E+00  0.39999999674E+01  0.40000000000E+01  0.51100000000E-03 0.  1.
    9000002   -1    0    0    0    0 -0.00000000000E+00 -0.00000000000E+00  0.00000000000E+00  0.93800000000E+00  0.93800000000E+00 0.  1.
         11    1    1    2    0    0  0.20982698510E+00  0.14301025667E+00  0.17904490969E+01  0.18083659826E+01  0.51100000000E-03 0.  1.
    9000002    1    1    2    0    0  0.14856987617E+00  0.38545860570E-01  0.70396006998E-01  0.95307837520E+00  0.93800000000E+00 0.  1.
         22    1    1    2    0    0 -0.35839686127E+00 -0.18155611724E+00  0.21391548634E+01  0.21765556422E+01  0.00000000000E+00 0.  1.
</event>
<event>
 5    1  0.2111786E+001  0.1570010E+01  0.7818608E-02  0.3386571E+00
         11   -1    0    0    0    0  0.00000000000E+00  0.00000000000E+00  0.39999999674E+01  0.40000000000E+01  0.51100000000E-03 0. -1.
    9000002   -1    0    0    0    0 -0.00000000000E+00 -0.00000000000E+00  0.00000000000E+00  0.93800000000E+00  0.93800000000E+00 0.  1.
         11    1    1    2    0    0 -0.15749657024E+00 -0.17448746441E-01  0.11117564970E+01  0.11229926083E+01  0.51100000000E-03 0. -1.
    9000002    1    1    2    0    0 -0.63342561104E-01 -0.16287551204E+00  0.42573090291E-01  0.95509014260E+00  0.93800000000E+00 0.  1.
         22    1    1    2    0    0  0.22083913135E+00  0.18032425848E+00  0.28456703800E+01  0.28599172491E+01  0.00000000000E+00 0.  1.
</event>
<event>
 5    1  0.2111786E+001  0.1556924E+01  0.7818608E-02  0.3401487E+00
         11   -1    0    0    0    0  0.00000000000E+00  0.00000000000E+00  0.39999999674E+01  0.40000000000E+01  0.51100000000E-03 0.  1.
    9000002   -1    0    0    0    0 -0.00000000000E+00 -0.00000000000E+00  0.00000000000E+00  0.93800000000E+00  0.93800000000E+00 0. -1.
         11    1    1    2    0    0 -0.23609473562E+00 -0.15716200198E+00  0.17957709090E+01  0.18180302632E+01  0.51100000000E-03 0.  1.
    9000002    1    1    2    0    0  0.12132525022E+00 -0.26612160070E-01  0.42218559957E-01  0.94712957414E+00  0.93800000000E+00 0. -1.
         22    1    1    2    0    0  0.11476948540E+00  0.18377416205E+00  0.21620104984E+01  0.21728401627E+01  0.00000000000E+00 0. -1.
</event>
<event>
 5    1  0.2111786E+001  0.1518495E+01  0.7818608E-02  0.3446872E+00
         11   -1    0    0    0    0  0.00000000000E+00  0.00000000000E+00  0.39999999674E+01  0.40000000000E+01  0.51100000000E-03 0. -1.
    9000002   -1    0    0    0    0 -0.00000000000E+00 -0.00000000000E+00  0.00000000000E+00  0.93800000000E+00  0.93800000000E+00 0.  1.
         11    1    1    2    0    0 -0.12137641248E+00 -0.45348200177E-01  0.20639870914E+01  0.20680502091E+01  0.51100000000E-03 0. -1.
    9000002    1    1    2    0    0 -0.40750213102E+00  0.14281969744E+00  0.19903463910E+00  0.10516245719E+01  0.93800000000E+00 0.  1.
         22    1    1    2    0    0  0.52887854350E+00 -0.97471497265E-01  0.17369782369E+01  0.18183252190E+01  0.00000000000E+00 0. -1.
</event>
<event>
 5    1  0.2111786E+001  0.1584132E+01  0.7818608E-02  0.3370768E+00
         11   -1    0    0    0    0  0.00000000000E+00  0.00000000000E+00  0.39999999674E+01  0.40000000000E+01  0.51100000000E-03 0. -1.
    9000002   -1    0    0    0    0 -0.00000000000E+00 -0.00000000000E+00  0.00000000000E+00  0.93800000000E+00  0.93800000000E+00 0. -1.
         11    1    1    2    0    0  0.48918111243E-01  0.10236473377E+00  0.47662521484E+00  0.48994221789E+00  0.51100000000E-03 0. -1.
    9000002    1    1    2    0    0  0.17632977758E+00 -0.27337750247E+00  0.83213202502E-01  0.99629106510E+00  0.93800000000E+00 0. -1.
         22    1    1    2    0    0 -0.22524788882E+00  0.17101276869E+00  0.34401615500E+01  0.34517667170E+01  0.00000000000E+00 0. -1.
</event>
<event>
 5    1  0.2111786E+001  0.1517598E+01  0.7818608E-02  0.3447961E+00
         11   -1    0    0    0    0  0.00000000000E+00  0.00000000000E+00  0.39999999674E+01  0.40000000000E+01  0.51100000000E-03 0. -1.
    9000002   -1    0    0    0    0 -0.00000000000E+00 -0.00000000000E+00  0.00000000000E+00  0.93800000000E+00  0.93800000000E+00 0. -1.
         11    1    1    2    0    0  0.96315442413E-01 -0.11459642223E+00  0.16623834954E+00  0.22370617875E+00  0.51100000000E-03 0. -1.
    9000002    1    1    2    0    0  0.15784352480E+00  0.14620473065E+00  0.95296168511E-01  0.96706554138E+00  0.93800000000E+00 0. -1.
         22    1    1    2    0    0 -0.25415896721E+00 -0.31608308423E-01  0.37384654493E+01  0.37472282799E+01  0.00000000000E+00 0. -1.
</event>
<event>
 5    1  0.2111786E+001  0.1558386E+01  0.7818608E-02  0.3399806E+00
         11   -1    0    0    0    0  0.00000000000E+00  0.00000000000E+00  0.39999999674E+01  0.40000000000E+01  0.51100000000E-03 0.  1.
    9000002   -1    0    0    0    0 -0.00000000000E+00 -0.00000000000E+00  0.00000000000E+00  0.93800000000E+00  0.93800000000E+00 0. -1.
         11    1    1    2    0    0 -0.22934429251E+00  0.12457929181E-01  0.17568358611E+01  0.17717862480E+01  0.51100000000E-03 0.  1.
    9000002    1    1    2    0    0 -0.20175923857E-01 -0.13466958781E+00  0.43244924543E-01  0.94881878632E+00  0.93800000000E+00 0. -1.
         22    1    1    2    0    0  0.24952021636E+00  0.12221165863E+00  0.21999191817E+01  0.22173949657E+01  0.00000000000E+00 0.  1.
</event>
<event>
 5    1  0.2111786E+001  0.1564355E+01  0.7818608E-02  0.3392983E+00
         11   -1    0    0    0    0  0.00000000000E+00  0.00000000000E+00  0.39999999674E+01  0.40000000000E+01  0.51100000000E-03 0.  1.
    9000002   -1    0    0    0    0 -0.00000000000E+00 -0.00000000000E+00  0.00000000000E+00  0.93800000000E+00  0.93800000000E+00 0. -1.
         11    1    1    2    0    0 -0.20210389761E+00  0.77021755875E-01  0.21375596824E+01  0.21484738754E+01  0.51100000000E-03 0.  1.
    9000002    1    1    2    0    0 -0.76124546950E-02  0.26509986357E-01  0.26531813734E-01  0.93878041415E+00  0.93800000000E+00 0. -1.
         22    1    1    2    0    0  0.20971635230E+00 -0.10353174223E+00  0.18359084712E+01  0.18507457104E+01  0.00000000000E+00 0.  1.
</event>
<event>
 5    1  0.2111786E+001  0.1526725E+01  0.7818608E-02  0.3436947E+00
         11   -1    0    0    0    0  0.00000000000E+00  0.00000000000E+00  0.39999999674E+01  0.40000000000E+01  0.51100000000E-03 0.  1.
    9000002   -1    0    0    0    0 -0.00000000000E+00 -0.00000000000E+00  0.00000000000E+00  0.93800000000E+00  0.93800000000E+00 0. -1.
         11    1    1    2    0    0 -0.13530912078E+00  0.20041873845E+00  0.34748815483E+01  0.34832855560E+01  0.51100000000E-03 0.  1.
    9000002    1    1    2    0    0 -0.10240169715E-01 -0.48348821848E-01  0.56510625916E-01  0.94099942640E+00  0.93800000000E+00 0. -1.
         22    1    1    2    0    0  0.14554929049E+00 -0.15206991660E+00  0.46860779314E+00  0.51371501759E+00  0.00000000000E+00 0. -1.
</event>
<event>
 5    1  0.2111786E+001  0.1574203E+01  0.7818608E-02  0.3381847E+00
         11   -1    0    0    0    0  0.00000000000E+00  0.00000000000E+00  0.39999999674E+01  0.40000000000E+01  0.51100000000E-03 0.  1.
    9000002   -1    0    0    0    0 -0.00000000000E+00 -0.00000000000E+00  0.00000000000E+00  0.93800000000E+00  0.93800000000E+00 0. -1.
         11    1    1    2    0    0  0.15104843522E+00  0.10872346616E+00  0.19961311430E+01  0.20047883238E+01  0.51100000000E-03 0.  1.
    9000002    1    1    2    0    0  0.33085402082E-01 -0.29996842224E-01  0.20014723048E-01  0.93927580801E+00  0.93800000000E+00 0. -1.
         22    1    1    2    0    0 -0.18413383730E+00 -0.78726623932E-01  0.19838541013E+01  0.19939358682E+01  0.00000000000E+00 0.  1.
</event>
<event>
 5    1  0.2111786E+001  0.1479710E+01  0.7818608E-02  0.3495249E+00
         11   -1    0    0    0    0  0.00000000000E+00  0.00000000000E+00  0.39999999674E+01  0.40000000000E+01  0.51100000000E-03 0.  1.
    9000002   -1    0    0    0    0 -0.00000000000E+00 -0.00000000000E+00  0.00000000000E+00  0.93800000000E+00  0.93800000000E+00 0.  1.
         11    1    1    2    0    0  0.27323400802E+00 -0.81414112957E-01  0.28650314936E+00  0.40418980275E+00  0.51100000000E-03 0.  1.
    9000002    1    1    2    0    0 -0.46309848443E+00  0.16850937535E+00  0.28267263878E+00  0.10966327720E+01  0.93800000000E+00 0.  1.
         22    1    1    2    0    0  0.18986447641E+00 -0.87095262398E-01  0.34308241792E+01  0.34371774253E+01  0.00000000000E+00 0.  1.
</event>
<event>
 5    1  0.2111786E+001  0.1504252E+01  0.7818608E-02  0.3464325E+00
         11   -1    0    0    0    0  0.00000000000E+00  0.00000000000E+00  0.39999999674E+01  0.40000000000E+01  0.51100000000E-03 0. -1.
    9000002   -1    0    0    0    0 -0.00000000000E+00 -0.00000000000E+00  0.00000000000E+00  0.93800000000E+00  0.93800000000E+00 0.  1.
         11    1    1    2    0    0  0.85197702914E-01 -0.28038099559E+00  0.61513868059E+00  0.68137215143E+00  0.51100000000E-03 0. -1.
    9000002    1    1    2    0    0  0.69615726623E-01  0.13680252171E+00  0.89689928183E-01  0.95469867631E+00  0.93800000000E+00 0.  1.
         22    1    1    2    0    0 -0.15481342954E+00  0.14357847388E+00  0.32951713586E+01  0.33019291723E+01  0.00000000000E+00 0. -1.
</event>
<event>
 5    1  0.2111786E+001  0.1476004E+01  0.7818608E-02  0.3500015E+00
         11   -1    0    0    0    0  0.00000000000E+00  0.00000000000E+00  0.39999999674E+01  0.40000000000E+01  0.51100000000E-03 0.  1.
    9000002   -1    0    0    0    0 -0.00000000000E+00 -0.00000000000E+00  0.00000000000E+00  0.93800000000E+00  0.93800000000E+00 0. -1.
         11    1    1    2    0    0 -0.15172521870E+00 -0.23177726505E+00  0.32829639891E+01  0.32946310958E+01  0.51100000000E-03 0.  1.
    9000002    1    1    2    0    0  0.43860736228E-01 -0.73812111944E-01  0.10103432381E+00  0.94732461524E+00  0.93800000000E+00 0. -1.
         22    1    1    2    0    0  0.10786448247E+00  0.30558937700E+00  0.61600165449E+00  0.69604428900E+00  0.00000000000E+00 0.  1.
</event>
<event>
 5    1  0.2111786E+001  0.1528380E+01  0.7818608E-02  0.3434965E+00
         11   -1    0    0    0    0  0.00000000000E+00  0.00000000000E+00  0.39999999674E+01  0.40000000000E+01  0.51100000000E-03 0. -1.
    9000002   -1    0    0    0    0 -0.00000000000E+00 -0.00000000000E+00  0.00000000000E+00  0.93800000000E+00  0.93800000000E+00 0.  1.
         11    1    1    2    0    0 -0.35072766993E+00 -0.32453889358E-01  0.16499609819E+01  0.16871380075E+01  0.51100000000E-03 0. -1.
    9000002    1    1    2    0    0  0.79628383492E-01  0.72706855549E-01  0.61724121416E-01  0.94619280988E+00  0.93800000000E+00 0.  1.
         22    1    1    2    0    0  0.27109928644E+00 -0.40252966191E-01  0.22883148640E+01  0.23046691826E+01  0.00000000000E+00 0.  1.
</event>
<event>
 5    1  0.2111786E+001  0.1511769E+01  0.7818608E-02  0.3455071E+00
         11   -1    0    0    0    0  0.00000000000E+00  0.00000000000E+00  0.39999999674E+01  0.40000000000E+01  0.51100000000E-03 0. -1.
    9000002   -1    0    0    0    0 -0.00000000000E+00 -0.00000000000E+00  0.00000000000E+00  0.93800000000E+00  0.93800000000E+00 0.  1.
         11    1    1    2    0    0 -0.36175332075E+00  0.11156663025E+00  0.20723660299E+01  0.21066593937E+01  0.51100000000E-03 0. -1.
    9000002    1    1    2    0    0  0.95056150802E-01  0.11558440767E+00  0.82716750168E-01  0.95345764870E+00  0.93800000000E+00 0.  1.
         22    1    1    2    0    0  0.26669716995E+00 -0.22715103792E+00  0.18449171872E+01  0.18778829576E+01  0.00000000000E+00 0.  1.
</event>
<event>
 5    1  0.2111786E+001  0.1566213E+01  0.7818608E-02  0.3390871E+00
         11   -1    0    0    0    0  0.00000000000E+00  0.00000000000E+00  0.39999999674E+01  0.40000000000E+01  0.51100000000E-03 0. -1.
    9000002   -1    0    0    0    0 -0.00000000000E+00 -0.00000000000E+00  0.00000000000E+00  0.93800000000E+00  0.93800000000E+00 0. -1.
         11    1    1    2    0    0  0.38470291133E-01  0.20136898138E+00  0.21179639469E+01  0.21278630058E+01  0.51100000000E-03 0. -1.
    9000002    1    1    2    0    0 -0.18825282964E-01  0.30842614231E-01  0.25510447396E-01  0.93904229993E+00  0.93800000000E+00 0. -1.
         22    1    1    2    0    0 -0.19645008169E-01 -0.23221159562E+00  0.18565255731E+01  0.18710946943E+01  0.00000000000E+00 0. -1.
</event>
<event>
 5    1  0.2111786E+001  0.1555238E+01  0.7818608E-02  0.3403427E+00
         11   -1    0    0    0    0  0.00000000000E+00  0.00000000000E+00  0.39999999674E+01  0.40000000000E+01  0.51100000000E-03 0.  1.
    9000002   -1    0    0    0    0 -0.00000000000E+00 -0.00000000000E+00  0.00000000000E+00  0.93800000000E+00  0.93800000000E+00 0.  1.
         11    1    1    2    0    0  0.17656958415E+00 -0.11158680052E+00  0.85750081736E+00  0.88257370513E+00  0.51100000000E-03 0.  1.
    9000002    1    1    2    0    0  0.40641614083E-01  0.63013767080E-01  0.36747720343E-01  0.94170954683E+00  0.93800000000E+00 0.  1.
         22    1    1    2    0    0 -0.21721119823E+00  0.48573033435E-01  0.31057514297E+01  0.31137167480E+01  0.00000000000E+00 0.  1.
</event>
<event>
 5    1  0.2111786E+001  0.1412335E+01  0.7818608E-02  0.3587307E+00
         11   -1    0    0    0    0  0.00000000000E+00  0.00000000000E+00  0.39999999674E+01  0.40000000000E+01  0.51100000000E-03 0. -1.
    9000002   -1    0    0    0    0 -0.00000000000E+00 -0.00000000000E+00  0.00000000000E+00  0.93800000000E+00  0.93800000000E+00 0.  1.
         11    1    1    2    0    0  0.33304606859E+00  0.19315635117E+00  0.34051966739E+01  0.34268927192E+01  0.51100000000E-03 0. -1.
    9000002    1    1    2    0    0 -0.44417334979E-01 -0.86856780542E-02  0.15205808693E+00  0.95132223902E+00  0.93800000000E+00 0.  1.
         22    1    1    2    0    0 -0.28862873361E+00 -0.18447067311E+00  0.44274520650E+00  0.55978504176E+00  0.00000000000E+00 0. -1.
</event>
<event>
 5    1  0.2111786E+001  0.1591004E+01  0.7818608E-02  0.3363186E+00
         11   -1    0    0    0    0  0.00000000000E+00  0.00000000000E+00  0.39999999674E+01  0.40000000000E+01  0.51100000000E-03 0.  1.
    9000002   -1    0    0    0    0 -0.00000000000E+00 -0.00000000000E+00  0.00000000000E+00  0.93800000000E+00  0.93800000000E+00 0. -1.
         11    1    1    2    0    0  0.69120601873E-02 -0.13258413874E-01  0.17052641956E+01  0.17053298215E+01  0.51100000000E-03 0.  1.
    9000002    1    1    2    0    0  0.44275143319E-01 -0.22006598169E+00  0.39998830309E-01  0.96531509417E+00  0.93800000000E+00 0. -1.
         22    1    1    2    0    0 -0.51187203507E-01  0.23332439556E+00  0.22547369414E+01  0.22673550843E+01  0.00000000000E+00 0.  1.
</event>
<event>
 5    1  0.2111786E+001  0.1562399E+01  0.7818608E-02  0.3395214E+00
         11   -1    0    0    0    0  0.00000000000E+00  0.00000000000E+00  0.39999999674E+01  0.40000000000E+01  0.51100000000E-03 0. -1.
    9000002   -1    0    0    0    0 -0.00000000000E+00 -0.00000000000E+00  0.00000000000E+00  0.93800000000E+00  0.93800000000E+00 0.  1.
         11    1    1    2    0    0  0.23326656734E+00 -0.12016895403E+00  0.19368333361E+01  0.19545274369E+01  0.51100000000E-03 0. -1.
    9000002    1    1    2    0    0 -0.34537464378E-01  0.73287640590E-01  0.31965836454E-01  0.94203488758E+00  0.93800000000E+00 0.  1.
         22    1    1    2    0    0 -0.19872910296E+00  0.46881313444E-01  0.20312007949E+01  0.20414376755E+01  0.00000000000E+00 0. -1.
</event>
<event>
 5    1  0.2111786E+001  0.1594394E+01  0.7818608E-02  0.3359470E+00
         11   -1    0    0    0    0  0.00000000000E+00  0.00000000000E+00  0.39999999674E+01  0.40000000000E+01  0.51100000000E-03 0. -1.
    9000002   -1    0    0    0    0 -0.00000000000E+00 -0.00000000000E+00  0.00000000000E+00  0.93800000000E+00  0.93800000000E+00 0.  1.
         11    1    1    2    0    0  0.91614544757E-01  0.12079807992E+00  0.84139065249E+00  0.85494087055E+00  0.51100000000E-03 0. -1.
    9000002    1    1    2    0    0 -0.17729220358E+00 -0.33260314535E+00  0.99885857484E-01  0.10158142361E+01  0.93800000000E+00 0.  1.
         22    1    1    2    0    0  0.85677658824E-01  0.21180506543E+00  0.30587234574E+01  0.30672448933E+01  0.00000000000E+00 0. -1.
</event>
<event>
 5    1  0.2111786E+001  0.1487338E+01  0.7818608E-02  0.3485520E+00
         11   -1    0    0    0    0  0.00000000000E+00  0.00000000000E+00  0.39999999674E+01  0.40000000000E+01  0.51100000000E-03 0.  1.
    9000002   -1    0    0    0    0 -0.00000000000E+00 -0.00000000000E+00  0.00000000000E+00  0.93800000000E+00  0.93800000000E+00 0. -1.
         11    1    1    2    0    0 -0.35387726499E-01  0.43814242945E+00  0.65393065348E+00  0.78793822115E+00  0.51100000000E-03 0.  1.
    9000002    1    1    2    0    0  0.11384286321E+00 -0.15707843935E+00  0.18500053138E+00  0.97555267937E+00  0.93800000000E+00 0. -1.
         22    1    1    2    0    0 -0.78455136715E-01 -0.28106399010E+00  0.31610687825E+01  0.31745090995E+01  0.00000000000E+00 0.  1.
</event>
<event>
 5    1  0.2111786E+001  0.1298545E+01  0.7818608E-02  0.3784722E+00
         11   -1    0    0    0    0  0.00000000000E+00  0.00000000000E+00  0.39999999674E+01  0.40000000000E+01  0.51100000000E-03 0.  1.
    9000002   -1    0    0    0    0 -0.00000000000E+00 -0.00000000000E+00  0.00000000000E+00  0.93800000000E+00  0.93800000000E+00 0. -1.
         11    1    1    2    0    0 -0.72215559419E+00  0.47099034563E-01  0.25704662630E+01  0.26703977403E+01  0.51100000000E-03 0.  1.
    9000002    1    1    2    0    0  0.30726867350E+00  0.37316091562E+00  0.50327025488E+00  0.11690971115E+01  0.93800000000E+00 0. -1.
         22    1    1    2    0    0  0.41488692070E+00 -0.42025995019E+00  0.92626344947E+00  0.10985051482E+01  0.00000000000E+00 0. -1.
</event>
<event>
 5    1  0.2111786E+001  0.1548639E+01  0.7818608E-02  0.3411067E+00
         11   -1    0    0    0    0  0.00000000000E+00  0.00000000000E+00  0.39999999674E+01  0.40000000000E+01  0.51100000000E-03 0.  1.
    9000002   -1    0    0    0    0 -0.00000000000E+00 -0.00000000000E+00  0.00000000000E+00  0.93800000000E+00  0.93800000000E+00 0.  1.
         11    1    1    2    0    0 -0.43817148541E-01  0.10931036028E+00  0.26141017403E+01  0.26167531154E+01  0.51100000000E-03 0.  1.
    9000002    1    1    2    0    0  0.41203953145E-01  0.22229010431E+00  0.73559859906E-01  0.96765991403E+00  0.93800000000E+00 0.  1.
         22    1    1    2    0    0  0.26131953953E-02 -0.33160046459E+00  0.13123383672E+01  0.13535869705E+01  0.00000000000E+00 0. -1.
</event>
<event>
 5    1  0.2111786E+001  0.1519269E+01  0.7818608E-02  0.3445935E+00
         11   -1    0    0    0    0  0.00000000000E+00  0.00000000000E+00  0.39999999674E+01  0.40000000000E+01  0.51100000000E-03 0. -1.
    9000002   -1    0    0    0    0 -0.00000000000E+00 -0.00000000000E+00  0.00000000000E+00  0.93800000000E+00  0.93800000000E+00 0. -1.
         11    1    1    2    0    0  0.77297644634E-01 -0.12575102590E+00  0.18579048483E+00  0.23729014256E+00  0.51100000000E-03 0. -1.
    9000002    1    1    2    0    0  0.49339384340E-01 -0.97543040174E-01  0.69164605130E-01  0.94687737439E+00  0.93800000000E+00 0. -1.
         22    1    1    2    0    0 -0.12663702897E+00  0.22329406608E+00  0.37450448774E+01  0.37538324830E+01  0.00000000000E+00 0. -1.
</event>
<event>
 5    1  0.2111786E+001  0.1584385E+01  0.7818608E-02  0.3370487E+00
         11   -1    0    0    0    0  0.00000000000E+00  0.00000000000E+00  0.39999999674E+01  0.40000000000E+01  0.51100000000E-03 0. -1.
    9000002   -1    0    0    0    0 -0.00000000000E+00 -0.00000000000E+00  0.00000000000E+00  0.93800000000E+00  0.93800000000E+00 0. -1.
         11    1    1    2    0    0 -0.37607684612E-01 -0.17159925896E+00  0.92573814140E+00  0.94225899369E+00  0.51100000000E-03 0. -1.
    9000002    1    1    2    0    0  0.24648441091E+00  0.19672095915E+00  0.78611376510E-01  0.99271216831E+00  0.93800000000E+00 0. -1.
         22    1    1    2    0    0 -0.20887672630E+00 -0.25121700191E-01  0.29956504494E+01  0.30030288380E+01  0.00000000000E+00 0. -1.
</event>
<event>
 5    1  0.2111786E+001  0.1543818E+01  0.7818608E-02  0.3416693E+00
         11   -1    0    0    0    0  0.00000000000E+00  0.00000000000E+00  0.39999999674E+01  0.40000000000E+01  0.51100000000E-03 0. -1.
    9000002   -1    0    0    0    0 -0.00000000000E+00 -0.00000000000E+00  0.00000000000E+00  0.93800000000E+00  0.93800000000E+00 0.  1.
         11    1    1    2    0    0 -0.21746791933E-01 -0.30086932342E+00  0.96728888392E+00  0.10132340888E+01  0.51100000000E-03 0. -1.
    9000002    1    1    2    0    0 -0.18700538318E+00  0.25108219087E+00  0.11087956295E+00  0.99506359465E+00  0.93800000000E+00 0.  1.
         22    1    1    2    0    0  0.20875217511E+00  0.49787132546E-01  0.29218315205E+01  0.29297023165E+01  0.00000000000E+00 0. -1.
</event>
<event>
 5    1  0.2114115E+001  0.1560330E+01  0.7818608E-02  0.3397578E+00
         11   -1    0    0    0    0  0.00000000000E+00  0.00000000000E+00  0.39999999674E+01  0.40000000000E+01  0.51100000000E-03 0. -1.
    9000002   -1    0    0    0    0 -0.00000000000E+00 -0.00000000000E+00  0.00000000000E+00  0.93800000000E+00  0.93800000000E+00 0. -1.
         11    1    1    2    0    0  0.10989454479E+00 -0.19065112001E+00  0.11972793496E+01  0.12173342855E+01  0.51100000000E-03 0. -1.
    9000002    1    1    2    0    0 -0.18382625516E-01 -0.76222007673E-02  0.29307450419E-01  0.93866870914E+00  0.93800000000E+00 0. -1.
         22    1    1    2    0    0 -0.91511919273E-01  0.19827332078E+00  0.27734131673E+01  0.27819970054E+01  0.00000000000E+00 0. -1.
</event>
<event>
 5    1  0.2111786E+001  0.1563654E+01  0.7818608E-02  0.3393782E+00
         11   -1    0    0    0    0  0.00000000000E+00  0.00000000000E+00  0.39999999674E+01  0.40000000000E+01  0.51100000000E-03 0. -1.
    9000002   -1    0    0    0    0 -0.00000000000E+00 -0.00000000000E+00  0.00000000000E+00  0.93800000000E+00  0.93800000000E+00 0. -1.
         11    1    1    2    0    0 -0.74500346445E-01  0.21448809139E+00  0.21603362388E+01  0.21722357996E+01  0.51100000000E-03 0. -1.
    9000002    1    1    2    0    0  0.60162833166E-01  0.16800834513E-01  0.29200752140E-01  0.94053097687E+00  0.93800000000E+00 0. -1.
         22    1    1    2    0    0  0.14337513280E-01 -0.23128892590E+00  0.18104629764E+01  0.18252332236E+01  0.00000000000E+00 0. -1.
</event>
<event>
 5    1  0.2111786E+001  0.1567662E+01  0.7818608E-02  0.3389227E+00
         11   -1    0    0    0    0  0.00000000000E+00  0.00000000000E+00  0.39999999674E+01  0.40000000000E+01  0.51100000000E-03 0.  1.
    9000002   -1    0    0    0    0 -0.00000000000E+00 -0.00000000000E+00  0.00000000000E+00  0.93800000000E+00  0.93800000000E+00 0.  1.
         11    1    1    2    0    0  0.22762263068E-01 -0.13430181973E+00  0.26041620792E+01  0.26077222811E+01  0.51100000000E-03 0.  1.
    9000002    1    1    2    0    0  0.10203298107E+00 -0.75894548755E-01  0.34545097022E-01  0.94721068168E+00  0.93800000000E+00 0.  1.
         22    1    1    2    0    0 -0.12479524414E+00  0.21019636849E+00  0.13612927911E+01  0.13830670372E+01  0.00000000000E+00 0.  1.
</event>
<event>
 5    1  0.2111786E+001  0.1546105E+01  0.7818608E-02  0.3414020E+00
         11   -1    0    0    0    0  0.00000000000E+00  0.00000000000E+00  0.39999999674E+01  0.40000000000E+01  0.51100000000E-03 0.  1.
    9000002   -1    0    0    0    0 -0.00000000000E+00 -0.00000000000E+00  0.00000000000E+00  0.93800000000E+00  0.93800000000E+00 0.  1.
         11    1    1    2    0    0  0.13944443397E-01 -0.28431051207E+00  0.16651686043E+01  0.16893234316E+01  0.51100000000E-03 0.  1.
    9000002    1    1    2    0    0  0.54049023538E-01  0.27786862289E-01  0.42386348198E-01  0.94092189324E+00  0.93800000000E+00 0.  1.
         22    1    1    2    0    0 -0.67993466935E-01  0.25652364978E+00  0.22924450149E+01  0.23077546752E+01  0.00000000000E+00 0.  1.
</event>
<event>
 5    1  0.2111786E+001  0.1596069E+01  0.7818608E-02  0.3357642E+00
         11   -1    0    0    0    0  0.00000000000E+00  0.00000000000E+00  0.39999999674E+01  0.40000000000E+01  0.51100000000E-03 0.  1.
    9000002   -1    0    0    0    0 -0.00000000000E+00 -0.00000000000E+00  0.00000000000E+00  0.93800000000E+00  0.93800000000E+00 0.  1.
         11    1    1    2    0    0 -0.15085899168E+00  0.43194800531E-01  0.19110355745E+01  0.19174674585E+01  0.51100000000E-03 0.  1.
    9000002    1    1    2    0    0  0.45030457607E+00 -0.71743065604E-01  0.14448049250E+00  0.10529196985E+01  0.93800000000E+00 0.  1.
         22    1    1    2    0    0 -0.29944558440E+00  0.28548265073E-01  0.19444839003E+01  0.19676128430E+01  0.00000000000E+00 0.  1.
</event>
<event>
 5    1  0.2111786E+001  0.1568679E+01  0.7818608E-02  0.3388076E+00
         11   -1    0    0    0    0  0.00000000000E+00  0.00000000000E+00  0.39999999674E+01  0.40000000000E+01  0.51100000000E-03 0. -1.
    9000002   -1    0    0    0    0 -0.00000000000E+00 -0.00000000000E+00  0.00000000000E+00  0.93800000000E+00  0.93800000000E+00 0. -1.
         11    1    1    2    0    0  0.14427572633E+00  0.15051580229E+00  0.15445624237E+01  0.15585710872E+01  0.51100000000E-03 0. -1.
    9000002    1    1    2    0    0 -0.33626255995E-01  0.23241035910E-01  0.23913714022E-01  0.93919472771E+00  0.93800000000E+00 0. -1.
         22    1    1    2    0    0 -0.11064947034E+00 -0.17375683820E+00  0.24315238297E+01  0.24402341851E+01  0.00000000000E+00 0.  1.
</event>
<event>
 5    1  0.2111786E+001  0.1483438E+01  0.7818608E-02  0.3490481E+00
         11   -1    0    0    0    0  0.00000000000E+00  0.00000000000E+00  0.39999999674E+01  0.40000000000E+01  0.51100000000E-03 0. -1.
    9000002   -1    0    0    0    0 -0.00000000000E+00 -0.00000000000E+00  0.00000000000E+00  0.93800000000E+00  0.93800000000E+00 0. -1.
         11    1    1    2    0    0 -0.88549960331E-01  0.75080982958E+00  0.24796492799E+01  0.25923381932E+01  0.51100000000E-03 0. -1.
    9000002    1    1    2    0    0  0.22744038649E+00 -0.54825077350E+00  0.37102839330E+00  0.11703905795E+01  0.93800000000E+00 0. -1.
         22    1    1    2    0    0 -0.13889042616E+00 -0.20255905608E+00  0.11493222942E+01  0.11752712272E+01  0.00000000000E+00 0. -1.
</event>
<event>
 5    1  0.2111786E+001  0.1556737E+01  0.7818608E-02  0.3401701E+00
         11   -1    0    0    0    0  0.00000000000E+00  0.00000000000E+00  0.39999999674E+01  0.40000000000E+01  0.51100000000E-03 0. -1.
    9000002   -1    0    0    0    0 -0.00000000000E+00 -0.00000000000E+00  0.00000000000E+00  0.93800000000E+00  0.93800000000E+00 0. -1.
         11    1    1    2    0    0 -0.18420237926E+00 -0.81385871364E-01  0.87856204059E+00  0.90134660196E+00  0.51100000000E-03 0. -1.
    9000002    1    1    2    0    0 -0.52185263000E-01  0.54078550678E-01  0.35625831503E-01  0.94167987723E+00  0.93800000000E+00 0. -1.
         22    1    1    2    0    0  0.23638764226E+00  0.27307320686E-01  0.30858120953E+01  0.30949735208E+01  0.00000000000E+00 0. -1.
</event>
<event>
 5    1  0.2111786E+001  0.1582712E+01  0.7818608E-02  0.3372343E+00
         11   -1    0    0    0    0  0.00000000000E+00  0.00000000000E+00  0.39999999674E+01  0.40000000000E+01  0.51100000000E-03 0.  1.
    9000002   -1    0    0    0    0 -0.00000000000E+00 -0.00000000000E+00  0.00000000000E+00  0.93800000000E+00  0.93800000000E+00 0. -1.
         11    1    1    2    0    0  0.10782349878E+00  0.24121229440E+00  0.28153810326E+01  0.28277517391E+01  0.51100000000E-03 0.  1.
    9000002    1    1    2    0    0 -0.31222276706E+00 -0.22878885720E+00  0.11502219193E+00  0.10212254903E+01  0.93800000000E+00 0. -1.
         22    1    1    2    0    0  0.20439926828E+00 -0.12423437193E-01  0.10695967428E+01  0.10890227706E+01  0.00000000000E+00 0.  1.
</event>
<event>
 5    1  0.2111786E+001  0.1568797E+01  0.7818608E-02  0.3387942E+00
         11   -1    0    0    0    0  0.00000000000E+00  0.00000000000E+00  0.39999999674E+01  0.40000000000E+01  0.51100000000E-03 0.  1.
    9000002   -1    0    0    0    0 -0.00000000000E+00 -0.00000000000E+00  0.00000000000E+00  0.93800000000E+00  0.93800000000E+00 0. -1.
         11    1    1    2    0    0  0.20117785542E+00 -0.40343541607E-01  0.24180102771E+01  0.24267002477E+01  0.51100000000E-03 0.  1.
    9000002    1    1    2    0    0 -0.63205309251E-01  0.27139118442E+00  0.76007748987E-01  0.98146281845E+00  0.93800000000E+00 0. -1.
         22    1    1    2    0    0 -0.13797254617E+00 -0.23104764282E+00  0.15059819413E+01  0.15298369339E+01  0.00000000000E+00 0. -1.
</event>
<event>
 5    1  0.2111786E+001  0.1543103E+01  0.7818608E-02  0.3417531E+00
         11   -1    0    0    0    0  0.00000000000E+00  0.00000000000E+00  0.39999999674E+01  0.40000000000E+01  0.51100000000E-03 0. -1.
    9000002   -1    0    0    0    0 -0.00000000000E+00 -0.00000000000E+00  0.00000000000E+00  0.93800000000E+00  0.93800000000E+00 0.  1.
         11    1    1    2    0    0 -0.30428076014E+00 -0.21449380639E-01  0.15127757171E+01  0.15432230844E+01  0.51100000000E-03 0. -1.
    9000002    1    1    2    0    0  0.70497389168E-01  0.12954183208E+00  0.57311186925E-01  0.95125156519E+00  0.93800000000E+00 0.  1.
         22    1    1    2    0    0  0.23378337097E+00 -0.10809245144E+00  0.24299130634E+01  0.24435253504E+01  0.00000000000E+00 0. -1.
</event>
<event>
 5    1  0.2111786E+001  0.1552259E+01  0.7818608E-02  0.3406868E+00
         11   -1    0    0    0    0  0.00000000000E+00  0.00000000000E+00  0.39999999674E+01  0.40000000000E+01  0.51100000000E-03 0. -1.
    9000002   -1    0    0    0    0 -0.00000000000E+00 -0.00000000000E+00  0.00000000000E+00  0.93800000000E+00  0.93800000000E+00 0.  1.
         11    1    1    2    0    0 -0.84447545999E-01  0.29854314165E+00  0.21593349886E+01  0.21815103139E+01  0.51100000000E-03 0. -1.
    9000002    1    1    2    0    0  0.11302481994E+00 -0.70728558632E-01  0.47429287571E-01  0.94861513600E+00  0.93800000000E+00 0.  1.
         22    1    1    2    0    0 -0.28577273941E-01 -0.22781458302E+00  0.17932356912E+01  0.18078745501E+01  0.00000000000E+00 0. -1.
</event>
<event>
 5    1  0.2111786E+001  0.1473109E+01  0.7818608E-02  0.3503758E+00
         11   -1    0    0    0    0  0.00000000000E+00  0.00000000000E+00  0.39999999674E+01  0.40000000000E+01  0.51100000000E-03 0.  1.
    9000002   -1    0    0    0    0 -0.00000000000E+00 -0.00000000000E+00  0.00000000000E+00  0.93800000000E+00  0.93800000000E+00 0.  1.
         11    1    1    2    0    0 -0.23060971527E+00  0.15130148916E+00  0.27937040296E+01  0.28072861357E+01  0.51100000000E-03 0.  1.
    9000002    1    1    2    0    0 -0.17503571243E+00  0.34916501596E-02  0.12105781146E+00  0.96184649813E+00  0.93800000000E+00 0.  1.
         22    1    1    2    0    0  0.40564542770E+00 -0.15479313932E+00  0.10852381263E+01  0.11688673662E+01  0.00000000000E+00 0.  1.
</event>
<event>
 5    1  0.2111786E+001  0.1578538E+01  0.7818608E-02  0.3376992E+00
         11   -1    0    0    0    0  0.00000000000E+00  0.00000000000E+00  0.39999999674E+01  0.40000000000E+01  0.51100000000E-03 0. -1.
    9000002   -1    0    0    0    0 -0.00000000000E+00 -0.00000000000E+00  0.00000000000E+00  0.93800000000E+00  0.93800000000E+00 0.  1.
         11    1    1    2    0    0  0.14152525695E+00  0.66786077599E-01  0.21583816291E+01  0.21640474340E+01  0.51100000000E-03 0. -1.
    9000002    1    1    2    0    0  0.56966339074E-01 -0.16802171639E+00  0.36703594098E-01  0.95533638829E+00  0.93800000000E+00 0.  1.
         22    1    1    2    0    0 -0.19849159602E+00  0.10123563879E+00  0.18049147442E+01  0.18186161778E+01  0.00000000000E+00 0. -1.
</event>
<event>
 5    1  0.2111786E+001  0.1586626E+01  0.7818608E-02  0.3368008E+00
         11   -1    0    0    0    0  0.00000000000E+00  0.00000000000E+00  0.39999999674E+01  0.40000000000E+01  0.51100000000E-03 0.  1.
    9000002   -1    0    0    0    0 -0.00000000000E+00 -0.00000000000E+00  0.00000000000E+00  0.93800000000E+00  0.93800000000E+00 0.  1.
         11    1    1    2    0    0  0.98070797890E-01  0.44459625776E-01  0.87433244997E+00  0.88093815555E+00  0.51100000000E-03 0.  1.
    9000002    1    1    2    0    0  0.72102286658E-01 -0.18461383390E+00  0.35840308754E-01  0.95937976586E+00  0.93800000000E+00 0.  1.
         22    1    1    2    0    0 -0.17017308455E+00  0.14015420812E+00  0.30898272086E+01  0.30976820786E+01  0.00000000000E+00 0.  1.
</event>
<event>
 5    1  0.2111786E+001  0.1554672E+01  0.7818608E-02  0.3404080E+00
         11   -1    0    0    0    0  0.00000000000E+00  0.00000000000E+00  0.39999999674E+01  0.40000000000E+01  0.51100000000E-03 0.  1.
    9000002   -1    0    0    0    0 -0.00000000000E+00 -0.00000000000E+00  0.00000000000E+00  0.93800000000E+00  0.93800000000E+00 0.  1.
         11    1    1    2    0    0  0.22189005489E+00  0.12081016788E+00  0.19343461385E+01  0.19507756246E+01  0.51100000000E-03 0.  1.
    9000002    1    1    2    0    0 -0.50960070150E-01  0.84759860726E-01  0.40045554778E-01  0.94404915613E+00  0.93800000000E+00 0.  1.
         22    1    1    2    0    0 -0.17092998474E+00 -0.20557002860E+00  0.20256082741E+01  0.20431752193E+01  0.00000000000E+00 0.  1.
</event>
<event>
 5    1  0.2111786E+001  0.1582378E+01  0.7818608E-02  0.3372714E+00
         11   -1    0    0    0    0  0.00000000000E+00  0.00000000000E+00  0.39999999674E+01  0.40000000000E+01  0.51100000000E-03 0. -1.
    9000002   -1    0    0    0    0 -0.00000000000E+00 -0.00000000000E+00  0.00000000000E+00  0.93800000000E+00  0.93800000000E+00 0. -1.
         11    1    1    2    0    0 -0.13580308848E+00  0.10553335169E+00  0.15618608551E+01  0.15713018039E+01  0.51100000000E-03 0. -1.
    9000002    1    1    2    0    0  0.18307250466E+00  0.90001716261E-01  0.40653323187E-01  0.96078746015E+00  0.93800000000E+00 0. -1.
         22    1    1    2    0    0 -0.47269416185E-01 -0.19553506795E+00  0.23974857891E+01  0.24059107360E+01  0.00000000000E+00 0. -1.
</event>
<event>
 5    1  0.2111786E+001  0.1535757E+01  0.7818608E-02  0.3426184E+00
         11   -1    0    0    0    0  0.00000000000E+00  0.00000000000E+00  0.39999999674E+01  0.40000000000E+01  0.51100000000E-03 0. -1.
    9000002   -1    0    0    0    0 -0.00000000000E+00 -0.00000000000E+00  0.00000000000E+00  0.93800000000E+00  0.93800000000E+00 0.  1.
         11    1    1    2    0    0  0.16302695871E+00  0.19100532339E+00  0.91752102630E+00  0.95126542966E+00  0.51100000000E-03 0. -1.
    9000002    1    1    2    0    0  0.71432392421E-01 -0.25181570726E-01  0.51796989789E-01  0.94247738771E+00  0.93800000000E+00 0.  1.
         22    1    1    2    0    0 -0.23445935113E+00 -0.16582375266E+00  0.30306819513E+01  0.30442571826E+01  0.00000000000E+00 0.  1.
</event>
<event>
 5    1  0.2111786E+001  0.1539363E+01  0.7818608E-02  0.3421926E+00
         11   -1    0    0    0    0  0.00000000000E+00  0.00000000000E+00  0.39999999674E+01  0.40000000000E+01  0.51100000000E-03 0.  1.
    9000002   -1    0    0    0    0 -0.00000000000E+00 -0.00000000000E+00  0.00000000000E+00  0.93800000000E+00  0.93800000000E+00 0.  1.
         11    1    1    2    0    0  0.31575469949E+00 -0.53090157806E+00  0.29463896157E+01  0.30104434132E+01  0.51100000000E-03 0.  1.
    9000002    1    1    2    0    0 -0.11679356746E+00  0.55982791344E+00  0.28761038256E+00  0.11356107441E+01  0.93800000000E+00 0.  1.
         22    1    1    2    0    0 -0.19896113202E+00 -0.28926335373E-01  0.76599996912E+00  0.79194584261E+00  0.00000000000E+00 0. -1.
</event>
<event>
 5    1  0.2111786E+001  0.1481788E+01  0.7818608E-02  0.3492589E+00
         11   -1    0    0    0    0  0.00000000000E+00  0.00000000000E+00  0.39999999674E+01  0.40000000000E+01  0.51100000000E-03 0.  1.
    9000002   -1    0    0    0    0 -0.00000000000E+00 -0.00000000000E+00  0.00000000000E+00  0.93800000000E+00  0.93800000000E+00 0. -1.
         11    1    1    2    0    0  0.91225327328E-01 -0.11432875573E+00  0.86275174272E-01  0.16981399103E+00  0.51100000000E-03 0.  1.
    9000002    1    1    2    0    0 -0.11646819474E+00 -0.10189181714E+00  0.10862549354E+00  0.95686481837E+00  0.93800000000E+00 0. -1.
         22    1    1    2    0    0  0.25242867413E-01  0.21622057287E+00  0.38050992996E+01  0.38113211906E+01  0.00000000000E+00 0.  1.
</event>
<event>
 5    1  0.2111786E+001  0.1539845E+01  0.7818608E-02  0.3421359E+00
         11   -1    0    0    0    0  0.00000000000E+00  0.00000000000E+00  0.39999999674E+01  0.40000000000E+01  0.51100000000E-03 0.  1.
    9000002   -1    0    0    0    0 -0.00000000000E+00 -0.00000000000E+00  0.00000000000E+00  0.93800000000E+00  0.93800000000E+00 0.  1.
         11    1    1    2    0    0 -0.66161491570E-01  0.40978588137E+00  0.44351298076E+00  0.60745850621E+00  0.51100000000E-03 0.  1.
    9000002    1    1    2    0    0 -0.51838477882E-01 -0.71545569306E-01  0.21043367475E+00  0.96536642149E+00  0.93800000000E+00 0. -1.
         22    1    1    2    0    0  0.11799996945E+00 -0.33824031207E+00  0.33460533118E+01  0.33651750723E+01  0.00000000000E+00 0.  1.
</event>
<event>
 5    1  0.2111786E+001  0.1540220E+01  0.7818608E-02  0.3420917E+00
         11   -1    0    0    0    0  0.00000000000E+00  0.00000000000E+00  0.39999999674E+01  0.40000000000E+01  0.51100000000E-03 0. -1.
    9000002   -1    0    0    0    0 -0.00000000000E+00 -0.00000000000E+00  0.00000000000E+00  0.93800000000E+00  0.93800000000E+00 0.  1.
         11    1    1    2    0    0 -0.24553281378E+00  0.10201854846E+00  0.15065290236E+01  0.15298117881E+01  0.51100000000E-03 0. -1.
    9000002    1    1    2    0    0 -0.38954298571E-01  0.36685583685E-01  0.46331692506E-01  0.94066672906E+00  0.93800000000E+00 0.  1.
         22    1    1    2    0    0  0.28448711235E+00 -0.13870413214E+00  0.24471392512E+01  0.24675214828E+01  0.00000000000E+00 0. -1.
</event>
<event>
 5    1  0.2111786E+001  0.1506336E+01  0.7818608E-02  0.3461749E+00
         11   -1    0    0    0    0  0.00000000000E+00  0.00000000000E+00  0.39999999674E+01  0.40000000000E+01  0.51100000000E-03 0.  1.
    9000002   -1    0    0    0    0 -0.00000000000E+00 -0.00000000000E+00  0.00000000000E+00  0.93800000000E+00  0.93800000000E+00 0.  1.
         11    1    1    2    0    0 -0.99581816024E-01  0.33547962913E+00  0.10729378365E+01  0.11285650100E+01  0.51100000000E-03 0.  1.
    9000002    1    1    2    0    0  0.18452358639E-01 -0.71697053228E-01  0.74836018561E-01  0.94388843973E+00  0.93800000000E+00 0.  1.
         22    1    1    2    0    0  0.81129457385E-01 -0.26378257590E+00  0.28522261123E+01  0.28655465503E+01  0.00000000000E+00 0.  1.
</event>
<event>
 5    1  0.2111786E+001  0.1477280E+01  0.7818608E-02  0.3498372E+00
         11   -1    0    0    0    0  0.00000000000E+00  0.00000000000E+00  0.39999999674E+01  0.40000000000E+01  0.51100000000E-03 0. -1.
    9000002   -1    0    0    0    0 -0.00000000000E+00 -0.00000000000E+00  0.00000000000E+00  0.93800000000E+00  0.93800000000E+00 0. -1.
         11    1    1    2    0    0 -0.55999697339E-01 -0.35585319444E+00  0.26537403466E+01  0.26780787050E+01  0.51100000000E-03 0. -1.
    9000002    1    1    2    0    0  0.34772390081E+00  0.17944262765E-01  0.18724803220E+00  0.10179094917E+01  0.93800000000E+00 0. -1.
         22    1    1    2    0    0 -0.29172420347E+00  0.33790893167E+00  0.11590115886E+01  0.12420118033E+01  0.00000000000E+00 0. -1.
</event>
<event>
 5    1  0.2111786E+001  0.1553395E+01  0.7818608E-02  0.3405554E+00
         11   -1    0    0    0    0  0.00000000000E+00  0.00000000000E+00  0.39999999674E+01  0.40000000000E+01  0.51100000000E-03 0.  1.
    9000002   -1    0    0    0    0 -0.00000000000E+00 -0.00000000000E+00  0.00000000000E+00  0.93800000000E+00  0.93800000000E+00 0.  1.
         11    1    1    2    0    0 -0.25871555358E+00  0.17003237122E-01  0.29998384473E+01  0.30110220555E+01  0.51100000000E-03 0.  1.
    9000002    1    1    2    0    0  0.51808455108E-01  0.26096609645E-01  0.36594100983E-01  0.94050426755E+00  0.93800000000E+00 0.  1.
         22    1    1    2    0    0  0.20690709847E+00 -0.43099846767E-01  0.96356741905E+00  0.98647367691E+00  0.00000000000E+00 0. -1.
</event>
<event>
 5    1  0.2111786E+001  0.1598455E+01  0.7818608E-02  0.3355042E+00
         11   -1    0    0    0    0  0.00000000000E+00  0.00000000000E+00  0.39999999674E+01  0.40000000000E+01  0.51100000000E-03 0.  1.
    9000002   -1    0    0    0    0 -0.00000000000E+00 -0.00000000000E+00  0.00000000000E+00  0.93800000000E+00  0.93800000000E+00 0.  1.
         11    1    1    2    0    0 -0.68166119788E-01 -0.80084325130E-01  0.74336991663E+00  0.75077241098E+00  0.51100000000E-03 0.  1.
    9000002    1    1    2    0    0  0.19637118507E+00  0.35163333277E+00  0.11047037086E+00  0.10267693733E+01  0.93800000000E+00 0.  1.
         22    1    1    2    0    0 -0.12820506528E+00 -0.27154900764E+00  0.31461596799E+01  0.31604582158E+01  0.00000000000E+00 0.  1.
</event>
<event>
 5    1  0.2111786E+001  0.1486645E+01  0.7818608E-02  0.3486400E+00
         11   -1    0    0    0    0  0.00000000000E+00  0.00000000000E+00  0.39999999674E+01  0.40000000000E+01  0.51100000000E-03 0.  1.
    9000002   -1    0    0    0    0 -0.00000000000E+00 -0.00000000000E+00  0.00000000000E+00  0.93800000000E+00  0.93800000000E+00 0. -1.
         11    1    1    2    0    0 -0.10561183020E-01 -0.11914755632E+00  0.43875783587E-01  0.12740888615E+00  0.51100000000E-03 0.  1.
    9000002    1    1    2    0    0  0.21258614678E+00  0.48631355799E-01  0.12224462669E+00  0.97074488272E+00  0.93800000000E+00 0. -1.
         22    1    1    2    0    0 -0.20202496376E+00  0.70516200522E-01  0.38338795571E+01  0.38398462311E+01  0.00000000000E+00 0.  1.
</event>
<event>
 5    1  0.2111786E+001  0.1525781E+01  0.7818608E-02  0.3438079E+00
         11   -1    0    0    0    0  0.00000000000E+00  0.00000000000E+00  0.39999999674E+01  0.40000000000E+01  0.51100000000E-03 0. -1.
    9000002   -1    0    0    0    0 -0.00000000000E+00 -0.00000000000E+00  0.00000000000E+00  0.93800000000E+00  0.93800000000E+00 0. -1.
         11    1    1    2    0    0 -0.27016173800E+00  0.29465312980E+00  0.20999640672E+01  0.21376756480E+01  0.51100000000E-03 0. -1.
    9000002    1    1    2    0    0 -0.42644399575E-01 -0.28146901554E+00  0.11377032854E+00  0.98682877906E+00  0.93800000000E+00 0. -1.
         22    1    1    2    0    0  0.31280613758E+00 -0.13184114258E-01  0.17862655716E+01  0.18134955729E+01  0.00000000000E+00 0.  1.
</event>
<event>
 5    1  0.2111786E+001  0.1587041E+01  0.7818608E-02  0.3367550E+00
         11   -1    0    0    0    0  0.00000000000E+00  0.00000000000E+00  0.39999999674E+01  0.40000000000E+01  0.51100000000E-03 0. -1.
    9000002   -1    0    0    0    0 -0.00000000000E+00 -0.00000000000E+00  0.00000000000E+00  0.93800000000E+00  0.93800000000E+00 0. -1.
         11    1    1    2    0    0 -0.97208032101E-01 -0.27516434929E-01  0.14297684788E+01  0.14333334294E+01  0.51100000000E-03 0. -1.
    9000002    1    1    2    0    0  0.90050586571E-02 -0.17248833335E+00  0.29165357234E-01  0.95421587405E+00  0.93800000000E+00 0. -1.
         22    1    1    2    0    0  0.88202973443E-01  0.20000476827E+00  0.25410661313E+01  0.25504506965E+01  0.00000000000E+00 0. -1.
</event>
<event>
 5    1  0.2111786E+001  0.1416750E+01  0.7818608E-02  0.3580399E+00
         11   -1    0    0    0    0  0.00000000000E+00  0.00000000000E+00  0.39999999674E+01  0.40000000000E+01  0.51100000000E-03 0. -1.
    9000002   -1    0    0    0    0 -0.00000000000E+00 -0.00000000000E+00  0.00000000000E+00  0.93800000000E+00  0.93800000000E+00 0. -1.
         11    1    1    2    0    0 -0.38027664168E+00  0.49399717963E+00  0.15070258817E+01  0.16308803779E+01  0.51100000000E-03 0. -1.
    9000002    1    1    2    0    0  0.24874737172E+00 -0.17724071782E+00  0.22298166039E+00  0.10113626194E+01  0.93800000000E+00 0. -1.
         22    1    1    2    0    0  0.13152926996E+00 -0.31675646181E+00  0.22699924253E+01  0.22957570028E+01  0.00000000000E+00 0. -1.
</event>
<event>
 5    1  0.2111786E+001  0.1533203E+01  0.7818608E-02  0.3429214E+00
         11   -1    0    0    0    0  0.00000000000E+00  0.00000000000E+00  0.39999999674E+01  0.40000000000E+01  0.51100000000E-03 0. -1.
    9000002   -1    0    0    0    0 -0.00000000000E+00 -0.00000000000E+00  0.00000000000E+00  0.93800000000E+00  0.93800000000E+00 0. -1.
         11    1    1    2    0    0  0.48103946265E-01 -0.31382289446E+00  0.15423211062E+01  0.15746597901E+01  0.51100000000E-03 0. -1.
    9000002    1    1    2    0    0 -0.80690831696E-01  0.28756872018E-01  0.54911874187E-01  0.94350266663E+00  0.93800000000E+00 0. -1.
         22    1    1    2    0    0  0.32586885431E-01  0.28506602244E+00  0.24027669870E+01  0.24198375433E+01  0.00000000000E+00 0. -1.
</event>
<event>
 5    1  0.2111786E+001  0.1564233E+01  0.7818608E-02  0.3393122E+00
         11   -1    0    0    0    0  0.00000000000E+00  0.00000000000E+00  0.39999999674E+01  0.40000000000E+01  0.51100000000E-03 0. -1.
    9000002   -1    0    0    0    0 -0.00000000000E+00 -0.00000000000E+00  0.00000000000E+00  0.93800000000E+00  0.93800000000E+00 0.  1.
         11    1    1    2    0    0  0.31398658146E-01  0.21721601776E+00  0.26249123882E+01  0.26340717494E+01  0.51100000000E-03 0. -1.
    9000002    1    1    2    0    0 -0.11779381058E+00 -0.11873427514E-01  0.35674292964E-01  0.94611469456E+00  0.93800000000E+00 0.  1.
         22    1    1    2    0    0  0.86395152434E-01 -0.20534259025E+00  0.13394132862E+01  0.13578135560E+01  0.00000000000E+00 0.  1.
</event>
<event>
 5    1  0.2111786E+001  0.1464529E+01  0.7818608E-02  0.3514939E+00
         11   -1    0    0    0    0  0.00000000000E+00  0.00000000000E+00  0.39999999674E+01  0.40000000000E+01  0.51100000000E-03 0.  1.
    9000002   -1    0    0    0    0 -0.00000000000E+00 -0.00000000000E+00  0.00000000000E+00  0.93800000000E+00  0.93800000000E+00 0.  1.
         11    1    1    2    0    0 -0.15944966389E-01  0.39251676041E+00  0.81202644484E+00  0.90205923165E+00  0.51100000000E-03 0.  1.
    9000002    1    1    2    0    0 -0.87853061118E-02 -0.12735683672E+00  0.11746743856E+00  0.95390751364E+00  0.93800000000E+00 0.  1.
         22    1    1    2    0    0  0.24730272501E-01 -0.26515992370E+00  0.30705060840E+01  0.30820332547E+01  0.00000000000E+00 0.  1.
</event>
<event>
 5    1  0.2111786E+001  0.1556501E+01  0.7818608E-02  0.3401972E+00
         11   -1    0    0    0    0  0.00000000000E+00  0.00000000000E+00  0.39999999674E+01  0.40000000000E+01  0.51100000000E-03 0. -1.
    9000002   -1    0    0    0    0 -0.00000000000E+00 -0.00000000000E+00  0.00000000000E+00  0.93800000000E+00  0.93800000000E+00 0. -1.
         11    1    1    2    0    0  0.24400519055E+00  0.10235870908E+00  0.12720356079E+01  0.12992654414E+01  0.51100000000E-03 0. -1.
    9000002    1    1    2    0    0 -0.32670466513E-01 -0.24721158993E+00  0.75050278885E-01  0.97347700226E+00  0.93800000000E+00 0. -1.
         22    1    1    2    0    0 -0.21133472403E+00  0.14485288085E+00  0.26529140806E+01  0.26652575564E+01  0.00000000000E+00 0. -1.
</event>
<event>
 5    1  0.2111786E+001  0.1559289E+01  0.7818608E-02  0.3398770E+00
         11   -1    0    0    0    0  0.00000000000E+00  0.00000000000E+00  0.39999999674E+01  0.40000000000E+01  0.51100000000E-03 0.  1.
    9000002   -1    0    0    0    0 -0.00000000000E+00 -0.00000000000E+00  0.00000000000E+00  0.93800000000E+00  0.93800000000E+00 0. -1.
         11    1    1    2    0    0  0.40699768949E+00  0.40623997692E+00  0.81637644212E+00  0.99857337961E+00  0.51100000000E-03 0.  1.
    9000002    1    1    2    0    0 -0.31943288995E+00  0.18387781090E-01  0.31748453292E+00  0.10406805035E+01  0.93800000000E+00 0. -1.
         22    1    1    2    0    0 -0.87564799543E-01 -0.42462775801E+00  0.28661389923E+01  0.28987461169E+01  0.00000000000E+00 0. -1.
</event>
<event>
 5    1  0.2111786E+001  0.1585036E+01  0.7818608E-02  0.3369766E+00
         11   -1    0    0    0    0  0.00000000000E+00  0.00000000000E+00  0.39999999674E+01  0.40000000000E+01  0.51100000000E-03 0.  1.
    9000002   -1    0    0    0    0 -0.00000000000E+00 -0.00000000000E+00  0.00000000000E+00  0.93800000000E+00  0.93800000000E+00 0. -1.
         11    1    1    2    0    0  0.11969431488E+00 -0.42559830567E-01  0.14764018050E+01  0.14818571521E+01  0.51100000000E-03 0.  1.
    9000002    1    1    2    0    0 -0.11498630606E+00 -0.20227967754E+00  0.47108837454E-01  0.96757540331E+00  0.93800000000E+00 0. -1.
         22    1    1    2    0    0 -0.47080088268E-02  0.24483950811E+00  0.24764893249E+01  0.24885674446E+01  0.00000000000E+00 0.  1.
</event>
<event>
 5    1  0.2111786E+001  0.1563919E+01  0.7818608E-02  0.3393480E+00
         11   -1    0    0    0    0  0.00000000000E+00  0.00000000000E+00  0.39999999674E+01  0.40000000000E+01  0.51100000000E-03 0. -1.
    9000002   -1    0    0    0    0 -0.00000000000E+00 -0.00000000000E+00  0.00000000000E+00  0.93800000000E+00  0.93800000000E+00 0. -1.
         11    1    1    2    0    0  0.24998185756E+00  0.40294040513E-01  0.18150157605E+01  0.18325929747E+01  0.51100000000E-03 0. -1.
    9000002    1    1    2    0    0 -0.59781227665E-01 -0.18341626561E+00  0.51851997440E-01  0.95903490620E+00  0.93800000000E+00 0. -1.
         22    1    1    2    0    0 -0.19020062990E+00  0.14312222510E+00  0.21331322094E+01  0.21463721191E+01  0.00000000000E+00 0. -1.
</event>
<event>
 5    1  0.2111786E+001  0.1574875E+01  0.7818608E-02  0.3381093E+00
         11   -1    0    0    0    0  0.00000000000E+00  0.00000000000E+00  0.39999999674E+01  0.40000000000E+01  0.51100000000E-03 0.  1.
    9000002   -1    0    0    0    0 -0.00000000000E+00 -0.00000000000E+00  0.00000000000E+00  0.93800000000E+00  0.93800000000E+00 0.  1.
         11    1    1    2    0    0 -0.44646832000E-01 -0.14609018426E+00  0.66035422553E+00  0.67779321761E+00  0.51100000000E-03 0.  1.
    9000002    1    1    2    0    0 -0.15599876274E+00  0.13722536423E+00  0.47465618320E-01  0.96190612821E+00  0.93800000000E+00 0.  1.
         22    1    1    2    0    0  0.20064559474E+00  0.88648200306E-02  0.32921801235E+01  0.32983006542E+01  0.00000000000E+00 0. -1.
</event>
<event>
 5    1  0.2111786E+001  0.1552667E+01  0.7818608E-02  0.3406396E+00
         11   -1    0    0    0    0  0.00000000000E+00  0.00000000000E+00  0.39999999674E+01  0.40000000000E+01  0.51100000000E-03 0. -1.
    9000002   -1    0    0    0    0 -0.00000000000E+00 -0.00000000000E+00  0.00000000000E+00  0.93800000000E+00  0.93800000000E+00 0.  1.
         11    1    1    2    0    0  0.24663667396E+00  0.12887104455E-01  0.14417883707E+01  0.14627883283E+01  0.51100000000E-03 0. -1.
    9000002    1    1    2    0    0  0.67583725375E-02 -0.12538730903E+00  0.45721729231E-01  0.94747143988E+00  0.93800000000E+00 0.  1.
         22    1    1    2    0    0 -0.25339504650E+00  0.11250020458E+00  0.25124898675E+01  0.25277402318E+01  0.00000000000E+00 0. -1.
</event>
<event>
 5    1  0.2111786E+001  0.1558044E+01  0.7818608E-02  0.3400199E+00
         11   -1    0    0    0    0  0.00000000000E+00  0.00000000000E+00  0.39999999674E+01  0.40000000000E+01  0.51100000000E-03 0. -1.
    9000002   -1    0    0    0    0 -0.00000000000E+00 -0.00000000000E+00  0.00000000000E+00  0.93800000000E+00  0.93800000000E+00 0. -1.
         11    1    1    2    0    0  0.23625604565E+00  0.44968219331E-02  0.15582610884E+01  0.15760758298E+01  0.51100000000E-03 0. -1.
    9000002    1    1    2    0    0 -0.11317109746E-01  0.14626954178E+00  0.45563338374E-01  0.95049611973E+00  0.93800000000E+00 0. -1.
         22    1    1    2    0    0 -0.22493893590E+00 -0.15076636371E+00  0.23961755406E+01  0.24114280505E+01  0.00000000000E+00 0. -1.
</event>
<event>
 5    1  0.2111786E+001  0.1576294E+01  0.7818608E-02  0.3379502E+00
         11   -1    0    0    0    0  0.00000000000E+00  0.00000000000E+00  0.39999999674E+01  0.40000000000E+01  0.51100000000E-03 0.  1.
    9000002   -1    0    0    0    0 -0.00000000000E+00 -0.00000000000E+00  0.00000000000E+00  0.93800000000E+00  0.93800000000E+00 0.  1.
         11    1    1    2    0    0  0.28615318888E-01  0.33699828798E-01  0.27641727576E+01  0.27645263265E+01  0.51100000000E-03 0.  1.
    9000002    1    1    2    0    0  0.45167438759E-01  0.17884579069E+00  0.40145045530E-01  0.95680799487E+00  0.93800000000E+00 0.  1.
         22    1    1    2    0    0 -0.73782757647E-01 -0.21254561949E+00  0.11956821643E+01  0.12166656787E+01  0.00000000000E+00 0. -1.
</event>
<event>
 5    1  0.2111786E+001  0.1586034E+01  0.7818608E-02  0.3368662E+00
         11   -1    0    0    0    0  0.00000000000E+00  0.00000000000E+00  0.39999999674E+01  0.40000000000E+01  0.51100000000E-03 0.  1.
    9000002   -1    0    0    0    0 -0.00000000000E+00 -0.00000000000E+00  0.00000000000E+00  0.93800000000E+00  0.93800000000E+00 0.  1.
         11    1    1    2    0    0  0.76334354897E-01 -0.12042483803E-02  0.99126652042E+00  0.99420217239E+00  0.51100000000E-03 0.  1.
    9000002    1    1    2    0    0  0.14051335779E+00  0.19997139815E+00  0.50136702465E-01  0.97061333843E+00  0.93800000000E+00 0.  1.
         22    1    1    2    0    0 -0.21684771269E+00 -0.19876714977E+00  0.29585967445E+01  0.29731844892E+01  0.00000000000E+00 0.  1.
</event>
<event>
 5    1  0.2111786E+001  0.1498415E+01  0.7818608E-02  0.3471582E+00
         11   -1    0    0    0    0  0.00000000000E+00  0.00000000000E+00  0.39999999674E+01  0.40000000000E+01  0.51100000000E-03 0. -1.
    9000002   -1    0    0    0    0 -0.00000000000E+00 -0.00000000000E+00  0.00000000000E+00  0.93800000000E+00  0.93800000000E+00 0.  1.
         11    1    1    2    0    0  0.44119741045E+00  0.76806983878E-01  0.30600086608E+01  0.30926053310E+01  0.51100000000E-03 0. -1.
    9000002    1    1    2    0    0 -0.19016701657E+00  0.55295818247E-01  0.10604803603E+00  0.96452646809E+00  0.93800000000E+00 0.  1.
         22    1    1    2    0    0 -0.25103039387E+00 -0.13210280212E+00  0.83394327051E+00  0.88086820093E+00  0.00000000000E+00 0.  1.
</event>
<event>
 5    1  0.2111786E+001  0.1559345E+01  0.7818608E-02  0.3398707E+00
         11   -1    0    0    0    0  0.00000000000E+00  0.00000000000E+00  0.39999999674E+01  0.40000000000E+01  0.51100000000E-03 0.  1.
    9000002   -1    0    0    0    0 -0.00000000000E+00 -0.00000000000E+00  0.00000000000E+00  0.93800000000E+00  0.93800000000E+00 0.  1.
         11    1    1    2    0    0  0.82897351299E-02  0.19801413780E+00  0.26454450976E+01  0.26528585232E+01  0.51100000000E-03 0.  1.
    9000002    1    1    2    0    0 -0.22188955138E-01  0.45091954585E-01  0.31508440410E-01  0.93987361699E+00  0.93800000000E+00 0.  1.
         22    1    1    2    0    0  0.13899220008E-01 -0.24310609238E+00  0.13230464293E+01  0.13452678598E+01  0.00000000000E+00 0. -1.
</event>
<event>
 5    1  0.2111786E+001  0.1558624E+01  0.7818608E-02  0.3399534E+00
         11   -1    0    0    0    0  0.00000000000E+00  0.00000000000E+00  0.39999999674E+01  0.40000000000E+01  0.51100000000E-03 0. -1.
    9000002   -1    0    0    0    0 -0.00000000000E+00 -0.00000000000E+00  0.00000000000E+00  0.93800000000E+00  0.93800000000E+00 0. -1.
         11    1    1    2    0    0  0.10393851000E+00 -0.23310778067E+00  0.15312183503E+01  0.15523441464E+01  0.51100000000E-03 0. -1.
    9000002    1    1    2    0    0 -0.45693931339E-02  0.48347439257E-01  0.31938481857E-01  0.93979913857E+00  0.93800000000E+00 0. -1.
         22    1    1    2    0    0 -0.99369116867E-01  0.18476034141E+00  0.24368431352E+01  0.24458567151E+01  0.00000000000E+00 0. -1.
</event>
<event>
 5    1  0.2111786E+001  0.1570615E+01  0.7818608E-02  0.3385888E+00
         11   -1    0    0    0    0  0.00000000000E+00  0.00000000000E+00  0.39999999674E+01  0.40000000000E+01  0.51100000000E-03 0.  1.
    9000002   -1    0    0    0    0 -0.00000000000E+00 -0.00000000000E+00  0.00000000000E+00  0.93800000000E+00  0.93800000000E+00 0. -1.
         11    1    1    2    0    0  0.13157227224E+00 -0.13667503312E-01  0.58061340676E+00  0.59549160591E+00  0.51100000000E-03 0.  1.
    9000002    1    1    2    0    0  0.85989578150E-01 -0.36454460422E-01  0.27249590813E-01  0.94303217094E+00  0.93800000000E+00 0. -1.
         22    1    1    2    0    0 -0.21756185039E+00  0.50121963734E-01  0.33921369698E+01  0.33994762232E+01  0.00000000000E+00 0.  1.
</event>
<event>
 5    1  0.2111786E+001  0.1589706E+01  0.7818608E-02  0.3364612E+00
         11   -1    0    0    0    0  0.00000000000E+00  0.00000000000E+00  0.39999999674E+01  0.40000000000E+01  0.51100000000E-03 0.  1.
    9000002   -1    0    0    0    0 -0.00000000000E+00 -0.00000000000E+00  0.00000000000E+00  0.93800000000E+00  0.93800000000E+00 0.  1.
         11    1    1    2    0    0  0.23007952699E-01 -0.74422776275E-01  0.89986552353E+00  0.90323105409E+00  0.51100000000E-03 0.  1.
    9000002    1    1    2    0    0  0.15805448977E+00 -0.31652912965E-01  0.24583111454E-01  0.95206693988E+00  0.93800000000E+00 0.  1.
         22    1    1    2    0    0 -0.18106244247E+00  0.10607568924E+00  0.30755513324E+01  0.30827020060E+01  0.00000000000E+00 0.  1.
</event>
<event>
 5    1  0.2111786E+001  0.1269312E+01  0.7818608E-02  0.3842386E+00
         11   -1    0    0    0    0  0.00000000000E+00  0.00000000000E+00  0.39999999674E+01  0.40000000000E+01  0.51100000000E-03 0. -1.
    9000002   -1    0    0    0    0 -0.00000000000E+00 -0.00000000000E+00  0.00000000000E+00  0.93800000000E+00  0.93800000000E+00 0. -1.
         11    1    1    2    0    0 -0.92687413488E+00 -0.37443658431E+00  0.18182587487E+01  0.20749370005E+01  0.51100000000E-03 0. -1.
    9000002    1    1    2    0    0  0.49040909520E+00  0.29186472883E+00  0.66735113244E+00  0.12848687227E+01  0.93800000000E+00 0. -1.
         22    1    1    2    0    0  0.43646503968E+00  0.82571855475E-01  0.15143900862E+01  0.15781942769E+01  0.00000000000E+00 0.  1.
</event>
<event>
 5    1  0.2111786E+001  0.1452726E+01  0.7818608E-02  0.3530557E+00
         11   -1    0    0    0    0  0.00000000000E+00  0.00000000000E+00  0.39999999674E+01  0.40000000000E+01  0.51100000000E-03 0. -1.
    9000002   -1    0    0    0    0 -0.00000000000E+00 -0.00000000000E+00  0.00000000000E+00  0.93800000000E+00  0.93800000000E+00 0. -1.
         11    1    1    2    0    0  0.44193040594E+00  0.28463559189E+00  0.14069472703E+01  0.15019390089E+01  0.51100000000E-03 0. -1.
    9000002    1    1    2    0    0 -0.25005915991E+00  0.47273057167E-01  0.17467172807E+00  0.98748090512E+00  0.93800000000E+00 0. -1.
         22    1    1    2    0    0 -0.19187124603E+00 -0.33190864906E+00  0.24183809690E+01  0.24485800860E+01  0.00000000000E+00 0. -1.
</event>
<event>
 5    1  0.2111786E+001  0.1574310E+01  0.7818608E-02  0.3381728E+00
         11   -1    0    0    0    0  0.00000000000E+00  0.00000000000E+00  0.39999999674E+01  0.40000000000E+01  0.51100000000E-03 0.  1.
    9000002   -1    0    0    0    0 -0.00000000000E+00 -0.00000000000E+00  0.00000000000E+00  0.93800000000E+00  0.93800000000E+00 0. -1.
         11    1    1    2    0    0  0.18216207949E+00 -0.30338814228E-01  0.16629767981E+01  0.16731991988E+01  0.51100000000E-03 0.  1.
    9000002    1    1    2    0    0 -0.50336859215E-01 -0.16415127137E+00  0.38564128506E-01  0.95436399308E+00  0.93800000000E+00 0. -1.
         22    1    1    2    0    0 -0.13182522028E+00  0.19449008560E+00  0.22984590408E+01  0.23104368081E+01  0.00000000000E+00 0.  1.
</event>
<event>
 5    1  0.2111786E+001  0.1549131E+01  0.7818608E-02  0.3410496E+00
         11   -1    0    0    0    0  0.00000000000E+00  0.00000000000E+00  0.39999999674E+01  0.40000000000E+01  0.51100000000E-03 0.  1.
    9000002   -1    0    0    0    0 -0.00000000000E+00 -0.00000000000E+00  0.00000000000E+00  0.93800000000E+00  0.93800000000E+00 0.  1.
         11    1    1    2    0    0  0.28774374142E-01  0.26324012876E+00  0.19898043000E+01  0.20073476887E+01  0.51100000000E-03 0.  1.
    9000002    1    1    2    0    0 -0.65323566831E-01  0.14413637389E-01  0.40612267126E-01  0.94125887914E+00  0.93800000000E+00 0.  1.
         22    1    1    2    0    0  0.36549192689E-01 -0.27765376615E+00  0.19695834003E+01  0.19893934322E+01  0.00000000000E+00 0. -1.
</event>
<event>
 5    1  0.2111786E+001  0.1569091E+01  0.7818608E-02  0.3387610E+00
         11   -1    0    0    0    0  0.00000000000E+00  0.00000000000E+00  0.39999999674E+01  0.40000000000E+01  0.51100000000E-03 0.  1.
    9000002   -1    0    0    0    0 -0.00000000000E+00 -0.00000000000E+00  0.00000000000E+00  0.93800000000E+00  0.93800000000E+00 0.  1.
         11    1    1    2    0    0 -0.28604028291E-01 -0.18363394517E+00  0.25782264776E+01  0.25849161780E+01  0.51100000000E-03 0.  1.
    9000002    1    1    2    0    0 -0.44412230465E-01 -0.14029716003E-01  0.23943827566E-01  0.93946079536E+00  0.93800000000E+00 0.  1.
         22    1    1    2    0    0  0.73016258756E-01  0.19766366117E+00  0.13978296622E+01  0.14136230267E+01  0.00000000000E+00 0.  1.
</event>
<event>
 5    1  0.2362588E+001  0.1564982E+01  0.7818608E-02  0.3392270E+00
         11   -1    0    0    0    0  0.00000000000E+00  0.00000000000E+00  0.39999999674E+01  0.40000000000E+01  0.51100000000E-03 0.  1.
    9000002   -1    0    0    0    0 -0.00000000000E+00 -0.00000000000E+00  0.00000000000E+00  0.93800000000E+00  0.93800000000E+00 0. -1.
         11    1    1    2    0    0 -0.72314926965E-01 -0.23596512308E+00  0.20437720785E+01  0.20586193329E+01  0.51100000000E-03 0.  1.
    9000002    1    1    2    0    0  0.12202319362E-01  0.42545863981E-01  0.26878060099E-01  0.93942827148E+00  0.93800000000E+00 0. -1.
         22    1    1    2    0    0  0.60112607603E-01  0.19341925910E+00  0.19293498288E+01  0.19399523956E+01  0.00000000000E+00 0. -1.
</event>
<event>
 5    1  0.2111786E+001  0.1582376E+01  0.7818608E-02  0.3372716E+00
         11   -1    0    0    0    0  0.00000000000E+00  0.00000000000E+00  0.39999999674E+01  0.40000000000E+01  0.51100000000E-03 0. -1.
    9000002   -1    0    0    0    0 -0.00000000000E+00 -0.00000000000E+00  0.00000000000E+00  0.93800000000E+00  0.93800000000E+00 0. -1.
         11    1    1    2    0    0 -0.48568425723E-01 -0.11085055593E+00  0.12395746213E+01  0.12454686831E+01  0.51100000000E-03 0. -1.
    9000002    1    1    2    0    0  0.54559607626E-01 -0.10370378519E+00  0.21835555865E-01  0.94554323928E+00  0.93800000000E+00 0. -1.
         22    1    1    2    0    0 -0.59911819028E-02  0.21455434111E+00  0.27385897902E+01  0.27469880777E+01  0.00000000000E+00 0.  1.
</event>
<event>
 5    1  0.2111786E+001  0.1557990E+01  0.7818608E-02  0.3400261E+00
         11   -1    0    0    0    0  0.00000000000E+00  0.00000000000E+00  0.39999999674E+01  0.40000000000E+01  0.51100000000E-03 0.  1.
    9000002   -1    0    0    0    0 -0.00000000000E+00 -0.00000000000E+00  0.00000000000E+00  0.93800000000E+00  0.93800000000E+00 0. -1.
         11    1    1    2    0    0 -0.92128480417E-01  0.22300459597E+00  0.12369079610E+01  0.12602223105E+01  0.51100000000E-03 0.  1.
    9000002    1    1    2    0    0  0.44492278122E-01 -0.28370324165E-01  0.32709518299E-01  0.94005231274E+00  0.93800000000E+00 0. -1.
         22    1    1    2    0    0  0.47636202295E-01 -0.19463427181E+00  0.27303824881E+01  0.27377253768E+01  0.00000000000E+00 0.  1.
</event>
<event>
 5    1  0.2111786E+001  0.1581809E+01  0.7818608E-02  0.3373347E+00
         11   -1    0    0    0    0  0.00000000000E+00  0.00000000000E+00  0.39999999674E+01  0.40000000000E+01  0.51100000000E-03 0.  1.
    9000002   -1    0    0    0    0 -0.00000000000E+00 -0.00000000000E+00  0.00000000000E+00  0.93800000000E+00  0.93800000000E+00 0.  1.
         11    1    1    2    0    0  0.96951277216E-01 -0.97506341233E-03  0.68602372749E+00  0.69284148021E+00  0.51100000000E-03 0.  1.
    9000002    1    1    2    0    0  0.13656622338E+00  0.10202597434E+00  0.32589142196E-01  0.95392121530E+00  0.93800000000E+00 0.  1.
         22    1    1    2    0    0 -0.23351750059E+00 -0.10105091092E+00  0.32813870977E+01  0.32912373045E+01  0.00000000000E+00 0.  1.
</event>
<event>
 5    1  0.2111786E+001  0.1514826E+01  0.7818608E-02  0.3451335E+00
         11   -1    0    0    0    0  0.00000000000E+00  0.00000000000E+00  0.39999999674E+01  0.40000000000E+01  0.51100000000E-03 0. -1.
    9000002   -1    0    0    0    0 -0.00000000000E+00 -0.00000000000E+00  0.00000000000E+00  0.93800000000E+00  0.93800000000E+00 0.  1.
         11    1    1    2    0    0  0.14684611783E+00 -0.37516764627E+00  0.15881976452E+01  0.16385013172E+01  0.51100000000E-03 0. -1.
    9000002    1    1    2    0    0  0.26888709879E-01  0.16847127489E+00  0.85097461732E-01  0.95717874568E+00  0.93800000000E+00 0.  1.
         22    1    1    2    0    0 -0.17373482771E+00  0.20669637138E+00  0.23267048604E+01  0.23423199371E+01  0.00000000000E+00 0. -1.
</event>
<event>
 5    1  0.2111786E+001  0.1556541E+01  0.7818608E-02  0.3401927E+00
         11   -1    0    0    0    0  0.00000000000E+00  0.00000000000E+00  0.39999999674E+01  0.40000000000E+01  0.51100000000E-03 0.  1.
    9000002   -1    0    0    0    0 -0.00000000000E+00 -0.00000000000E+00  0.00000000000E+00  0.93800000000E+00  0.93800000000E+00 0.  1.
         11    1    1    2    0    0  0.86292697250E-01 -0.25383008943E+00  0.16728874615E+01  0.16942340050E+01  0.51100000000E-03 0.  1.
    9000002    1    1    2    0    0  0.12200276336E+00  0.11541395047E+00  0.51345400387E-01  0.95429838330E+00  0.93800000000E+00 0.  1.
         22    1    1    2    0    0 -0.20829546061E+00  0.13841613896E+00  0.22757671055E+01  0.22894676117E+01  0.00000000000E+00 0. -1.
</event>
<event>
 5    1  0.2111786E+001  0.1535503E+01  0.7818608E-02  0.3426486E+00
         11   -1    0    0    0    0  0.00000000000E+00  0.00000000000E+00  0.39999999674E+01  0.40000000000E+01  0.51100000000E-03 0.  1.
    9000002   -1    0    0    0    0 -0.00000000000E+00 -0.00000000000E+00  0.00000000000E+00  0.93800000000E+00  0.93800000000E+00 0. -1.
         11    1    1    2    0    0  0.21984583754E+00 -0.16621423018E+00  0.14367639818E+01  0.14629594537E+01  0.51100000000E-03 0.  1.
    9000002    1    1    2    0    0  0.66672879283E-01  0.93162762547E-02  0.51148341606E-01  0.94180264317E+00  0.93800000000E+00 0. -1.
         22    1    1    2    0    0 -0.28651871683E+00  0.15689795392E+00  0.25120876440E+01  0.25332379032E+01  0.00000000000E+00 0.  1.
</event>
<event>
 5    1  0.2111786E+001  0.1462686E+01  0.7818608E-02  0.3517361E+00
         11   -1    0    0    0    0  0.00000000000E+00  0.00000000000E+00  0.39999999674E+01  0.40000000000E+01  0.51100000000E-03 0.  1.
    9000002   -1    0    0    0    0 -0.00000000000E+00 -0.00000000000E+00  0.00000000000E+00  0.93800000000E+00  0.93800000000E+00 0. -1.
         11    1    1    2    0    0  0.50772433273E+00 -0.61507700621E-01  0.22343847196E+01  0.22921698304E+01  0.51100000000E-03 0.  1.
    9000002    1    1    2    0    0 -0.12953446794E+00  0.23993596276E+00  0.16396784861E+00  0.99049376575E+00  0.93800000000E+00 0. -1.
         22    1    1    2    0    0 -0.37818986480E+00 -0.17842826214E+00  0.16016473992E+01  0.16553364038E+01  0.00000000000E+00 0.  1.
</event>
<event>
 5    1  0.2111786E+001  0.1523018E+01  0.7818608E-02  0.3441403E+00
         11   -1    0    0    0    0  0.00000000000E+00  0.00000000000E+00  0.39999999674E+01  0.40000000000E+01  0.51100000000E-03 0.  1.
    9000002   -1    0    0    0    0 -0.00000000000E+00 -0.00000000000E+00  0.00000000000E+00  0.93800000000E+00  0.93800000000E+00 0.  1.
         11    1    1    2    0    0  0.16694254262E+00  0.16415727603E+00  0.47824887399E+00  0.53248443208E+00  0.51100000000E-03 0.  1.
    9000002    1    1    2    0    0 -0.23335911838E+00  0.92676102957E-01  0.10298307257E+00  0.97647060961E+00  0.93800000000E+00 0.  1.
         22    1    1    2    0    0  0.66416575753E-01 -0.25683337899E+00  0.34187680208E+01  0.34290449583E+01  0.00000000000E+00 0.  1.
</event>
<event>
 5    1  0.2111786E+001  0.1589735E+01  0.7818608E-02  0.3364581E+00
         11   -1    0    0    0    0  0.00000000000E+00  0.00000000000E+00  0.39999999674E+01  0.40000000000E+01  0.51100000000E-03 0. -1.
    9000002   -1    0    0    0    0 -0.00000000000E+00 -0.00000000000E+00  0.00000000000E+00  0.93800000000E+00  0.93800000000E+00 0. -1.
         11    1    1    2    0    0 -0.22081067367E+00 -0.13259938452E+00  0.18564147677E+01  0.18741974285E+01  0.51100000000E-03 0. -1.
    9000002    1    1    2    0    0  0.45688849455E+00  0.26320847666E-01  0.15110125873E+00  0.10545688569E+01  0.93800000000E+00 0. -1.
         22    1    1    2    0    0 -0.23607782088E+00  0.10627853685E+00  0.19924839410E+01  0.20092337146E+01  0.00000000000E+00 0.  1.
</event>
<event>
 5    1  0.2111786E+001  0.1504818E+01  0.7818608E-02  0.3463625E+00
         11   -1    0    0    0    0  0.00000000000E+00  0.00000000000E+00  0.39999999674E+01  0.40000000000E+01  0.51100000000E-03 0. -1.
    9000002   -1    0    0    0    0 -0.00000000000E+00 -0.00000000000E+00  0.00000000000E+00  0.93800000000E+00  0.93800000000E+00 0.  1.
         11    1    1    2    0    0  0.38392071788E+00 -0.86056415777E-01  0.16357961317E+01  0.16824476425E+01  0.51100000000E-03 0. -1.
    9000002    1    1    2    0    0 -0.44046665531E-01  0.26739458201E+00  0.12602318586E+00  0.98446219562E+00  0.93800000000E+00 0.  1.
         22    1    1    2    0    0 -0.33987405235E+00 -0.18133816623E+00  0.22381806498E+01  0.22710901619E+01  0.00000000000E+00 0. -1.
</event>
<event>
 5    1  0.2111786E+001  0.1578566E+01  0.7818608E-02  0.3376961E+00
         11   -1    0    0    0    0  0.00000000000E+00  0.00000000000E+00  0.39999999674E+01  0.40000000000E+01  0.51100000000E-03 0.  1.
    9000002   -1    0    0    0    0 -0.00000000000E+00 -0.00000000000E+00  0.00000000000E+00  0.93800000000E+00  0.93800000000E+00 0. -1.
         11    1    1    2    0    0  0.99682492293E-01 -0.73964031594E-01  0.22691105715E+01  0.22725030966E+01  0.51100000000E-03 0.  1.
    9000002    1    1    2    0    0  0.11308767740E+00  0.33328070828E-01  0.24794127482E-01  0.94570520346E+00  0.93800000000E+00 0. -1.
         22    1    1    2    0    0 -0.21277016969E+00  0.40635960766E-01  0.17060952684E+01  0.17197916999E+01  0.00000000000E+00 0.  1.
</event>
<event>
 5    1  0.2111786E+001  0.1539232E+01  0.7818608E-02  0.3422081E+00
         11   -1    0    0    0    0  0.00000000000E+00  0.00000000000E+00  0.39999999674E+01  0.40000000000E+01  0.51100000000E-03 0. -1.
    9000002   -1    0    0    0    0 -0.00000000000E+00 -0.00000000000E+00  0.00000000000E+00  0.93800000000E+00  0.93800000000E+00 0. -1.
         11    1    1    2    0    0 -0.23758854028E-01  0.19026097806E+00  0.51024723356E+00  0.54508368476E+00  0.51100000000E-03 0. -1.
    9000002    1    1    2    0    0 -0.37378086578E-01  0.63626613586E-01  0.48900113036E-01  0.94216807862E+00  0.93800000000E+00 0. -1.
         22    1    1    2    0    0  0.61136940607E-01 -0.25388759165E+00  0.34408526208E+01  0.34507482366E+01  0.00000000000E+00 0. -1.
</event>
<event>
 5    1  0.2111786E+001  0.1374112E+01  0.7818608E-02  0.3649288E+00
         11   -1    0    0    0    0  0.00000000000E+00  0.00000000000E+00  0.39999999674E+01  0.40000000000E+01  0.51100000000E-03 0. -1.
    9000002   -1    0    0    0    0 -0.00000000000E+00 -0.00000000000E+00  0.00000000000E+00  0.93800000000E+00  0.93800000000E+00 0. -1.
         11    1    1    2    0    0  0.14924146873E+00  0.61410369788E+00  0.18181326040E+01  0.19248383814E+01  0.51100000000E-03 0. -1.
    9000002    1    1    2    0    0 -0.47323764673E-01 -0.11877077699E+00  0.19970873728E+00  0.96750897459E+00  0.93800000000E+00 0. -1.
         22    1    1    2    0    0 -0.10191770405E+00 -0.49533292088E+00  0.19821586261E+01  0.20456526440E+01  0.00000000000E+00 0. -1.
</event>
<event>
 5    1  0.2111786E+001  0.1491359E+01  0.7818608E-02  0.3480435E+00
         11   -1    0    0    0    0  0.00000000000E+00  0.00000000000E+00  0.39999999674E+01  0.40000000000E+01  0.51100000000E-03 0. -1.
    9000002   -1    0    0    0    0 -0.00000000000E+00 -0.00000000000E+00  0.00000000000E+00  0.93800000000E+00  0.93800000000E+00 0. -1.
         11    1    1    2    0    0 -0.41305994156E+00  0.15894905668E+00  0.93320775104E+00  0.10328408811E+01  0.51100000000E-03 0. -1.
    9000002    1    1    2    0    0  0.15528667190E-01  0.22807755914E+00  0.20100264849E+00  0.98615748093E+00  0.93800000000E+00 0. -1.
         22    1    1    2    0    0  0.39753127437E+00 -0.38702661581E+00  0.28657895678E+01  0.29190016380E+01  0.00000000000E+00 0. -1.
</event>
<event>
 5    1  0.2111786E+001  0.1598612E+01  0.7818608E-02  0.3354871E+00
         11   -1    0    0    0    0  0.00000000000E+00  0.00000000000E+00  0.39999999674E+01  0.40000000000E+01  0.51100000000E-03 0. -1.
    9000002   -1    0    0    0    0 -0.00000000000E+00 -0.00000000000E+00  0.00000000000E+00  0.93800000000E+00  0.93800000000E+00 0. -1.
         11    1    1    2    0    0 -0.33329678314E-02  0.87778169052E-01  0.10399641602E+01  0.10436674907E+01  0.51100000000E-03 0. -1.
    9000002    1    1    2    0    0 -0.11156503726E+00 -0.36904092779E+00  0.10095481983E+00  0.10191534917E+01  0.93800000000E+00 0. -1.
         22    1    1    2    0    0  0.11489800510E+00  0.28126275874E+00  0.28590809873E+01  0.28751790176E+01  0.00000000000E+00 0. -1.
</event>
<event>
 5    1  0.2111786E+001  0.1525296E+01  0.7818608E-02  0.3438662E+00
         11   -1    0    0    0    0  0.00000000000E+00  0.00000000000E+00  0.39999999674E+01  0.40000000000E+01  0.51100000000E-03 0. -1.
    9000002   -1    0    0    0    0 -0.00000000000E+00 -0.00000000000E+00  0.00000000000E+00  0.93800000000E+00  0.93800000000E+00 0.  1.
         11    1    1    2    0    0  0.27177032567E+00  0.45695815141E+00  0.23062694297E+01  0.23667591355E+01  0.51100000000E-03 0. -1.
    9000002    1    1    2    0    0 -0.76676828657E-01 -0.37860448018E+00  0.16456426961E+00  0.10276896843E+01  0.93800000000E+00 0.  1.
         22    1    1    2    0    0 -0.19509349701E+00 -0.78353671228E-01  0.15291662681E+01  0.15435511802E+01  0.00000000000E+00 0.  1.
</event>
<event>
 5    1  0.2111786E+001  0.1573158E+01  0.7818608E-02  0.3383023E+00
         11   -1    0    0    0    0  0.00000000000E+00  0.00000000000E+00  0.39999999674E+01  0.40000000000E+01  0.51100000000E-03 0.  1.
    9000002   -1    0    0    0    0 -0.00000000000E+00 -0.00000000000E+00  0.00000000000E+00  0.93800000000E+00  0.93800000000E+00 0.  1.
         11    1    1    2    0    0  0.21620542065E+00 -0.14238007214E+00  0.24278520553E+01  0.24416147797E+01  0.51100000000E-03 0.  1.
    9000002    1    1    2    0    0 -0.23757642143E+00 -0.56755160905E-01  0.60113462504E-01  0.97114434184E+00  0.93800000000E+00 0.  1.
         22    1    1    2    0    0  0.21371000780E-01  0.19913523305E+00  0.15120344495E+01  0.15252408784E+01  0.00000000000E+00 0.  1.
</event>
<event>
 5    1  0.2111786E+001  0.1537252E+01  0.7818608E-02  0.3424417E+00
         11   -1    0    0    0    0  0.00000000000E+00  0.00000000000E+00  0.39999999674E+01  0.40000000000E+01  0.51100000000E-03 0. -1.
    9000002   -1    0    0    0    0 -0.00000000000E+00 -0.00000000000E+00  0.00000000000E+00  0.93800000000E+00  0.93800000000E+00 0. -1.
         11    1    1    2    0    0 -0.29500284056E+00 -0.21802244429E+00  0.27730796733E+01  0.27972364215E+01  0.51100000000E-03 0. -1.
    9000002    1    1    2    0    0  0.16197974948E+00  0.16422959399E-01  0.65259420276E-01  0.95425884579E+00  0.93800000000E+00 0. -1.
         22    1    1    2    0    0  0.13302309109E+00  0.20159948489E+00  0.11616608738E+01  0.11865047328E+01  0.00000000000E+00 0.  1.
</event>
<event>
 5    1  0.2111786E+001  0.1552971E+01  0.7818608E-02  0.3406044E+00
         11   -1    0    0    0    0  0.00000000000E+00  0.00000000000E+00  0.39999999674E+01  0.40000000000E+01  0.51100000000E-03 0.  1.
    9000002   -1    0    0    0    0 -0.00000000000E+00 -0.00000000000E+00  0.00000000000E+00  0.93800000000E+00  0.93800000000E+00 0.  1.
         11    1    1    2    0    0  0.65226776548E-01 -0.27535912275E+00  0.20971780158E+01  0.21161836097E+01  0.51100000000E-03 0.  1.
    9000002    1    1    2    0    0 -0.16882814355E-01  0.41470968108E-01  0.35977926088E-01  0.93975703338E+00  0.93800000000E+00 0.  1.
         22    1    1    2    0    0 -0.48343962193E-01  0.23388815464E+00  0.18668440255E+01  0.18820593569E+01  0.00000000000E+00 0. -1.
</event>
<event>
 5    1  0.2111786E+001  0.1520856E+01  0.7818608E-02  0.3444013E+00
         11   -1    0    0    0    0  0.00000000000E+00  0.00000000000E+00  0.39999999674E+01  0.40000000000E+01  0.51100000000E-03 0. -1.
    9000002   -1    0    0    0    0 -0.00000000000E+00 -0.00000000000E+00  0.00000000000E+00  0.93800000000E+00  0.93800000000E+00 0.  1.
         11    1    1    2    0    0  0.47868599994E+00  0.37831417441E+00  0.20668655051E+01  0.21550394842E+01  0.51100000000E-03 0. -1.
    9000002    1    1    2    0    0 -0.26608412625E+00 -0.54464263247E+00  0.34043936166E+00  0.11675527047E+01  0.93800000000E+00 0.  1.
         22    1    1    2    0    0 -0.21260187369E+00  0.16632845805E+00  0.15926951006E+01  0.16154078111E+01  0.00000000000E+00 0.  1.
</event>
<event>
 5    1  0.2111786E+001  0.1581085E+01  0.7818608E-02  0.3374153E+00
         11   -1    0    0    0    0  0.00000000000E+00  0.00000000000E+00  0.39999999674E+01  0.40000000000E+01  0.51100000000E-03 0. -1.
    9000002   -1    0    0    0    0 -0.00000000000E+00 -0.00000000000E+00  0.00000000000E+00  0.93800000000E+00  0.93800000000E+00 0. -1.
         11    1    1    2    0    0  0.12965753906E+00 -0.25018187561E-01  0.18654942085E+01  0.18701619957E+01  0.51100000000E-03 0. -1.
    9000002    1    1    2    0    0  0.69301375819E-01  0.41750612115E-02  0.16811588492E-01  0.94071607902E+00  0.93800000000E+00 0. -1.
         22    1    1    2    0    0 -0.19895891488E+00  0.20843126349E-01  0.21176941704E+01  0.21271219253E+01  0.00000000000E+00 0. -1.
</event>
<event>
 5    1  0.2111786E+001  0.1593638E+01  0.7818608E-02  0.3360297E+00
         11   -1    0    0    0    0  0.00000000000E+00  0.00000000000E+00  0.39999999674E+01  0.40000000000E+01  0.51100000000E-03 0. -1.
    9000002   -1    0    0    0    0 -0.00000000000E+00 -0.00000000000E+00  0.00000000000E+00  0.93800000000E+00  0.93800000000E+00 0. -1.
         11    1    1    2    0    0  0.13637015767E+00  0.11550813291E+00  0.19567124049E+01  0.19648569020E+01  0.51100000000E-03 0. -1.
    9000002    1    1    2    0    0 -0.36085405531E+00 -0.66272269292E-01  0.95358879478E-01  0.10117039976E+01  0.93800000000E+00 0. -1.
         22    1    1    2    0    0  0.22448389764E+00 -0.49235863618E-01  0.19479286830E+01  0.19614391004E+01  0.00000000000E+00 0. -1.
</event>
<event>
 5    1  0.2111786E+001  0.1567365E+01  0.7818608E-02  0.3389564E+00
         11   -1    0    0    0    0  0.00000000000E+00  0.00000000000E+00  0.39999999674E+01  0.40000000000E+01  0.51100000000E-03 0. -1.
    9000002   -1    0    0    0    0 -0.00000000000E+00 -0.00000000000E+00  0.00000000000E+00  0.93800000000E+00  0.93800000000E+00 0. -1.
         11    1    1    2    0    0  0.39925204030E+00 -0.35268044978E+00  0.18201203838E+01  0.18964767766E+01  0.51100000000E-03 0. -1.
    9000002    1    1    2    0    0 -0.35184444576E+00  0.70766554846E+00  0.50109420471E+00  0.13249620540E+01  0.93800000000E+00 0. -1.
         22    1    1    2    0    0 -0.47407594536E-01 -0.35498509868E+00  0.16787853788E+01  0.17165611694E+01  0.00000000000E+00 0. -1.
</event>
<event>
 5    1  0.2111786E+001  0.1558710E+01  0.7818608E-02  0.3399435E+00
         11   -1    0    0    0    0  0.00000000000E+00  0.00000000000E+00  0.39999999674E+01  0.40000000000E+01  0.51100000000E-03 0. -1.
    9000002   -1    0    0    0    0 -0.00000000000E+00 -0.00000000000E+00  0.00000000000E+00  0.93800000000E+00  0.93800000000E+00 0.  1.
         11    1    1    2    0    0  0.25599481051E+00 -0.21271856939E+00  0.17601970432E+01  0.17913895234E+01  0.51100000000E-03 0. -1.
    9000002    1    1    2    0    0 -0.49763490686E-01  0.32446412581E+00  0.10539471856E+00  0.99935250069E+00  0.93800000000E+00 0.  1.
         22    1    1    2    0    0 -0.20623131982E+00 -0.11174555642E+00  0.21344082056E+01  0.21472579759E+01  0.00000000000E+00 0.  1.
</event>
<event>
 5    1  0.2661412E+001  0.1562976E+01  0.7818608E-02  0.3394555E+00
         11   -1    0    0    0    0  0.00000000000E+00  0.00000000000E+00  0.39999999674E+01  0.40000000000E+01  0.51100000000E-03 0.  1.
    9000002   -1    0    0    0    0 -0.00000000000E+00 -0.00000000000E+00  0.00000000000E+00  0.93800000000E+00  0.93800000000E+00 0.  1.
         11    1    1    2    0    0  0.18042882691E+00 -0.11277575931E+00  0.12522356737E+01  0.12701839934E+01  0.51100000000E-03 0.  1.
    9000002    1    1    2    0    0 -0.61791353889E-02 -0.19083628140E-01  0.27322510670E-01  0.93861221288E+00  0.93800000000E+00 0.  1.
         22    1    1    2    0    0 -0.17424969152E+00  0.13185938745E+00  0.27204417829E+01  0.27292037937E+01  0.00000000000E+00 0. -1.
</event>
<event>
 5    1  0.2111786E+001  0.1586981E+01  0.7818608E-02  0.3367616E+00
         11   -1    0    0    0    0  0.00000000000E+00  0.00000000000E+00  0.39999999674E+01  0.40000000000E+01  0.51100000000E-03 0.  1.
    9000002   -1    0    0    0    0 -0.00000000000E+00 -0.00000000000E+00  0.00000000000E+00  0.93800000000E+00  0.93800000000E+00 0. -1.
         11    1    1    2    0    0  0.69325215655E-01 -0.99478252678E-02  0.10452291807E+01  0.10475730266E+01  0.51100000000E-03 0.  1.
    9000002    1    1    2    0    0  0.14552928870E+00  0.23291959128E+00  0.60084339227E-01  0.97922644863E+00  0.93800000000E+00 0. -1.
         22    1    1    2    0    0 -0.21485450436E+00 -0.22297176601E+00  0.28946864474E+01  0.29112005248E+01  0.00000000000E+00 0.  1.
</event>
<event>
 5    1  0.2111786E+001  0.1459159E+01  0.7818608E-02  0.3522012E+00
         11   -1    0    0    0    0  0.00000000000E+00  0.00000000000E+00  0.39999999674E+01  0.40000000000E+01  0.51100000000E-03 0.  1.
    9000002   -1    0    0    0    0 -0.00000000000E+00 -0.00000000000E+00  0.00000000000E+00  0.93800000000E+00  0.93800000000E+00 0. -1.
         11    1    1    2    0    0 -0.36669756121E+00 -0.10607952082E+00  0.19813212225E+01  0.20177596521E+01  0.51100000000E-03 0.  1.
    9000002    1    1    2    0    0 -0.15847126856E+00  0.28892363765E+00  0.19432032242E+00  0.10130125365E+01  0.93800000000E+00 0. -1.
         22    1    1    2    0    0  0.52516882977E+00 -0.18284411683E+00  0.18243584225E+01  0.19072278114E+01  0.00000000000E+00 0. -1.
</event>
<event>
 5    1  0.2111786E+001  0.1453633E+01  0.7818608E-02  0.3529348E+00
         11   -1    0    0    0    0  0.00000000000E+00  0.00000000000E+00  0.39999999674E+01  0.40000000000E+01  0.51100000000E-03 0. -1.
    9000002   -1    0    0    0    0 -0.00000000000E+00 -0.00000000000E+00  0.00000000000E+00  0.93800000000E+00  0.93800000000E+00 0.  1.
         11    1    1    2    0    0  0.32670819389E+00  0.24730300255E+00  0.70046287566E+00  0.81150817637E+00  0.51100000000E-03 0. -1.
    9000002    1    1    2    0    0 -0.94391982465E-01 -0.15334713090E+00  0.14980238624E+00  0.96680398418E+00  0.93800000000E+00 0.  1.
         22    1    1    2    0    0 -0.23231621143E+00 -0.93955871648E-01  0.31497347055E+01  0.31596878394E+01  0.00000000000E+00 0. -1.
</event>
<event>
 5    1  0.2729796E+001  0.1559993E+01  0.7818608E-02  0.3397964E+00
         11   -1    0    0    0    0  0.00000000000E+00  0.00000000000E+00  0.39999999674E+01  0.40000000000E+01  0.51100000000E-03 0.  1.
    9000002   -1    0    0    0    0 -0.00000000000E+00 -0.00000000000E+00  0.00000000000E+00  0.93800000000E+00  0.93800000000E+00 0. -1.
         11    1    1    2    0    0  0.21326593792E+00 -0.13416867126E+00  0.22495372688E+01  0.22636037148E+01  0.51100000000E-03 0.  1.
    9000002    1    1    2    0    0 -0.19970044528E-01  0.15977479474E-01  0.29737960686E-01  0.93881969985E+00  0.93800000000E+00 0. -1.
         22    1    1    2    0    0 -0.19329589339E+00  0.11819119178E+00  0.17207247379E+01  0.17355765854E+01  0.00000000000E+00 0.  1.
</event>
<event>
 5    1  0.2111786E+001  0.1554032E+01  0.7818608E-02  0.3404818E+00
         11   -1    0    0    0    0  0.00000000000E+00  0.00000000000E+00  0.39999999674E+01  0.40000000000E+01  0.51100000000E-03 0.  1.
    9000002   -1    0    0    0    0 -0.00000000000E+00 -0.00000000000E+00  0.00000000000E+00  0.93800000000E+00  0.93800000000E+00 0. -1.
         11    1    1    2    0    0  0.78598576117E-01  0.25118647840E+00  0.20980059128E+01  0.21144506270E+01  0.51100000000E-03 0.  1.
    9000002    1    1    2    0    0  0.53564315991E-01 -0.33833611819E-01  0.36556679630E-01  0.94084761788E+00  0.93800000000E+00 0. -1.
         22    1    1    2    0    0 -0.13216289211E+00 -0.21735286658E+00  0.18654373750E+01  0.18827017551E+01  0.00000000000E+00 0.  1.
</event>
<event>
 5    1  0.2111786E+001  0.1583187E+01  0.7818608E-02  0.3371816E+00
         11   -1    0    0    0    0  0.00000000000E+00  0.00000000000E+00  0.39999999674E+01  0.40000000000E+01  0.51100000000E-03 0. -1.
    9000002   -1    0    0    0    0 -0.00000000000E+00 -0.00000000000E+00  0.00000000000E+00  0.93800000000E+00  0.93800000000E+00 0. -1.
         11    1    1    2    0    0  0.49153530941E-01  0.32515095217E-01  0.25074479678E+01  0.25081405211E+01  0.51100000000E-03 0. -1.
    9000002    1    1    2    0    0  0.54212861644E-01  0.14476615720E+00  0.28067611725E-01  0.95106680389E+00  0.93800000000E+00 0. -1.
         22    1    1    2    0    0 -0.10336639259E+00 -0.17728125242E+00  0.14644843878E+01  0.14787926751E+01  0.00000000000E+00 0. -1.
</event>
<event>
 5    1  0.2111786E+001  0.1551669E+01  0.7818608E-02  0.3407550E+00
         11   -1    0    0    0    0  0.00000000000E+00  0.00000000000E+00  0.39999999674E+01  0.40000000000E+01  0.51100000000E-03 0.  1.
    9000002   -1    0    0    0    0 -0.00000000000E+00 -0.00000000000E+00  0.00000000000E+00  0.93800000000E+00  0.93800000000E+00 0. -1.
         11    1    1    2    0    0 -0.17837181750E+00  0.18165687392E+00  0.12319094115E+01  0.12579414868E+01  0.51100000000E-03 0.  1.
    9000002    1    1    2    0    0  0.11658197689E+00  0.56243232331E-01  0.47174691199E-01  0.94806334704E+00  0.93800000000E+00 0. -1.
         22    1    1    2    0    0  0.61789840614E-01 -0.23790010625E+00  0.27209158647E+01  0.27319951661E+01  0.00000000000E+00 0.  1.
</event>
<event>
 5    1  0.2111786E+001  0.1544799E+01  0.7818608E-02  0.3415545E+00
         11   -1    0    0    0    0  0.00000000000E+00  0.00000000000E+00  0.39999999674E+01  0.40000000000E+01  0.51100000000E-03 0.  1.
    9000002   -1    0    0    0    0 -0.00000000000E+00 -0.00000000000E+00  0.00000000000E+00  0.93800000000E+00  0.93800000000E+00 0.  1.
         11    1    1    2    0    0 -0.14598091241E+00 -0.30905211057E+00  0.15712250424E+01  0.16079714017E+01  0.51100000000E-03 0.  1.
    9000002    1    1    2    0    0  0.37219997374E+00  0.78122107517E-01  0.14383586900E+00  0.10223348969E+01  0.93800000000E+00 0.  1.
         22    1    1    2    0    0 -0.22621906133E+00  0.23093000305E+00  0.22849390560E+01  0.23076937014E+01  0.00000000000E+00 0.  1.
</event>
<event>
 5    1  0.2111786E+001  0.1526224E+01  0.7818608E-02  0.3437548E+00
         11   -1    0    0    0    0  0.00000000000E+00  0.00000000000E+00  0.39999999674E+01  0.40000000000E+01  0.51100000000E-03 0.  1.
    9000002   -1    0    0    0    0 -0.00000000000E+00 -0.00000000000E+00  0.00000000000E+00  0.93800000000E+00  0.93800000000E+00 0.  1.
         11    1    1    2    0    0 -0.12657958621E+00 -0.98479897912E-01  0.30817275784E+01  0.30858978937E+01  0.51100000000E-03 0.  1.
    9000002    1    1    2    0    0 -0.15177216178E+00  0.25510415912E+00  0.11855653827E+00  0.99096547561E+00  0.93800000000E+00 0.  1.
         22    1    1    2    0    0  0.27835174799E+00 -0.15662426121E+00  0.79971585072E+00  0.86113663068E+00  0.00000000000E+00 0.  1.
</event>
<event>
 5    1  0.2111786E+001  0.1565328E+01  0.7818608E-02  0.3391876E+00
         11   -1    0    0    0    0  0.00000000000E+00  0.00000000000E+00  0.39999999674E+01  0.40000000000E+01  0.51100000000E-03 0. -1.
    9000002   -1    0    0    0    0 -0.00000000000E+00 -0.00000000000E+00  0.00000000000E+00  0.93800000000E+00  0.93800000000E+00 0. -1.
         11    1    1    2    0    0 -0.17794100096E+00  0.11041800728E+00  0.21344924005E+01  0.21447408247E+01  0.51100000000E-03 0. -1.
    9000002    1    1    2    0    0 -0.37937098732E-01 -0.18159661999E-01  0.26488769750E-01  0.93931605528E+00  0.93800000000E+00 0. -1.
         22    1    1    2    0    0  0.21587809970E+00 -0.92258345285E-01  0.18390187971E+01  0.18539431200E+01  0.00000000000E+00 0. -1.
</event>
<event>
 5    1  0.2111786E+001  0.1560319E+01  0.7818608E-02  0.3397591E+00
         11   -1    0    0    0    0  0.00000000000E+00  0.00000000000E+00  0.39999999674E+01  0.40000000000E+01  0.51100000000E-03 0.  1.
    9000002   -1    0    0    0    0 -0.00000000000E+00 -0.00000000000E+00  0.00000000000E+00  0.93800000000E+00  0.93800000000E+00 0.  1.
         11    1    1    2    0    0 -0.17905345253E+00 -0.17520927389E+00  0.22911899714E+01  0.23048449351E+01  0.51100000000E-03 0.  1.
    9000002    1    1    2    0    0  0.38178125373E-01 -0.13814632686E-02  0.30043723924E-01  0.93925827281E+00  0.93800000000E+00 0.  1.
         22    1    1    2    0    0  0.14087532715E+00  0.17659073716E+00  0.16787662720E+01  0.16938967921E+01  0.00000000000E+00 0. -1.
</event>
<event>
 5    1  0.2111786E+001  0.1577791E+01  0.7818608E-02  0.3377827E+00
         11   -1    0    0    0    0  0.00000000000E+00  0.00000000000E+00  0.39999999674E+01  0.40000000000E+01  0.51100000000E-03 0.  1.
    9000002   -1    0    0    0    0 -0.00000000000E+00 -0.00000000000E+00  0.00000000000E+00  0.93800000000E+00  0.93800000000E+00 0. -1.
         11    1    1    2    0    0 -0.91984826946E-01  0.19404344971E-01  0.20375235086E+01  0.20396911644E+01  0.51100000000E-03 0.  1.
    9000002    1    1    2    0    0  0.18733245167E+00  0.30393375925E+00  0.10345203021E+00  0.10089675416E+01  0.93800000000E+00 0. -1.
         22    1    1    2    0    0 -0.95347624726E-01 -0.32333810422E+00  0.18590244286E+01  0.18893412940E+01  0.00000000000E+00 0.  1.
</event>
<event>
 5    1  0.2111786E+001  0.1591029E+01  0.7818608E-02  0.3363158E+00
         11   -1    0    0    0    0  0.00000000000E+00  0.00000000000E+00  0.39999999674E+01  0.40000000000E+01  0.51100000000E-03 0.  1.
    9000002   -1    0    0    0    0 -0.00000000000E+00 -0.00000000000E+00  0.00000000000E+00  0.93800000000E+00  0.93800000000E+00 0. -1.
         11    1    1    2    0    0  0.71152444591E-01  0.68781199311E-01  0.19880682224E+01  0.19905298394E+01  0.51100000000E-03 0.  1.
    9000002    1    1    2    0    0 -0.25816523848E+00  0.52625943591E-01  0.52841735860E-01  0.97573307280E+00  0.93800000000E+00 0. -1.
         22    1    1    2    0    0  0.18701279389E+00 -0.12140714290E+00  0.19590900091E+01  0.19717370878E+01  0.00000000000E+00 0. -1.
</event>
<event>
 5    1  0.2111786E+001  0.1535688E+01  0.7818608E-02  0.3426266E+00
         11   -1    0    0    0    0  0.00000000000E+00  0.00000000000E+00  0.39999999674E+01  0.40000000000E+01  0.51100000000E-03 0.  1.
    9000002   -1    0    0    0    0 -0.00000000000E+00 -0.00000000000E+00  0.00000000000E+00  0.93800000000E+00  0.93800000000E+00 0. -1.
         11    1    1    2    0    0  0.22426623973E+00  0.19029199610E+00  0.29439898838E+01  0.29586454818E+01  0.51100000000E-03 0.  1.
    9000002    1    1    2    0    0  0.25564320223E-01 -0.11228004014E+00  0.57143922137E-01  0.94676806543E+00  0.93800000000E+00 0. -1.
         22    1    1    2    0    0 -0.24983055996E+00 -0.78011955963E-01  0.99886616143E+00  0.10325864528E+01  0.00000000000E+00 0.  1.
</event>
<event>
 5    1  0.2111786E+001  0.1541892E+01  0.7818608E-02  0.3418951E+00
         11   -1    0    0    0    0  0.00000000000E+00  0.00000000000E+00  0.39999999674E+01  0.40000000000E+01  0.51100000000E-03 0.  1.
    9000002   -1    0    0    0    0 -0.00000000000E+00 -0.00000000000E+00  0.00000000000E+00  0.93800000000E+00  0.93800000000E+00 0.  1.
         11    1    1    2    0    0 -0.15052065835E+00  0.10300770573E+00  0.47971900099E+00  0.51322279476E+00  0.51100000000E-03 0.  1.
    9000002    1    1    2    0    0  0.92856250722E-02  0.13351399238E+00  0.55566248722E-01  0.94912792446E+00  0.93800000000E+00 0.  1.
         22    1    1    2    0    0  0.14123503328E+00 -0.23652169811E+00  0.34647147176E+01  0.34756492808E+01  0.00000000000E+00 0.  1.
</event>
<event>
 5    1  0.2111786E+001  0.1585601E+01  0.7818608E-02  0.3369141E+00
         11   -1    0    0    0    0  0.00000000000E+00  0.00000000000E+00  0.39999999674E+01  0.40000000000E+01  0.51100000000E-03 0. -1.
    9000002   -1    0    0    0    0 -0.00000000000E+00 -0.00000000000E+00  0.00000000000E+00  0.93800000000E+00  0.93800000000E+00 0. -1.
         11    1    1    2    0    0 -0.78197276100E-01  0.69206980480E-01  0.84385669838E+00  0.85029336623E+00  0.51100000000E-03 0. -1.
    9000002    1    1    2    0    0  0.72486418218E-01  0.13796321191E+00  0.26519687521E-01  0.95122837557E+00  0.93800000000E+00 0. -1.
         22    1    1    2    0    0  0.57108578818E-02 -0.20717019239E+00  0.31296235815E+01  0.31364782582E+01  0.00000000000E+00 0. -1.
</event>
<event>
 5    1  0.2111786E+001  0.1536081E+01  0.7818608E-02  0.3425802E+00
         11   -1    0    0    0    0  0.00000000000E+00  0.00000000000E+00  0.39999999674E+01  0.40000000000E+01  0.51100000000E-03 0. -1.
    9000002   -1    0    0    0    0 -0.00000000000E+00 -0.00000000000E+00  0.00000000000E+00  0.93800000000E+00  0.93800000000E+00 0. -1.
         11    1    1    2    0    0  0.37354456427E+00 -0.78490591311E-01  0.71904848800E+00  0.81408064934E+00  0.51100000000E-03 0. -1.
    9000002    1    1    2    0    0 -0.64773376997E+00  0.83481376785E-01  0.37186891577E+00  0.12019395440E+01  0.93800000000E+00 0. -1.
         22    1    1    2    0    0  0.27418920570E+00 -0.49907854734E-02  0.29090825636E+01  0.29219798066E+01  0.00000000000E+00 0.  1.
</event>
<event>
 5    1  0.2111786E+001  0.1540458E+01  0.7818608E-02  0.3420637E+00
         11   -1    0    0    0    0  0.00000000000E+00  0.00000000000E+00  0.39999999674E+01  0.40000000000E+01  0.51100000000E-03 0. -1.
    9000002   -1    0    0    0    0 -0.00000000000E+00 -0.00000000000E+00  0.00000000000E+00  0.93800000000E+00  0.93800000000E+00 0.  1.
         11    1    1    2    0    0 -0.21769990823E+00  0.21742928021E-02  0.64202362936E+00  0.67793257730E+00  0.51100000000E-03 0. -1.
    9000002    1    1    2    0    0 -0.96870346145E-03 -0.17597151090E-01  0.44365976463E-01  0.93921400010E+00  0.93800000000E+00 0.  1.
         22    1    1    2    0    0  0.21866861169E+00  0.15422858288E-01  0.33136103615E+01  0.33208534226E+01  0.00000000000E+00 0. -1.
</event>
<event>
 5    1  0.2111786E+001  0.1530301E+01  0.7818608E-02  0.3432669E+00
         11   -1    0    0    0    0  0.00000000000E+00  0.00000000000E+00  0.39999999674E+01  0.40000000000E+01  0.51100000000E-03 0.  1.
    9000002   -1    0    0    0    0 -0.00000000000E+00 -0.00000000000E+00  0.00000000000E+00  0.93800000000E+00  0.93800000000E+00 0.  1.
         11    1    1    2    0    0  0.24904096685E+00 -0.38631122155E-01  0.76057784945E+00  0.80124446517E+00  0.51100000000E-03 0.  1.
    9000002    1    1    2    0    0 -0.77274063514E-02 -0.41454245824E-01  0.53251459354E-01  0.94045621122E+00  0.93800000000E+00 0.  1.
         22    1    1    2    0    0 -0.24131356050E+00  0.80085367978E-01  0.31861706586E+01  0.31962993236E+01  0.00000000000E+00 0.  1.
</event>
<event>
 5    1  0.2111786E+001  0.1578439E+01  0.7818608E-02  0.3377103E+00
         11   -1    0    0    0    0  0.00000000000E+00  0.00000000000E+00  0.39999999674E+01  0.40000000000E+01  0.51100000000E-03 0.  1.
    9000002   -1    0    0    0    0 -0.00000000000E+00 -0.00000000000E+00  0.00000000000E+00  0.93800000000E+00  0.93800000000E+00 0.  1.
         11    1    1    2    0    0 -0.11218237853E+00  0.74946988486E-01  0.96267645147E+00  0.97208443484E+00  0.51100000000E-03 0.  1.
    9000002    1    1    2    0    0 -0.11396809152E+00 -0.80756750518E-01  0.28677547730E-01  0.94877646492E+00  0.93800000000E+00 0.  1.
         22    1    1    2    0    0  0.22615047005E+00  0.58097620319E-02  0.30086459682E+01  0.30171391002E+01  0.00000000000E+00 0.  1.
</event>
<event>
 5    1  0.2111786E+001  0.1563221E+01  0.7818608E-02  0.3394276E+00
         11   -1    0    0    0    0  0.00000000000E+00  0.00000000000E+00  0.39999999674E+01  0.40000000000E+01  0.51100000000E-03 0. -1.
    9000002   -1    0    0    0    0 -0.00000000000E+00 -0.00000000000E+00  0.00000000000E+00  0.93800000000E+00  0.93800000000E+00 0.  1.
         11    1    1    2    0    0 -0.19867764794E+00 -0.38855242588E-01  0.27694084194E+01  0.27767977586E+01  0.51100000000E-03 0. -1.
    9000002    1    1    2    0    0  0.60699170283E-02 -0.63090319873E-01  0.29605687120E-01  0.94060498035E+00  0.93800000000E+00 0.  1.
         22    1    1    2    0    0  0.19260773091E+00  0.10194556246E+00  0.12009858608E+01  0.12205972610E+01  0.00000000000E+00 0.  1.
</event>
<event>
 5    1  0.2111786E+001  0.1507075E+01  0.7818608E-02  0.3460838E+00
         11   -1    0    0    0    0  0.00000000000E+00  0.00000000000E+00  0.39999999674E+01  0.40000000000E+01  0.51100000000E-03 0. -1.
    9000002   -1    0    0    0    0 -0.00000000000E+00 -0.00000000000E+00  0.00000000000E+00  0.93800000000E+00  0.93800000000E+00 0.  1.
         11    1    1    2    0    0 -0.44610133843E+00  0.28449159914E+00  0.31946315705E+01  0.32381496269E+01  0.51100000000E-03 0. -1.
    9000002    1    1    2    0    0  0.26820487259E+00 -0.14573309876E+00  0.13879709494E+00  0.99613283417E+00  0.93800000000E+00 0.  1.
         22    1    1    2    0    0  0.17789646584E+00 -0.13875850038E+00  0.66657130192E+00  0.70371753888E+00  0.00000000000E+00 0. -1.
</event>
<event>
 5    1  0.2111786E+001  0.1527462E+01  0.7818608E-02  0.3436064E+00
         11   -1    0    0    0    0  0.00000000000E+00  0.00000000000E+00  0.39999999674E+01  0.40000000000E+01  0.51100000000E-03 0. -1.
    9000002   -1    0    0    0    0 -0.00000000000E+00 -0.00000000000E+00  0.00000000000E+00  0.93800000000E+00  0.93800000000E+00 0. -1.
         11    1    1    2    0    0 -0.28421945633E+00  0.12397533147E+00  0.21204984234E+01  0.21430502576E+01  0.51100000000E-03 0. -1.
    9000002    1    1    2    0    0  0.20368909189E-01  0.87753367734E-01  0.59955167348E-01  0.94422146136E+00  0.93800000000E+00 0. -1.
         22    1    1    2    0    0  0.26385054714E+00 -0.21172869921E+00  0.18195463766E+01  0.18507282810E+01  0.00000000000E+00 0. -1.
</event>
<event>
 5    1  0.2111786E+001  0.1538090E+01  0.7818608E-02  0.3423427E+00
         11   -1    0    0    0    0  0.00000000000E+00  0.00000000000E+00  0.39999999674E+01  0.40000000000E+01  0.51100000000E-03 0. -1.
    9000002   -1    0    0    0    0 -0.00000000000E+00 -0.00000000000E+00  0.00000000000E+00  0.93800000000E+00  0.93800000000E+00 0. -1.
         11    1    1    2    0    0  0.14435766827E+00  0.21579559891E+00  0.29240726579E+01  0.29355762717E+01  0.51100000000E-03 0. -1.
    9000002    1    1    2    0    0 -0.22445188813E+00  0.59366863526E-01  0.84026221483E-01  0.96995230835E+00  0.93800000000E+00 0. -1.
         22    1    1    2    0    0  0.80094219856E-01 -0.27516246243E+00  0.99190108795E+00  0.10324714200E+01  0.00000000000E+00 0.  1.
</event>
<event>
 5    1  0.2111786E+001  0.1517663E+01  0.7818608E-02  0.3447882E+00
         11   -1    0    0    0    0  0.00000000000E+00  0.00000000000E+00  0.39999999674E+01  0.40000000000E+01  0.51100000000E-03 0.  1.
    9000002   -1    0    0    0    0 -0.00000000000E+00 -0.00000000000E+00  0.00000000000E+00  0.93800000000E+00  0.93800000000E+00 0. -1.
         11    1    1    2    0    0  0.43405798189E+00  0.23590706879E+00  0.22212843825E+01  0.22755577439E+01  0.51100000000E-03 0.  1.
    9000002    1    1    2    0    0 -0.27728725103E+00 -0.59965919388E-01  0.12024467655E+00  0.98731297637E+00  0.93800000000E+00 0. -1.
         22    1    1    2    0    0 -0.15677073086E+00 -0.17594114941E+00  0.16584709083E+01  0.16751292797E+01  0.00000000000E+00 0. -1.
</event>
<event>
 5    1  0.2111786E+001  0.1577609E+01  0.7818608E-02  0.3378030E+00
         11   -1    0    0    0    0  0.00000000000E+00  0.00000000000E+00  0.39999999674E+01  0.40000000000E+01  0.51100000000E-03 0.  1.
    9000002   -1    0    0    0    0 -0.00000000000E+00 -0.00000000000E+00  0.00000000000E+00  0.93800000000E+00  0.93800000000E+00 0.  1.
         11    1    1    2    0    0  0.12267146467E+00 -0.57599029796E-01  0.63989426887E+00  0.65408781744E+00  0.51100000000E-03 0.  1.
    9000002    1    1    2    0    0  0.48517276295E-01  0.22763645458E+00  0.52873960021E-01  0.96789045723E+00  0.93800000000E+00 0.  1.
         22    1    1    2    0    0 -0.17118874097E+00 -0.17003742479E+00  0.33072317385E+01  0.33160217253E+01  0.00000000000E+00 0.  1.
</event>
<event>
 5    1  0.2111786E+001  0.1553685E+01  0.7818608E-02  0.3405219E+00
         11   -1    0    0    0    0  0.00000000000E+00  0.00000000000E+00  0.39999999674E+01  0.40000000000E+01  0.51100000000E-03 0.  1.
    9000002   -1    0    0    0    0 -0.00000000000E+00 -0.00000000000E+00  0.00000000000E+00  0.93800000000E+00  0.93800000000E+00 0.  1.
         11    1    1    2    0    0  0.22967889519E+00 -0.16235926834E-01  0.16622788838E+01  0.16781499780E+01  0.51100000000E-03 0.  1.
    9000002    1    1    2    0    0  0.45344063612E-01 -0.92121784752E-01  0.41325597067E-01  0.94450744428E+00  0.93800000000E+00 0.  1.
         22    1    1    2    0    0 -0.27502295880E+00  0.10835771159E+00  0.22963954865E+01  0.23153425777E+01  0.00000000000E+00 0.  1.
</event>
<event>
 5    1  0.2111786E+001  0.1555228E+01  0.7818608E-02  0.3403439E+00
         11   -1    0    0    0    0  0.00000000000E+00  0.00000000000E+00  0.39999999674E+01  0.40000000000E+01  0.51100000000E-03 0. -1.
    9000002   -1    0    0    0    0 -0.00000000000E+00 -0.00000000000E+00  0.00000000000E+00  0.93800000000E+00  0.93800000000E+00 0.  1.
         11    1    1    2    0    0 -0.11678709403E-01  0.99613920033E-01  0.33337266461E+01  0.33352350648E+01  0.51100000000E-03 0. -1.
    9000002    1    1    2    0    0  0.60501122296E-01  0.98667888653E-01  0.42115300263E-01  0.94605149784E+00  0.93800000000E+00 0.  1.
         22    1    1    2    0    0 -0.48822412892E-01 -0.19828180869E+00  0.62415802100E+00  0.65671343738E+00  0.00000000000E+00 0.  1.
</event>
<event>
 5    1  0.2111786E+001  0.1548901E+01  0.7818608E-02  0.3410763E+00
         11   -1    0    0    0    0  0.00000000000E+00  0.00000000000E+00  0.39999999674E+01  0.40000000000E+01  0.51100000000E-03 0. -1.
    9000002   -1    0    0    0    0 -0.00000000000E+00 -0.00000000000E+00  0.00000000000E+00  0.93800000000E+00  0.93800000000E+00 0. -1.
         11    1    1    2    0    0 -0.25694464156E+00  0.18100870618E+00  0.16311383869E+01  0.16611434010E+01  0.51100000000E-03 0. -1.
    9000002    1    1    2    0    0  0.97573420017E-01 -0.59259566865E-01  0.46725314710E-01  0.94607585509E+00  0.93800000000E+00 0. -1.
         22    1    1    2    0    0  0.15937122154E+00 -0.12174913932E+00  0.23221362658E+01  0.23307807439E+01  0.00000000000E+00 0. -1.
</event>
<event>
 5    1  0.2111786E+001  0.1520593E+01  0.7818608E-02  0.3444332E+00
         11   -1    0    0    0    0  0.00000000000E+00  0.00000000000E+00  0.39999999674E+01  0.40000000000E+01  0.51100000000E-03 0. -1.
    9000002   -1    0    0    0    0 -0.00000000000E+00 -0.00000000000E+00  0.00000000000E+00  0.93800000000E+00  0.93800000000E+00 0. -1.
         11    1    1    2    0    0  0.12853541982E+00  0.14136629106E+00  0.31893999404E+01  0.31951178419E+01  0.51100000000E-03 0. -1.
    9000002    1    1    2    0    0  0.18388781282E-01  0.10519735220E+00  0.67722407602E-01  0.94648558081E+00  0.93800000000E+00 0. -1.
         22    1    1    2    0    0 -0.14692420111E+00 -0.24656364326E+00  0.74287761934E+00  0.79639657732E+00  0.00000000000E+00 0. -1.
</event>
<event>
 5    1  0.2111786E+001  0.1561771E+01  0.7818608E-02  0.3395930E+00
         11   -1    0    0    0    0  0.00000000000E+00  0.00000000000E+00  0.39999999674E+01  0.40000000000E+01  0.51100000000E-03 0.  1.
    9000002   -1    0    0    0    0 -0.00000000000E+00 -0.00000000000E+00  0.00000000000E+00  0.93800000000E+00  0.93800000000E+00 0. -1.
         11    1    1    2    0    0 -0.14013682387E+00 -0.94704603797E-01  0.76718399886E+00  0.78560730687E+00  0.51100000000E-03 0.  1.
    9000002    1    1    2    0    0 -0.10819876538E+00  0.13535064396E-01  0.36087992946E-01  0.94500609206E+00  0.93800000000E+00 0. -1.
         22    1    1    2    0    0  0.24833558924E+00  0.81169539401E-01  0.31967279756E+01  0.32073866011E+01  0.00000000000E+00 0.  1.
</event>
<event>
 5    1  0.2111786E+001  0.1538710E+01  0.7818608E-02  0.3422695E+00
         11   -1    0    0    0    0  0.00000000000E+00  0.00000000000E+00  0.39999999674E+01  0.40000000000E+01  0.51100000000E-03 0. -1.
    9000002   -1    0    0    0    0 -0.00000000000E+00 -0.00000000000E+00  0.00000000000E+00  0.93800000000E+00  0.93800000000E+00 0.  1.
         11    1    1    2    0    0 -0.60279291883E-01  0.31791755208E+00  0.12685561653E+01  0.13091753773E+01  0.51100000000E-03 0. -1.
    9000002    1    1    2    0    0 -0.10634869144E+00 -0.17175180355E+00  0.74220433212E-01  0.96237279622E+00  0.93800000000E+00 0.  1.
         22    1    1    2    0    0  0.16662798332E+00 -0.14616574854E+00  0.26572233689E+01  0.26664518265E+01  0.00000000000E+00 0. -1.
</event>
<event>
 5    1  0.2111786E+001  0.1527529E+01  0.7818608E-02  0.3435983E+00
         11   -1    0    0    0    0  0.00000000000E+00  0.00000000000E+00  0.39999999674E+01  0.40000000000E+01  0.51100000000E-03 0. -1.
    9000002   -1    0    0    0    0 -0.00000000000E+00 -0.00000000000E+00  0.00000000000E+00  0.93800000000E+00  0.93800000000E+00 0.  1.
         11    1    1    2    0    0  0.29344978693E-01 -0.49951250296E+00  0.17595320692E+01  0.18292969229E+01  0.51100000000E-03 0. -1.
    9000002    1    1    2    0    0 -0.21010088041E+00  0.39465631912E+00  0.20076349642E+00  0.10583222438E+01  0.93800000000E+00 0.  1.
         22    1    1    2    0    0  0.18075590172E+00  0.10485618384E+00  0.20397044017E+01  0.20503808334E+01  0.00000000000E+00 0. -1.
</event>
<event>
 5    1  0.2111786E+001  0.1523828E+01  0.7818608E-02  0.3440428E+00
         11   -1    0    0    0    0  0.00000000000E+00  0.00000000000E+00  0.39999999674E+01  0.40000000000E+01  0.51100000000E-03 0. -1.
    9000002   -1    0    0    0    0 -0.00000000000E+00 -0.00000000000E+00  0.00000000000E+00  0.93800000000E+00  0.93800000000E+00 0. -1.
         11    1    1    2    0    0 -0.30274816663E+00  0.11440681832E+00  0.12769218534E+01  0.13172983919E+01  0.51100000000E-03 0. -1.
    9000002    1    1    2    0    0  0.60150568888E-01  0.43252941376E-01  0.60945792426E-01  0.94289304669E+00  0.93800000000E+00 0. -1.
         22    1    1    2    0    0  0.24259759774E+00 -0.15765975969E+00  0.26621323216E+01  0.26778085614E+01  0.00000000000E+00 0. -1.
</event>
<event>
 5    1  0.2111786E+001  0.1541404E+01  0.7818608E-02  0.3419525E+00
         11   -1    0    0    0    0  0.00000000000E+00  0.00000000000E+00  0.39999999674E+01  0.40000000000E+01  0.51100000000E-03 0.  1.
    9000002   -1    0    0    0    0 -0.00000000000E+00 -0.00000000000E+00  0.00000000000E+00  0.93800000000E+00  0.93800000000E+00 0. -1.
         11    1    1    2    0    0 -0.21834197445E+00 -0.21682313177E+00  0.15111679225E+01  0.15421784071E+01  0.51100000000E-03 0.  1.
    9000002    1    1    2    0    0  0.15019891004E-01  0.79829947511E-01  0.48027374558E-01  0.94273487596E+00  0.93800000000E+00 0. -1.
         22    1    1    2    0    0  0.20332208345E+00  0.13699318425E+00  0.24408046703E+01  0.24530867170E+01  0.00000000000E+00 0.  1.
</event>
<event>
 5    1  0.2111786E+001  0.1540257E+01  0.7818608E-02  0.3420873E+00
         11   -1    0    0    0    0  0.00000000000E+00  0.00000000000E+00  0.39999999674E+01  0.40000000000E+01  0.51100000000E-03 0.  1.
    9000002   -1    0    0    0    0 -0.00000000000E+00 -0.00000000000E+00  0.00000000000E+00  0.93800000000E+00  0.93800000000E+00 0.  1.
         11    1    1    2    0    0 -0.26968461660E+00  0.39294380791E-01  0.22404107836E+01  0.22569259140E+01  0.51100000000E-03 0.  1.
    9000002    1    1    2    0    0 -0.36097874413E-01 -0.34780366543E-01  0.46057753581E-01  0.94046693036E+00  0.93800000000E+00 0.  1.
         22    1    1    2    0    0  0.30578249101E+00 -0.45140142485E-02  0.17135314302E+01  0.17406071556E+01  0.00000000000E+00 0.  1.
</event>
<event>
 5    1  0.2111786E+001  0.1557985E+01  0.7818608E-02  0.3400267E+00
         11   -1    0    0    0    0  0.00000000000E+00  0.00000000000E+00  0.39999999674E+01  0.40000000000E+01  0.51100000000E-03 0.  1.
    9000002   -1    0    0    0    0 -0.00000000000E+00 -0.00000000000E+00  0.00000000000E+00  0.93800000000E+00  0.93800000000E+00 0. -1.
         11    1    1    2    0    0 -0.20045445046E+00  0.65136199709E-01  0.17924084464E+01  0.18047584357E+01  0.51100000000E-03 0.  1.
    9000002    1    1    2    0    0 -0.57193965263E-01  0.60941622569E-01  0.35597380035E-01  0.94238856343E+00  0.93800000000E+00 0. -1.
         22    1    1    2    0    0  0.25764841572E+00 -0.12607782228E+00  0.21719941409E+01  0.21908530009E+01  0.00000000000E+00 0.  1.
</event>
<event>
 5    1  0.2111786E+001  0.1586209E+01  0.7818608E-02  0.3368469E+00
         11   -1    0    0    0    0  0.00000000000E+00  0.00000000000E+00  0.39999999674E+01  0.40000000000E+01  0.51100000000E-03 0.  1.
    9000002   -1    0    0    0    0 -0.00000000000E+00 -0.00000000000E+00  0.00000000000E+00  0.93800000000E+00  0.93800000000E+00 0. -1.
         11    1    1    2    0    0 -0.49141894691E+00  0.32322090140E+00  0.20829762222E+01  0.21644293788E+01  0.51100000000E-03 0.  1.
    9000002    1    1    2    0    0  0.60367263375E+00 -0.49439997230E+00  0.46269652262E+00  0.13049076800E+01  0.93800000000E+00 0. -1.
         22    1    1    2    0    0 -0.11225368684E+00  0.17117907090E+00  0.14543272225E+01  0.14686629412E+01  0.00000000000E+00 0.  1.
</event>
<event>
 5    1  0.2111786E+001  0.1557933E+01  0.7818608E-02  0.3400327E+00
         11   -1    0    0    0    0  0.00000000000E+00  0.00000000000E+00  0.39999999674E+01  0.40000000000E+01  0.51100000000E-03 0. -1.
    9000002   -1    0    0    0    0 -0.00000000000E+00 -0.00000000000E+00  0.00000000000E+00  0.93800000000E+00  0.93800000000E+00 0. -1.
         11    1    1    2    0    0  0.11576095891E-01 -0.22759033790E+00  0.29830297737E+01  0.29917216213E+01  0.51100000000E-03 0. -1.
    9000002    1    1    2    0    0 -0.35899196901E-01  0.20318804291E-01  0.32010277473E-01  0.93945210842E+00  0.93800000000E+00 0. -1.
         22    1    1    2    0    0  0.24323101010E-01  0.20727153361E+00  0.98495991623E+00  0.10068262702E+01  0.00000000000E+00 0. -1.
</event>
<event>
 5    1  0.2111786E+001  0.1473645E+01  0.7818608E-02  0.3503063E+00
         11   -1    0    0    0    0  0.00000000000E+00  0.00000000000E+00  0.39999999674E+01  0.40000000000E+01  0.51100000000E-03 0.  1.
    9000002   -1    0    0    0    0 -0.00000000000E+00 -0.00000000000E+00  0.00000000000E+00  0.93800000000E+00  0.93800000000E+00 0. -1.
         11    1    1    2    0    0  0.25509779260E-02 -0.29939097992E+00  0.65962843057E+00  0.72439726248E+00  0.51100000000E-03 0.  1.
    9000002    1    1    2    0    0 -0.35167430610E+00 -0.12774142625E+00  0.20550558096E+00  0.10305674327E+01  0.93800000000E+00 0. -1.
         22    1    1    2    0    0  0.34912332817E+00  0.42713240617E+00  0.31348659558E+01  0.31830353048E+01  0.00000000000E+00 0.  1.
</event>
<event>
 5    1  0.2111786E+001  0.1535001E+01  0.7818608E-02  0.3427080E+00
         11   -1    0    0    0    0  0.00000000000E+00  0.00000000000E+00  0.39999999674E+01  0.40000000000E+01  0.51100000000E-03 0. -1.
    9000002   -1    0    0    0    0 -0.00000000000E+00 -0.00000000000E+00  0.00000000000E+00  0.93800000000E+00  0.93800000000E+00 0. -1.
         11    1    1    2    0    0  0.23164102027E+00  0.10666618882E+00  0.19239414681E+01  0.19407695051E+01  0.51100000000E-03 0. -1.
    9000002    1    1    2    0    0  0.67446684720E-02  0.18265792224E+00  0.71934814364E-01  0.95834650551E+00  0.93800000000E+00 0. -1.
         22    1    1    2    0    0 -0.23838568874E+00 -0.28932411106E+00  0.20041236849E+01  0.20388839894E+01  0.00000000000E+00 0. -1.
</event>
<event>
 5    1  0.2111786E+001  0.1497349E+01  0.7818608E-02  0.3472913E+00
         11   -1    0    0    0    0  0.00000000000E+00  0.00000000000E+00  0.39999999674E+01  0.40000000000E+01  0.51100000000E-03 0.  1.
    9000002   -1    0    0    0    0 -0.00000000000E+00 -0.00000000000E+00  0.00000000000E+00  0.93800000000E+00  0.93800000000E+00 0.  1.
         11    1    1    2    0    0 -0.52309833943E+00  0.35101551540E+00  0.20025277430E+01  0.20992763961E+01  0.51100000000E-03 0.  1.
    9000002    1    1    2    0    0  0.28568128515E+00 -0.44384846447E+00  0.29326422362E+00  0.11155550910E+01  0.93800000000E+00 0.  1.
         22    1    1    2    0    0  0.23741705427E+00  0.92832949064E-01  0.17042080008E+01  0.17231685130E+01  0.00000000000E+00 0.  1.
</event>
<event>
 5    1  0.2111786E+001  0.1547362E+01  0.7818608E-02  0.3412555E+00
         11   -1    0    0    0    0  0.00000000000E+00  0.00000000000E+00  0.39999999674E+01  0.40000000000E+01  0.51100000000E-03 0. -1.
    9000002   -1    0    0    0    0 -0.00000000000E+00 -0.00000000000E+00  0.00000000000E+00  0.93800000000E+00  0.93800000000E+00 0.  1.
         11    1    1    2    0    0  0.14244904977E+00 -0.26151301951E+00  0.15874859293E+01  0.16151757267E+01  0.51100000000E-03 0. -1.
    9000002    1    1    2    0    0  0.14272389699E-01  0.89030087010E-01  0.44504069006E-01  0.94337408787E+00  0.93800000000E+00 0.  1.
         22    1    1    2    0    0 -0.15672143947E+00  0.17248293250E+00  0.23680099691E+01  0.23794501855E+01  0.00000000000E+00 0. -1.
</event>
<event>
 5    1  0.2111786E+001  0.1571586E+01  0.7818608E-02  0.3384793E+00
         11   -1    0    0    0    0  0.00000000000E+00  0.00000000000E+00  0.39999999674E+01  0.40000000000E+01  0.51100000000E-03 0. -1.
    9000002   -1    0    0    0    0 -0.00000000000E+00 -0.00000000000E+00  0.00000000000E+00  0.93800000000E+00  0.93800000000E+00 0. -1.
         11    1    1    2    0    0  0.14162362819E+00 -0.79236402043E-01  0.12385835848E+01  0.12491698112E+01  0.51100000000E-03 0. -1.
    9000002    1    1    2    0    0  0.64434447439E-01 -0.46131624311E-01  0.24865162789E-01  0.94166990028E+00  0.93800000000E+00 0. -1.
         22    1    1    2    0    0 -0.20605807563E+00  0.12536802635E+00  0.27365512198E+01  0.27471602885E+01  0.00000000000E+00 0. -1.
</event>
<event>
 5    1  0.2111786E+001  0.1564933E+01  0.7818608E-02  0.3392326E+00
         11   -1    0    0    0    0  0.00000000000E+00  0.00000000000E+00  0.39999999674E+01  0.40000000000E+01  0.51100000000E-03 0. -1.
    9000002   -1    0    0    0    0 -0.00000000000E+00 -0.00000000000E+00  0.00000000000E+00  0.93800000000E+00  0.93800000000E+00 0. -1.
         11    1    1    2    0    0  0.12669451380E+00 -0.62886005595E-01  0.91954902804E+00  0.93036381358E+00  0.51100000000E-03 0. -1.
    9000002    1    1    2    0    0  0.23463398076E+00  0.31307446963E-01  0.64070150120E-01  0.96952681515E+00  0.93800000000E+00 0. -1.
         22    1    1    2    0    0 -0.36132849456E+00  0.31578558632E-01  0.30163807892E+01  0.30381093713E+01  0.00000000000E+00 0. -1.
</event>
<event>
 5    1  0.2111786E+001  0.1532694E+01  0.7818608E-02  0.3429819E+00
         11   -1    0    0    0    0  0.00000000000E+00  0.00000000000E+00  0.39999999674E+01  0.40000000000E+01  0.51100000000E-03 0.  1.
    9000002   -1    0    0    0    0 -0.00000000000E+00 -0.00000000000E+00  0.00000000000E+00  0.93800000000E+00  0.93800000000E+00 0. -1.
         11    1    1    2    0    0 -0.28285511854E+00 -0.24095205129E+00  0.10139798276E+01  0.10799167843E+01  0.51100000000E-03 0.  1.
    9000002    1    1    2    0    0  0.50285644129E+00  0.12053139813E-01  0.23652645147E+00  0.10903204304E+01  0.93800000000E+00 0. -1.
         22    1    1    2    0    0 -0.22000132275E+00  0.22889891148E+00  0.27494936883E+01  0.27677627853E+01  0.00000000000E+00 0.  1.
</event>
<event>
 5    1  0.2111786E+001  0.1587519E+01  0.7818608E-02  0.3367022E+00
         11   -1    0    0    0    0  0.00000000000E+00  0.00000000000E+00  0.39999999674E+01  0.40000000000E+01  0.51100000000E-03 0.  1.
    9000002   -1    0    0    0    0 -0.00000000000E+00 -0.00000000000E+00  0.00000000000E+00  0.93800000000E+00  0.93800000000E+00 0.  1.
         11    1    1    2    0    0 -0.73741270360E-02  0.29306879809E+00  0.11313782784E+01  0.11687432430E+01  0.51100000000E-03 0.  1.
    9000002    1    1    2    0    0  0.60191389212E-03 -0.56499091851E+00  0.23286540562E+00  0.11195022990E+01  0.93800000000E+00 0.  1.
         22    1    1    2    0    0  0.67722131439E-02  0.27192212042E+00  0.26357562834E+01  0.26497544580E+01  0.00000000000E+00 0.  1.
</event>
<event>
 5    1  0.2111786E+001  0.1351253E+01  0.7818608E-02  0.3688346E+00
         11   -1    0    0    0    0  0.00000000000E+00  0.00000000000E+00  0.39999999674E+01  0.40000000000E+01  0.51100000000E-03 0.  1.
    9000002   -1    0    0    0    0 -0.00000000000E+00 -0.00000000000E+00  0.00000000000E+00  0.93800000000E+00  0.93800000000E+00 0. -1.
         11    1    1    2    0    0 -0.84834975939E+00 -0.62834914552E+00  0.23307197204E+01  0.25586665745E+01  0.51100000000E-03 0.  1.
    9000002    1    1    2    0    0  0.49021209832E+00  0.57603214269E+00  0.82386103836E+00  0.14596958386E+01  0.93800000000E+00 0. -1.
         22    1    1    2    0    0  0.35813766107E+00  0.52317002830E-01  0.84541920857E+00  0.91963758692E+00  0.00000000000E+00 0.  1.
</event>
<event>
 5    1  0.2972666E+001  0.1571181E+01  0.7818608E-02  0.3385249E+00
         11   -1    0    0    0    0  0.00000000000E+00  0.00000000000E+00  0.39999999674E+01  0.40000000000E+01  0.51100000000E-03 0. -1.
    9000002   -1    0    0    0    0 -0.00000000000E+00 -0.00000000000E+00  0.00000000000E+00  0.93800000000E+00  0.93800000000E+00 0. -1.
         11    1    1    2    0    0  0.17267572028E+00 -0.46034414121E-01  0.25769033341E+01  0.25830925508E+01  0.51100000000E-03 0. -1.
    9000002    1    1    2    0    0  0.22658631823E-01 -0.77769887695E-02  0.21303554284E-01  0.93854767411E+00  0.93800000000E+00 0. -1.
         22    1    1    2    0    0 -0.19533435210E+00  0.53811402891E-01  0.14017930790E+01  0.14163597751E+01  0.00000000000E+00 0. -1.
</event>
<event>
 5    1  0.2111786E+001  0.1553230E+01  0.7818608E-02  0.3405745E+00
         11   -1    0    0    0    0  0.00000000000E+00  0.00000000000E+00  0.39999999674E+01  0.40000000000E+01  0.51100000000E-03 0. -1.
    9000002   -1    0    0    0    0 -0.00000000000E+00 -0.00000000000E+00  0.00000000000E+00  0.93800000000E+00  0.93800000000E+00 0.  1.
         11    1    1    2    0    0  0.14620731635E+00  0.72062369549E-01  0.53996396387E+00  0.56403094584E+00  0.51100000000E-03 0. -1.
    9000002    1    1    2    0    0  0.99912009789E-01  0.63672317661E-01  0.44090754526E-01  0.94648009402E+00  0.93800000000E+00 0.  1.
         22    1    1    2    0    0 -0.24611932614E+00 -0.13573468721E+00  0.34159452490E+01  0.34274889601E+01  0.00000000000E+00 0. -1.
</event>
<event>
 5    1  0.2111786E+001  0.1529808E+01  0.7818608E-02  0.3433258E+00
         11   -1    0    0    0    0  0.00000000000E+00  0.00000000000E+00  0.39999999674E+01  0.40000000000E+01  0.51100000000E-03 0. -1.
    9000002   -1    0    0    0    0 -0.00000000000E+00 -0.00000000000E+00  0.00000000000E+00  0.93800000000E+00  0.93800000000E+00 0. -1.
         11    1    1    2    0    0  0.26362337028E+00  0.15098296793E+00  0.10866798706E+01  0.11283468173E+01  0.51100000000E-03 0. -1.
    9000002    1    1    2    0    0 -0.58347110440E-01 -0.31725276205E-01  0.55495123830E-01  0.94198438799E+00  0.93800000000E+00 0. -1.
         22    1    1    2    0    0 -0.20527625984E+00 -0.11925769172E+00  0.28578249730E+01  0.28676687947E+01  0.00000000000E+00 0. -1.
</event>
<event>
 5    1  0.2111786E+001  0.1545340E+01  0.7818608E-02  0.3414914E+00
         11   -1    0    0    0    0  0.00000000000E+00  0.00000000000E+00  0.39999999674E+01  0.40000000000E+01  0.51100000000E-03 0. -1.
    9000002   -1    0    0    0    0 -0.00000000000E+00 -0.00000000000E+00  0.00000000000E+00  0.93800000000E+00  0.93800000000E+00 0.  1.
         11    1    1    2    0    0 -0.23633305116E+00  0.45636280991E-01  0.64310643864E+00  0.68667469281E+00  0.51100000000E-03 0. -1.
    9000002    1    1    2    0    0  0.15207915453E+00 -0.26614362880E+00  0.10669567943E+00  0.99256660653E+00  0.93800000000E+00 0.  1.
         22    1    1    2    0    0  0.84253896633E-01  0.22050734780E+00  0.32501978493E+01  0.32587587007E+01  0.00000000000E+00 0. -1.
</event>
<event>
 5    1  0.2111786E+001  0.1461982E+01  0.7818608E-02  0.3518287E+00
         11   -1    0    0    0    0  0.00000000000E+00  0.00000000000E+00  0.39999999674E+01  0.40000000000E+01  0.51100000000E-03 0. -1.
    9000002   -1    0    0    0    0 -0.00000000000E+00 -0.00000000000E+00  0.00000000000E+00  0.93800000000E+00  0.93800000000E+00 0. -1.
         11    1    1    2    0    0  0.12782062237E+00 -0.14746935362E+00  0.16795107867E+00  0.25747455740E+00  0.51100000000E-03 0. -1.
    9000002    1    1    2    0    0  0.63052688173E-01 -0.11273749665E+00  0.11994322295E+00  0.95441907010E+00  0.93800000000E+00 0. -1.
         22    1    1    2    0    0 -0.19087331054E+00  0.26020685026E+00  0.37121056657E+01  0.37261063725E+01  0.00000000000E+00 0. -1.
</event>
<event>
 5    1  0.2111786E+001  0.1593678E+01  0.7818608E-02  0.3360254E+00
         11   -1    0    0    0    0  0.00000000000E+00  0.00000000000E+00  0.39999999674E+01  0.40000000000E+01  0.51100000000E-03 0.  1.
    9000002   -1    0    0    0    0 -0.00000000000E+00 -0.00000000000E+00  0.00000000000E+00  0.93800000000E+00  0.93800000000E+00 0.  1.
         11    1    1    2    0    0 -0.28257825187E-01 -0.35765576366E-02  0.11313700639E+01  0.11317286685E+01  0.51100000000E-03 0.  1.
    9000002    1    1    2    0    0  0.38622694109E+00  0.54436709803E-01  0.10746222823E+00  0.10215315638E+01  0.93800000000E+00 0.  1.
         22    1    1    2    0    0 -0.35796911590E+00 -0.50860152166E-01  0.27611676752E+01  0.27847397676E+01  0.00000000000E+00 0. -1.
</event>
<event>
 5    1  0.2111786E+001  0.1543565E+01  0.7818608E-02  0.3416990E+00
         11   -1    0    0    0    0  0.00000000000E+00  0.00000000000E+00  0.39999999674E+01  0.40000000000E+01  0.51100000000E-03 0. -1.
    9000002   -1    0    0    0    0 -0.00000000000E+00 -0.00000000000E+00  0.00000000000E+00  0.93800000000E+00  0.93800000000E+00 0.  1.
         11    1    1    2    0    0  0.10088642304E+00 -0.13907279334E-02  0.34444010863E+01  0.34458785685E+01  0.51100000000E-03 0. -1.
    9000002    1    1    2    0    0  0.32318892052E-01  0.16482526845E+00  0.61482221019E-01  0.95490101236E+00  0.93800000000E+00 0.  1.
         22    1    1    2    0    0 -0.13320531509E+00 -0.16343454051E+00  0.49411666001E+00  0.53722041911E+00  0.00000000000E+00 0.  1.
</event>
<event>
 5    1  0.2111786E+001  0.1555430E+01  0.7818608E-02  0.3403205E+00
         11   -1    0    0    0    0  0.00000000000E+00  0.00000000000E+00  0.39999999674E+01  0.40000000000E+01  0.51100000000E-03 0. -1.
    9000002   -1    0    0    0    0 -0.00000000000E+00 -0.00000000000E+00  0.00000000000E+00  0.93800000000E+00  0.93800000000E+00 0.  1.
         11    1    1    2    0    0  0.18007309126E+00 -0.12003538870E+00  0.11716310618E+01  0.11914505524E+01  0.51100000000E-03 0. -1.
    9000002    1    1    2    0    0  0.36611399195E-01 -0.35061098028E-01  0.34500458501E-01  0.94000210467E+00  0.93800000000E+00 0.  1.
         22    1    1    2    0    0 -0.21668449045E+00  0.15509648673E+00  0.27938684471E+01  0.28065473429E+01  0.00000000000E+00 0. -1.
</event>
<event>
 5    1  0.2111786E+001  0.1454424E+01  0.7818608E-02  0.3528294E+00
         11   -1    0    0    0    0  0.00000000000E+00  0.00000000000E+00  0.39999999674E+01  0.40000000000E+01  0.51100000000E-03 0. -1.
    9000002   -1    0    0    0    0 -0.00000000000E+00 -0.00000000000E+00  0.00000000000E+00  0.93800000000E+00  0.93800000000E+00 0. -1.
         11    1    1    2    0    0 -0.81522053874E-02  0.37592417456E+00  0.73926893626E+00  0.82939994256E+00  0.51100000000E-03 0. -1.
    9000002    1    1    2    0    0 -0.64797211466E-01 -0.50876750030E-01  0.11882065950E+00  0.94907822198E+00  0.93800000000E+00 0. -1.
         22    1    1    2    0    0  0.72949416854E-01 -0.32504742453E+00  0.31419103716E+01  0.31595218355E+01  0.00000000000E+00 0. -1.
</event>
<event>
 5    1  0.2111786E+001  0.1546674E+01  0.7818608E-02  0.3413356E+00
         11   -1    0    0    0    0  0.00000000000E+00  0.00000000000E+00  0.39999999674E+01  0.40000000000E+01  0.51100000000E-03 0.  1.
    9000002   -1    0    0    0    0 -0.00000000000E+00 -0.00000000000E+00  0.00000000000E+00  0.93800000000E+00  0.93800000000E+00 0.  1.
         11    1    1    2    0    0  0.36743191630E+00  0.15437430534E+00  0.22751386739E+01  0.23097822162E+01  0.51100000000E-03 0.  1.
    9000002    1    1    2    0    0 -0.16160608311E+00 -0.25473930005E+00  0.10347067396E+00  0.99073650254E+00  0.93800000000E+00 0.  1.
         22    1    1    2    0    0 -0.20582583319E+00  0.10036499472E+00  0.16213906195E+01  0.16374812813E+01  0.00000000000E+00 0. -1.
</event>
<event>
 5    1  0.2111786E+001  0.1568167E+01  0.7818608E-02  0.3388655E+00
         11   -1    0    0    0    0  0.00000000000E+00  0.00000000000E+00  0.39999999674E+01  0.40000000000E+01  0.51100000000E-03 0.  1.
    9000002   -1    0    0    0    0 -0.00000000000E+00 -0.00000000000E+00  0.00000000000E+00  0.93800000000E+00  0.93800000000E+00 0. -1.
         11    1    1    2    0    0 -0.22455742099E-01 -0.24067695382E+00  0.18454643620E+01  0.18612277209E+01  0.51100000000E-03 0.  1.
    9000002    1    1    2    0    0  0.16627940696E+00  0.74572098546E-01  0.45815434108E-01  0.95663623863E+00  0.93800000000E+00 0. -1.
         22    1    1    2    0    0 -0.14382366486E+00  0.16610485527E+00  0.21087201712E+01  0.21201360405E+01  0.00000000000E+00 0.  1.
</event>
<event>
 5    1  0.2111786E+001  0.1456992E+01  0.7818608E-02  0.3524882E+00
         11   -1    0    0    0    0  0.00000000000E+00  0.00000000000E+00  0.39999999674E+01  0.40000000000E+01  0.51100000000E-03 0. -1.
    9000002   -1    0    0    0    0 -0.00000000000E+00 -0.00000000000E+00  0.00000000000E+00  0.93800000000E+00  0.93800000000E+00 0. -1.
         11    1    1    2    0    0 -0.17720951103E+00  0.30098534220E+00  0.56021837959E+00  0.66018200594E+00  0.51100000000E-03 0. -1.
    9000002    1    1    2    0    0  0.50748361313E-01 -0.12000246910E+00  0.12445610275E+00  0.95514884195E+00  0.93800000000E+00 0. -1.
         22    1    1    2    0    0  0.12646114972E+00 -0.18098287310E+00  0.33153254850E+01  0.33226691521E+01  0.00000000000E+00 0. -1.
</event>
<event>
 5    1  0.2111786E+001  0.1556632E+01  0.7818608E-02  0.3401822E+00
         11   -1    0    0    0    0  0.00000000000E+00  0.00000000000E+00  0.39999999674E+01  0.40000000000E+01  0.51100000000E-03 0. -1.
    9000002   -1    0    0    0    0 -0.00000000000E+00 -0.00000000000E+00  0.00000000000E+00  0.93800000000E+00  0.93800000000E+00 0. -1.
         11    1    1    2    0    0  0.26309041317E+00  0.96610171803E-01  0.63071828550E+00  0.69018541537E+00  0.51100000000E-03 0. -1.
    9000002    1    1    2    0    0 -0.51188568236E+00 -0.13120530201E+00  0.23305472408E+00  0.11015445009E+01  0.93800000000E+00 0. -1.
         22    1    1    2    0    0  0.24879526919E+00  0.34595130212E-01  0.31362269578E+01  0.31462700837E+01  0.00000000000E+00 0. -1.
</event>
<event>
 5    1  0.2111786E+001  0.1551550E+01  0.7818608E-02  0.3407689E+00
         11   -1    0    0    0    0  0.00000000000E+00  0.00000000000E+00  0.39999999674E+01  0.40000000000E+01  0.51100000000E-03 0. -1.
    9000002   -1    0    0    0    0 -0.00000000000E+00 -0.00000000000E+00  0.00000000000E+00  0.93800000000E+00  0.93800000000E+00 0.  1.
         11    1    1    2    0    0 -0.19187596685E+00 -0.91907648676E-01  0.74710120146E+00  0.77680362311E+00  0.51100000000E-03 0. -1.
    9000002    1    1    2    0    0  0.73962503932E-01 -0.82744069739E-01  0.44190608579E-01  0.94557593188E+00  0.93800000000E+00 0.  1.
         22    1    1    2    0    0  0.11791346291E+00  0.17465171841E+00  0.32087081573E+01  0.32156204450E+01  0.00000000000E+00 0. -1.
</event>
<event>
 5    1  0.2111786E+001  0.1469145E+01  0.7818608E-02  0.3508906E+00
         11   -1    0    0    0    0  0.00000000000E+00  0.00000000000E+00  0.39999999674E+01  0.40000000000E+01  0.51100000000E-03 0. -1.
    9000002   -1    0    0    0    0 -0.00000000000E+00 -0.00000000000E+00  0.00000000000E+00  0.93800000000E+00  0.93800000000E+00 0. -1.
         11    1    1    2    0    0  0.46856111915E+00  0.22184186181E+00  0.18035307956E+01  0.18765625291E+01  0.51100000000E-03 0. -1.
    9000002    1    1    2    0    0 -0.10627878162E+00 -0.22643797975E+00  0.14898676963E+00  0.98214581179E+00  0.93800000000E+00 0. -1.
         22    1    1    2    0    0 -0.36228233753E+00  0.45961179366E-02  0.20474824021E+01  0.20792916591E+01  0.00000000000E+00 0. -1.
</event>
<event>
 5    1  0.2111786E+001  0.1488062E+01  0.7818608E-02  0.3484602E+00
         11   -1    0    0    0    0  0.00000000000E+00  0.00000000000E+00  0.39999999674E+01  0.40000000000E+01  0.51100000000E-03 0.  1.
    9000002   -1    0    0    0    0 -0.00000000000E+00 -0.00000000000E+00  0.00000000000E+00  0.93800000000E+00  0.93800000000E+00 0. -1.
         11    1    1    2    0    0  0.18235713546E+00 -0.56958918379E+00  0.16229353309E+01  0.17296257724E+01  0.51100000000E-03 0.  1.
    9000002    1    1    2    0    0  0.72744961532E-01  0.52161689385E+00  0.30226543751E+00  0.11174007375E+01  0.93800000000E+00 0.  1.
         22    1    1    2    0    0 -0.25510209699E+00  0.47972289942E-01  0.20747991990E+01  0.20909734902E+01  0.00000000000E+00 0. -1.
</event>
<event>
 5    1  0.2111786E+001  0.1549983E+01  0.7818608E-02  0.3409506E+00
         11   -1    0    0    0    0  0.00000000000E+00  0.00000000000E+00  0.39999999674E+01  0.40000000000E+01  0.51100000000E-03 0. -1.
    9000002   -1    0    0    0    0 -0.00000000000E+00 -0.00000000000E+00  0.00000000000E+00  0.93800000000E+00  0.93800000000E+00 0. -1.
         11    1    1    2    0    0 -0.11174830144E+00  0.24065192809E+00  0.16356303651E+01  0.16570117639E+01  0.51100000000E-03 0. -1.
    9000002    1    1    2    0    0  0.42923634393E-01  0.15128333088E-01  0.38298157105E-01  0.93988406396E+00  0.93800000000E+00 0. -1.
         22    1    1    2    0    0  0.68824667048E-01 -0.25578026118E+00  0.23260714452E+01  0.23411041722E+01  0.00000000000E+00 0. -1.
</event>
<event>
 5    1  0.2111786E+001  0.1537147E+01  0.7818608E-02  0.3424541E+00
         11   -1    0    0    0    0  0.00000000000E+00  0.00000000000E+00  0.39999999674E+01  0.40000000000E+01  0.51100000000E-03 0.  1.
    9000002   -1    0    0    0    0 -0.00000000000E+00 -0.00000000000E+00  0.00000000000E+00  0.93800000000E+00  0.93800000000E+00 0.  1.
         11    1    1    2    0    0  0.32060366734E-01  0.21975371911E+00  0.67254946001E+00  0.70826732344E+00  0.51100000000E-03 0.  1.
    9000002    1    1    2    0    0 -0.24540634454E-01  0.37533600687E-01  0.48106683983E-01  0.94030275282E+00  0.93800000000E+00 0.  1.
         22    1    1    2    0    0 -0.75197322798E-02 -0.25728731980E+00  0.32793438234E+01  0.32894299237E+01  0.00000000000E+00 0.  1.
</event>
<event>
 5    1  0.2111786E+001  0.1551449E+01  0.7818608E-02  0.3407806E+00
         11   -1    0    0    0    0  0.00000000000E+00  0.00000000000E+00  0.39999999674E+01  0.40000000000E+01  0.51100000000E-03 0.  1.
    9000002   -1    0    0    0    0 -0.00000000000E+00 -0.00000000000E+00  0.00000000000E+00  0.93800000000E+00  0.93800000000E+00 0.  1.
         11    1    1    2    0    0  0.23432959710E+00  0.18488354627E+00  0.17255012143E+01  0.17511273476E+01  0.51100000000E-03 0.  1.
    9000002    1    1    2    0    0 -0.49824922214E-01 -0.71975153732E-01  0.41046163472E-01  0.94296963534E+00  0.93800000000E+00 0.  1.
         22    1    1    2    0    0 -0.18450467489E+00 -0.11290839253E+00  0.22334525896E+01  0.22439030171E+01  0.00000000000E+00 0.  1.
</event>
<event>
 5    1  0.2111786E+001  0.1580530E+01  0.7818608E-02  0.3374771E+00
         11   -1    0    0    0    0  0.00000000000E+00  0.00000000000E+00  0.39999999674E+01  0.40000000000E+01  0.51100000000E-03 0.  1.
    9000002   -1    0    0    0    0 -0.00000000000E+00 -0.00000000000E+00  0.00000000000E+00  0.93800000000E+00  0.93800000000E+00 0. -1.
         11    1    1    2    0    0 -0.51655112803E-01 -0.15302470367E+00  0.14255533183E+01  0.14346732503E+01  0.51100000000E-03 0.  1.
    9000002    1    1    2    0    0 -0.27231864599E+00  0.27313567201E+00  0.11610898901E+00  0.10208260565E+01  0.93800000000E+00 0. -1.
         22    1    1    2    0    0  0.32397375879E+00 -0.12011096834E+00  0.24583376600E+01  0.24825006932E+01  0.00000000000E+00 0.  1.
</event>
<event>
 5    1  0.2111786E+001  0.1573565E+01  0.7818608E-02  0.3382564E+00
         11   -1    0    0    0    0  0.00000000000E+00  0.00000000000E+00  0.39999999674E+01  0.40000000000E+01  0.51100000000E-03 0.  1.
    9000002   -1    0    0    0    0 -0.00000000000E+00 -0.00000000000E+00  0.00000000000E+00  0.93800000000E+00  0.93800000000E+00 0.  1.
         11    1    1    2    0    0 -0.90392869161E-01 -0.10655978455E+00  0.31628896952E+01  0.31659749437E+01  0.51100000000E-03 0.  1.
    9000002    1    1    2    0    0  0.27550176431E+00  0.22584557154E+00  0.10656779439E+00  0.10090134484E+01  0.93800000000E+00 0.  1.
         22    1    1    2    0    0 -0.18510889515E+00 -0.11928578699E+00  0.73054247773E+00  0.76301160791E+00  0.00000000000E+00 0. -1.
</event>
<event>
 5    1  0.2111786E+001  0.1547093E+01  0.7818608E-02  0.3412868E+00
         11   -1    0    0    0    0  0.00000000000E+00  0.00000000000E+00  0.39999999674E+01  0.40000000000E+01  0.51100000000E-03 0. -1.
    9000002   -1    0    0    0    0 -0.00000000000E+00 -0.00000000000E+00  0.00000000000E+00  0.93800000000E+00  0.93800000000E+00 0. -1.
         11    1    1    2    0    0  0.22337477721E+00 -0.17237604804E+00  0.17756171012E+01  0.17978949203E+01  0.51100000000E-03 0. -1.
    9000002    1    1    2    0    0 -0.45775523972E-01 -0.27995473414E-01  0.41064708151E-01  0.94043046281E+00  0.93800000000E+00 0. -1.
         22    1    1    2    0    0 -0.17759925324E+00  0.20037152145E+00  0.21833181580E+01  0.21996746169E+01  0.00000000000E+00 0. -1.
</event>
<event>
 5    1  0.2111786E+001  0.1578360E+01  0.7818608E-02  0.3377191E+00
         11   -1    0    0    0    0  0.00000000000E+00  0.00000000000E+00  0.39999999674E+01  0.40000000000E+01  0.51100000000E-03 0.  1.
    9000002   -1    0    0    0    0 -0.00000000000E+00 -0.00000000000E+00  0.00000000000E+00  0.93800000000E+00  0.93800000000E+00 0.  1.
         11    1    1    2    0    0  0.41812205784E-01 -0.11330504641E+00  0.76812505691E+00  0.77756199642E+00  0.51100000000E-03 0.  1.
    9000002    1    1    2    0    0 -0.11304115404E-01 -0.10228549860E+00  0.22716660497E-01  0.94390155891E+00  0.93800000000E+00 0.  1.
         22    1    1    2    0    0 -0.30508090380E-01  0.21559054501E+00  0.32091582500E+01  0.32165364447E+01  0.00000000000E+00 0.  1.
</event>
<event>
 5    1  0.2111786E+001  0.1483844E+01  0.7818608E-02  0.3489963E+00
         11   -1    0    0    0    0  0.00000000000E+00  0.00000000000E+00  0.39999999674E+01  0.40000000000E+01  0.51100000000E-03 0.  1.
    9000002   -1    0    0    0    0 -0.00000000000E+00 -0.00000000000E+00  0.00000000000E+00  0.93800000000E+00  0.93800000000E+00 0. -1.
         11    1    1    2    0    0 -0.12939445303E+00 -0.21187063247E+00  0.21541209825E+01  0.21683794773E+01  0.51100000000E-03 0.  1.
    9000002    1    1    2    0    0 -0.26036607240E+00 -0.16011097156E+00  0.15961304980E+00  0.99937297369E+00  0.93800000000E+00 0. -1.
         22    1    1    2    0    0  0.38976052543E+00  0.37198160403E+00  0.16862659351E+01  0.17702475490E+01  0.00000000000E+00 0. -1.
</event>
<event>
 5    1  0.2111786E+001  0.1485635E+01  0.7818608E-02  0.3487683E+00
         11   -1    0    0    0    0  0.00000000000E+00  0.00000000000E+00  0.39999999674E+01  0.40000000000E+01  0.51100000000E-03 0. -1.
    9000002   -1    0    0    0    0 -0.00000000000E+00 -0.00000000000E+00  0.00000000000E+00  0.93800000000E+00  0.93800000000E+00 0. -1.
         11    1    1    2    0    0  0.12584772654E+00  0.53742018113E+00  0.24181110693E+01  0.24803063331E+01  0.51100000000E-03 0. -1.
    9000002    1    1    2    0    0  0.10750971229E+00 -0.31134292806E+00  0.16960233595E+00  0.10085146055E+01  0.93800000000E+00 0. -1.
         22    1    1    2    0    0 -0.23335743882E+00 -0.22607725306E+00  0.14122865621E+01  0.14491790615E+01  0.00000000000E+00 0. -1.
</event>
<event>
 5    1  0.2111786E+001  0.1460015E+01  0.7818608E-02  0.3520880E+00
         11   -1    0    0    0    0  0.00000000000E+00  0.00000000000E+00  0.39999999674E+01  0.40000000000E+01  0.51100000000E-03 0. -1.
    9000002   -1    0    0    0    0 -0.00000000000E+00 -0.00000000000E+00  0.00000000000E+00  0.93800000000E+00  0.93800000000E+00 0.  1.
         11    1    1    2    0    0  0.61959278478E-01 -0.28012365555E+00  0.51651245068E+00  0.59084142324E+00  0.51100000000E-03 0. -1.
    9000002    1    1    2    0    0  0.82053730678E-01 -0.17282277944E+00  0.13697248403E+00  0.96706048890E+00  0.93800000000E+00 0.  1.
         22    1    1    2    0    0 -0.14401300916E+00  0.45294643499E+00  0.33465150327E+01  0.33800980879E+01  0.00000000000E+00 0. -1.
</event>
<event>
 5    1  0.2111786E+001  0.1499427E+01  0.7818608E-02  0.3470319E+00
         11   -1    0    0    0    0  0.00000000000E+00  0.00000000000E+00  0.39999999674E+01  0.40000000000E+01  0.51100000000E-03 0. -1.
    9000002   -1    0    0    0    0 -0.00000000000E+00 -0.00000000000E+00  0.00000000000E+00  0.93800000000E+00  0.93800000000E+00 0.  1.
         11    1    1    2    0    0  0.14631833971E+00  0.40370278348E+00  0.24142066980E+01  0.24520969059E+01  0.51100000000E-03 0. -1.
    9000002    1    1    2    0    0 -0.46132118236E-01 -0.84946175059E-01  0.83225975746E-01  0.94663329121E+00  0.93800000000E+00 0.  1.
         22    1    1    2    0    0 -0.10018622147E+00 -0.31875660842E+00  0.15025672936E+01  0.15392698029E+01  0.00000000000E+00 0.  1.
</event>
<event>
 5    1  0.2111786E+001  0.1574172E+01  0.7818608E-02  0.3381883E+00
         11   -1    0    0    0    0  0.00000000000E+00  0.00000000000E+00  0.39999999674E+01  0.40000000000E+01  0.51100000000E-03 0.  1.
    9000002   -1    0    0    0    0 -0.00000000000E+00 -0.00000000000E+00  0.00000000000E+00  0.93800000000E+00  0.93800000000E+00 0. -1.
         11    1    1    2    0    0  0.50765534619E-01  0.67736567399E-01  0.18562952099E+01  0.18582243001E+01  0.51100000000E-03 0.  1.
    9000002    1    1    2    0    0  0.12286903721E+00  0.19283212097E+00  0.54249833694E-01  0.96698917866E+00  0.93800000000E+00 0. -1.
         22    1    1    2    0    0 -0.17363457183E+00 -0.26056868837E+00  0.20894549238E+01  0.21127865212E+01  0.00000000000E+00 0.  1.
</event>
<event>
 5    1  0.2111786E+001  0.1560246E+01  0.7818608E-02  0.3397674E+00
         11   -1    0    0    0    0  0.00000000000E+00  0.00000000000E+00  0.39999999674E+01  0.40000000000E+01  0.51100000000E-03 0.  1.
    9000002   -1    0    0    0    0 -0.00000000000E+00 -0.00000000000E+00  0.00000000000E+00  0.93800000000E+00  0.93800000000E+00 0. -1.
         11    1    1    2    0    0  0.26703497697E-01  0.22294466865E+00  0.13275466176E+01  0.13464017547E+01  0.51100000000E-03 0.  1.
    9000002    1    1    2    0    0  0.18896417381E+00 -0.47105204139E-01  0.55198359451E-01  0.95959221450E+00  0.93800000000E+00 0. -1.
         22    1    1    2    0    0 -0.21566767151E+00 -0.17583946451E+00  0.26172549904E+01  0.26320060308E+01  0.00000000000E+00 0.  1.
</event>
<event>
 5    1  0.2111786E+001  0.1556127E+01  0.7818608E-02  0.3402402E+00
         11   -1    0    0    0    0  0.00000000000E+00  0.00000000000E+00  0.39999999674E+01  0.40000000000E+01  0.51100000000E-03 0.  1.
    9000002   -1    0    0    0    0 -0.00000000000E+00 -0.00000000000E+00  0.00000000000E+00  0.93800000000E+00  0.93800000000E+00 0.  1.
         11    1    1    2    0    0  0.27146971341E+00 -0.40916418515E-01  0.14994567529E+01  0.15243820957E+01  0.51100000000E-03 0.  1.
    9000002    1    1    2    0    0 -0.72681368604E-01  0.10439506330E+00  0.43348336892E-01  0.94757795927E+00  0.93800000000E+00 0.  1.
         22    1    1    2    0    0 -0.19878834481E+00 -0.63478644785E-01  0.24571948775E+01  0.24660399451E+01  0.00000000000E+00 0.  1.
</event>
<event>
 5    1  0.2111786E+001  0.1462218E+01  0.7818608E-02  0.3517977E+00
         11   -1    0    0    0    0  0.00000000000E+00  0.00000000000E+00  0.39999999674E+01  0.40000000000E+01  0.51100000000E-03 0.  1.
    9000002   -1    0    0    0    0 -0.00000000000E+00 -0.00000000000E+00  0.00000000000E+00  0.93800000000E+00  0.93800000000E+00 0. -1.
         11    1    1    2    0    0 -0.59675890392E-01  0.24030207315E+00  0.36472898014E+01  0.36556845398E+01  0.51100000000E-03 0.  1.
    9000002    1    1    2    0    0 -0.11208038678E+00 -0.86726160284E-01  0.12234331423E+00  0.95650160821E+00  0.93800000000E+00 0. -1.
         22    1    1    2    0    0  0.17175627717E+00 -0.15357591286E+00  0.23036685178E+00  0.32581385200E+00  0.00000000000E+00 0.  1.
</event>
<event>
 5    1  0.2111786E+001  0.1576546E+01  0.7818608E-02  0.3379219E+00
         11   -1    0    0    0    0  0.00000000000E+00  0.00000000000E+00  0.39999999674E+01  0.40000000000E+01  0.51100000000E-03 0. -1.
    9000002   -1    0    0    0    0 -0.00000000000E+00 -0.00000000000E+00  0.00000000000E+00  0.93800000000E+00  0.93800000000E+00 0. -1.
         11    1    1    2    0    0 -0.10211362894E+00  0.13010759031E-01  0.30046410647E+01  0.30064039419E+01  0.51100000000E-03 0. -1.
    9000002    1    1    2    0    0  0.23081865449E+00  0.16282913633E+00  0.71310532915E-01  0.98220149206E+00  0.93800000000E+00 0. -1.
         22    1    1    2    0    0 -0.12870502555E+00 -0.17583989536E+00  0.92404836976E+00  0.94939456606E+00  0.00000000000E+00 0. -1.
</event>
<event>
 5    1  0.2111786E+001  0.1598418E+01  0.7818608E-02  0.3355083E+00
         11   -1    0    0    0    0  0.00000000000E+00  0.00000000000E+00  0.39999999674E+01  0.40000000000E+01  0.51100000000E-03 0.  1.
    9000002   -1    0    0    0    0 -0.00000000000E+00 -0.00000000000E+00  0.00000000000E+00  0.93800000000E+00  0.93800000000E+00 0.  1.
         11    1    1    2    0    0  0.59293281264E-01  0.15612499367E+00  0.20168033169E+01  0.20237061514E+01  0.51100000000E-03 0.  1.
    9000002    1    1    2    0    0 -0.14601561943E+00 -0.37741817111E+00  0.11158162446E+00  0.10276475543E+01  0.93800000000E+00 0.  1.
         22    1    1    2    0    0  0.86722338165E-01  0.22129317743E+00  0.18716150260E+01  0.18866462943E+01  0.00000000000E+00 0.  1.
</event>
<event>
 5    1  0.2111786E+001  0.1557256E+01  0.7818608E-02  0.3401105E+00
         11   -1    0    0    0    0  0.00000000000E+00  0.00000000000E+00  0.39999999674E+01  0.40000000000E+01  0.51100000000E-03 0.  1.
    9000002   -1    0    0    0    0 -0.00000000000E+00 -0.00000000000E+00  0.00000000000E+00  0.93800000000E+00  0.93800000000E+00 0.  1.
         11    1    1    2    0    0  0.14962638984E+00 -0.12057869635E+00  0.26626270515E+01  0.26695524635E+01  0.51100000000E-03 0.  1.
    9000002    1    1    2    0    0  0.23328695804E-01 -0.65465305203E-01  0.34670314278E-01  0.94120984107E+00  0.93800000000E+00 0.  1.
         22    1    1    2    0    0 -0.17295508565E+00  0.18604400155E+00  0.13027026016E+01  0.13272376955E+01  0.00000000000E+00 0.  1.
</event>
<event>
 5    1  0.2111786E+001  0.1516359E+01  0.7818608E-02  0.3449468E+00
         11   -1    0    0    0    0  0.00000000000E+00  0.00000000000E+00  0.39999999674E+01  0.40000000000E+01  0.51100000000E-03 0.  1.
    9000002   -1    0    0    0    0 -0.00000000000E+00 -0.00000000000E+00  0.00000000000E+00  0.93800000000E+00  0.93800000000E+00 0. -1.
         11    1    1    2    0    0  0.49364398453E+00  0.67640920453E-02  0.22784608893E+01  0.23313331854E+01  0.51100000000E-03 0.  1.
    9000002    1    1    2    0    0 -0.29134509019E+00 -0.20748408942E+00  0.15663574527E+00  0.10160267544E+01  0.93800000000E+00 0. -1.
         22    1    1    2    0    0 -0.20229889434E+00  0.20071999737E+00  0.15649033328E+01  0.15906400602E+01  0.00000000000E+00 0.  1.
</event>
<event>
 5    1  0.2111786E+001  0.1431314E+01  0.7818608E-02  0.3559609E+00
         11   -1    0    0    0    0  0.00000000000E+00  0.00000000000E+00  0.39999999674E+01  0.40000000000E+01  0.51100000000E-03 0. -1.
    9000002   -1    0    0    0    0 -0.00000000000E+00 -0.00000000000E+00  0.00000000000E+00  0.93800000000E+00  0.93800000000E+00 0.  1.
         11    1    1    2    0    0 -0.11335651252E+00  0.63015576161E+00  0.15389132445E+01  0.16667933939E+01  0.51100000000E-03 0. -1.
    9000002    1    1    2    0    0  0.17722066036E+00 -0.34395474075E+00  0.25567746562E+00  0.10463875919E+01  0.93800000000E+00 0.  1.
         22    1    1    2    0    0 -0.63864147839E-01 -0.28620102086E+00  0.22054092573E+01  0.22248190142E+01  0.00000000000E+00 0. -1.
</event>
<event>
 5    1  0.2111786E+001  0.1373065E+01  0.7818608E-02  0.3651043E+00
         11   -1    0    0    0    0  0.00000000000E+00  0.00000000000E+00  0.39999999674E+01  0.40000000000E+01  0.51100000000E-03 0. -1.
    9000002   -1    0    0    0    0 -0.00000000000E+00 -0.00000000000E+00  0.00000000000E+00  0.93800000000E+00  0.93800000000E+00 0. -1.
         11    1    1    2    0    0 -0.27748641555E+00  0.73967123729E+00  0.13036085753E+01  0.15243056875E+01  0.51100000000E-03 0. -1.
    9000002    1    1    2    0    0  0.12814367287E+00 -0.58054471239E+00  0.51976201077E+00  0.12261523200E+01  0.93800000000E+00 0. -1.
         22    1    1    2    0    0  0.14934274268E+00 -0.15912652489E+00  0.21766293813E+01  0.21875419925E+01  0.00000000000E+00 0. -1.
</event>
<event>
 5    1  0.2111786E+001  0.1568440E+01  0.7818608E-02  0.3388346E+00
         11   -1    0    0    0    0  0.00000000000E+00  0.00000000000E+00  0.39999999674E+01  0.40000000000E+01  0.51100000000E-03 0. -1.
    9000002   -1    0    0    0    0 -0.00000000000E+00 -0.00000000000E+00  0.00000000000E+00  0.93800000000E+00  0.93800000000E+00 0. -1.
         11    1    1    2    0    0 -0.17958883843E+00  0.11661769705E-01  0.10439297005E+01  0.10593288576E+01  0.51100000000E-03 0. -1.
    9000002    1    1    2    0    0 -0.22653403955E-01  0.55976614534E-01  0.25433574470E-01  0.94028582080E+00  0.93800000000E+00 0. -1.
         22    1    1    2    0    0  0.20224224239E+00 -0.67638384239E-01  0.29306366923E+01  0.29383853216E+01  0.00000000000E+00 0. -1.
</event>
<event>
 5    1  0.2111786E+001  0.1559405E+01  0.7818608E-02  0.3398638E+00
         11   -1    0    0    0    0  0.00000000000E+00  0.00000000000E+00  0.39999999674E+01  0.40000000000E+01  0.51100000000E-03 0. -1.
    9000002   -1    0    0    0    0 -0.00000000000E+00 -0.00000000000E+00  0.00000000000E+00  0.93800000000E+00  0.93800000000E+00 0.  1.
         11    1    1    2    0    0 -0.53686752012E-01  0.20619789193E-01  0.25419008702E+01  0.25425514229E+01  0.51100000000E-03 0. -1.
    9000002    1    1    2    0    0 -0.21626921089E+00 -0.22482004970E+00  0.97423958263E-01  0.99330350546E+00  0.93800000000E+00 0.  1.
         22    1    1    2    0    0  0.26995596290E+00  0.20420026050E+00  0.13606751389E+01  0.14021450716E+01  0.00000000000E+00 0.  1.
</event>
<event>
 5    1  0.2111786E+001  0.1484388E+01  0.7818608E-02  0.3489270E+00
         11   -1    0    0    0    0  0.00000000000E+00  0.00000000000E+00  0.39999999674E+01  0.40000000000E+01  0.51100000000E-03 0.  1.
    9000002   -1    0    0    0    0 -0.00000000000E+00 -0.00000000000E+00  0.00000000000E+00  0.93800000000E+00  0.93800000000E+00 0.  1.
         11    1    1    2    0    0  0.21462165105E+00 -0.14301458268E+00  0.46101019309E+00  0.52824831586E+00  0.51100000000E-03 0.  1.
    9000002    1    1    2    0    0  0.13602599254E+00  0.24070590056E-01  0.10280479736E+00  0.95367462497E+00  0.93800000000E+00 0.  1.
         22    1    1    2    0    0 -0.35064764359E+00  0.11894399263E+00  0.34361849769E+01  0.34560770592E+01  0.00000000000E+00 0.  1.
</event>
<event>
 5    1  0.2111786E+001  0.1561869E+01  0.7818608E-02  0.3395818E+00
         11   -1    0    0    0    0  0.00000000000E+00  0.00000000000E+00  0.39999999674E+01  0.40000000000E+01  0.51100000000E-03 0.  1.
    9000002   -1    0    0    0    0 -0.00000000000E+00 -0.00000000000E+00  0.00000000000E+00  0.93800000000E+00  0.93800000000E+00 0.  1.
         11    1    1    2    0    0  0.83447470616E-01  0.29271592509E+00  0.15377396786E+01  0.15675744555E+01  0.51100000000E-03 0.  1.
    9000002    1    1    2    0    0 -0.23778077003E+00 -0.16276755340E+00  0.85349834258E-01  0.98496779909E+00  0.93800000000E+00 0.  1.
         22    1    1    2    0    0  0.15433329941E+00 -0.12994837169E+00  0.23769104545E+01  0.23854577454E+01  0.00000000000E+00 0.  1.
</event>
<event>
 5    1  0.2111786E+001  0.1429904E+01  0.7818608E-02  0.3561556E+00
         11   -1    0    0    0    0  0.00000000000E+00  0.00000000000E+00  0.39999999674E+01  0.40000000000E+01  0.51100000000E-03 0. -1.
    9000002   -1    0    0    0    0 -0.00000000000E+00 -0.00000000000E+00  0.00000000000E+00  0.93800000000E+00  0.93800000000E+00 0.  1.
         11    1    1    2    0    0  0.39879688736E+00 -0.15287410114E+00  0.32935670026E+01  0.33211433739E+01  0.51100000000E-03 0. -1.
    9000002    1    1    2    0    0 -0.15283723730E+00 -0.95891066768E-01  0.16069170951E+00  0.96861764556E+00  0.93800000000E+00 0.  1.
         22    1    1    2    0    0 -0.24595965006E+00  0.24876516790E+00  0.54574125520E+00  0.64823898051E+00  0.00000000000E+00 0.  1.
</event>
<event>
 5    1  0.2111786E+001  0.1542857E+01  0.7818608E-02  0.3417820E+00
         11   -1    0    0    0    0  0.00000000000E+00  0.00000000000E+00  0.39999999674E+01  0.40000000000E+01  0.51100000000E-03 0. -1.
    9000002   -1    0    0    0    0 -0.00000000000E+00 -0.00000000000E+00  0.00000000000E+00  0.93800000000E+00  0.93800000000E+00 0.  1.
         11    1    1    2    0    0  0.33446390421E+00 -0.39842602295E+00  0.72369998783E+00  0.89126389609E+00  0.51100000000E-03 0. -1.
    9000002    1    1    2    0    0 -0.14269932085E-01  0.20001290856E+00  0.24214234921E+00  0.98928545518E+00  0.93800000000E+00 0.  1.
         22    1    1    2    0    0 -0.32019397212E+00  0.19841311438E+00  0.30341576303E+01  0.30574506487E+01  0.00000000000E+00 0.  1.
</event>
<event>
 5    1  0.2111786E+001  0.1565337E+01  0.7818608E-02  0.3391866E+00
         11   -1    0    0    0    0  0.00000000000E+00  0.00000000000E+00  0.39999999674E+01  0.40000000000E+01  0.51100000000E-03 0. -1.
    9000002   -1    0    0    0    0 -0.00000000000E+00 -0.00000000000E+00  0.00000000000E+00  0.93800000000E+00  0.93800000000E+00 0.  1.
         11    1    1    2    0    0  0.20617284858E+00  0.99253731818E-01  0.15904232605E+01  0.16067996002E+01  0.51100000000E-03 0. -1.
    9000002    1    1    2    0    0 -0.59463721671E-01  0.53174091400E-01  0.29612380433E-01  0.94185153356E+00  0.93800000000E+00 0.  1.
         22    1    1    2    0    0 -0.14670912690E+00 -0.15242782322E+00  0.23799643265E+01  0.23893488662E+01  0.00000000000E+00 0.  1.
</event>
<event>
 5    1  0.2111786E+001  0.1510161E+01  0.7818608E-02  0.3457042E+00
         11   -1    0    0    0    0  0.00000000000E+00  0.00000000000E+00  0.39999999674E+01  0.40000000000E+01  0.51100000000E-03 0.  1.
    9000002   -1    0    0    0    0 -0.00000000000E+00 -0.00000000000E+00  0.00000000000E+00  0.93800000000E+00  0.93800000000E+00 0.  1.
         11    1    1    2    0    0  0.29568878044E+00  0.41435582670E-02  0.71195383208E+00  0.77092641938E+00  0.51100000000E-03 0.  1.
    9000002    1    1    2    0    0 -0.79368891507E-01 -0.59291824274E-01  0.74905125724E-01  0.94618693672E+00  0.93800000000E+00 0.  1.
         22    1    1    2    0    0 -0.21631988893E+00  0.55148266007E-01  0.32131410096E+01  0.32208866439E+01  0.00000000000E+00 0. -1.
</event>
<event>
 5    1  0.2111786E+001  0.1545361E+01  0.7818608E-02  0.3414889E+00
         11   -1    0    0    0    0  0.00000000000E+00  0.00000000000E+00  0.39999999674E+01  0.40000000000E+01  0.51100000000E-03 0.  1.
    9000002   -1    0    0    0    0 -0.00000000000E+00 -0.00000000000E+00  0.00000000000E+00  0.93800000000E+00  0.93800000000E+00 0. -1.
         11    1    1    2    0    0 -0.15825720276E+00 -0.15073495753E+00  0.19058431175E+01  0.19183338134E+01  0.51100000000E-03 0.  1.
    9000002    1    1    2    0    0 -0.67619661064E-01 -0.11307027997E+00  0.52477549722E-01  0.94865968608E+00  0.93800000000E+00 0. -1.
         22    1    1    2    0    0  0.22587686382E+00  0.26380523750E+00  0.20416793001E+01  0.20710065006E+01  0.00000000000E+00 0.  1.
</event>
<event>
 5    1  0.2111786E+001  0.1560619E+01  0.7818608E-02  0.3397248E+00
         11   -1    0    0    0    0  0.00000000000E+00  0.00000000000E+00  0.39999999674E+01  0.40000000000E+01  0.51100000000E-03 0. -1.
    9000002   -1    0    0    0    0 -0.00000000000E+00 -0.00000000000E+00  0.00000000000E+00  0.93800000000E+00  0.93800000000E+00 0.  1.
         11    1    1    2    0    0  0.10021947630E+00  0.19594047578E+00  0.20837290578E+01  0.20953194651E+01  0.51100000000E-03 0. -1.
    9000002    1    1    2    0    0 -0.20360161202E-01  0.45842385356E-01  0.30540635342E-01  0.93983657668E+00  0.93800000000E+00 0.  1.
         22    1    1    2    0    0 -0.79859315101E-01 -0.24178286113E+00  0.18857302742E+01  0.19028439582E+01  0.00000000000E+00 0. -1.
</event>
<event>
 5    1  0.2111786E+001  0.1586126E+01  0.7818608E-02  0.3368560E+00
         11   -1    0    0    0    0  0.00000000000E+00  0.00000000000E+00  0.39999999674E+01  0.40000000000E+01  0.51100000000E-03 0. -1.
    9000002   -1    0    0    0    0 -0.00000000000E+00 -0.00000000000E+00  0.00000000000E+00  0.93800000000E+00  0.93800000000E+00 0.  1.
         11    1    1    2    0    0  0.17261689595E-01  0.14124219364E+00  0.22294809780E+01  0.22340172371E+01  0.51100000000E-03 0. -1.
    9000002    1    1    2    0    0 -0.25481918897E+00 -0.15049642227E+00  0.69065016427E-01  0.98599998412E+00  0.93800000000E+00 0.  1.
         22    1    1    2    0    0  0.23755749937E+00  0.92542286306E-02  0.17014539729E+01  0.17179827788E+01  0.00000000000E+00 0. -1.
</event>
<event>
 5    1  0.2111786E+001  0.1534398E+01  0.7818608E-02  0.3427796E+00
         11   -1    0    0    0    0  0.00000000000E+00  0.00000000000E+00  0.39999999674E+01  0.40000000000E+01  0.51100000000E-03 0. -1.
    9000002   -1    0    0    0    0 -0.00000000000E+00 -0.00000000000E+00  0.00000000000E+00  0.93800000000E+00  0.93800000000E+00 0.  1.
         11    1    1    2    0    0 -0.29429817441E+00  0.31522548074E+00  0.27580475587E+01  0.27915596208E+01  0.51100000000E-03 0. -1.
    9000002    1    1    2    0    0  0.11461794628E+00 -0.18909485093E+00  0.83445097048E-01  0.96731650481E+00  0.93800000000E+00 0.  1.
         22    1    1    2    0    0  0.17968022813E+00 -0.12613062980E+00  0.11585073116E+01  0.11791238744E+01  0.00000000000E+00 0. -1.
</event>
<event>
 5    1  0.2111786E+001  0.1471712E+01  0.7818608E-02  0.3505568E+00
         11   -1    0    0    0    0  0.00000000000E+00  0.00000000000E+00  0.39999999674E+01  0.40000000000E+01  0.51100000000E-03 0. -1.
    9000002   -1    0    0    0    0 -0.00000000000E+00 -0.00000000000E+00  0.00000000000E+00  0.93800000000E+00  0.93800000000E+00 0. -1.
         11    1    1    2    0    0 -0.29416843634E+00  0.83627697671E-01  0.46264750965E+00  0.55459141723E+00  0.51100000000E-03 0. -1.
    9000002    1    1    2    0    0  0.97715057956E-01 -0.14048091210E+00  0.12121604780E+00  0.96115578834E+00  0.93800000000E+00 0. -1.
         22    1    1    2    0    0  0.19645337838E+00  0.56853214429E-01  0.34161364099E+01  0.34222527944E+01  0.00000000000E+00 0. -1.
</event>
<event>
 5    1  0.2111786E+001  0.1522783E+01  0.7818608E-02  0.3441686E+00
         11   -1    0    0    0    0  0.00000000000E+00  0.00000000000E+00  0.39999999674E+01  0.40000000000E+01  0.51100000000E-03 0. -1.
    9000002   -1    0    0    0    0 -0.00000000000E+00 -0.00000000000E+00  0.00000000000E+00  0.93800000000E+00  0.93800000000E+00 0.  1.
         11    1    1    2    0    0 -0.18528395838E+00  0.40179986672E-01  0.22089627730E+01  0.22170839790E+01  0.51100000000E-03 0. -1.
    9000002    1    1    2    0    0 -0.25707178396E+00 -0.10206639749E+00  0.11298593309E+00  0.98443550966E+00  0.93800000000E+00 0.  1.
         22    1    1    2    0    0  0.44235574234E+00  0.61886410816E-01  0.16780512613E+01  0.17364805113E+01  0.00000000000E+00 0.  1.
</event>
<event>
 5    1  0.2111786E+001  0.1493973E+01  0.7818608E-02  0.3477144E+00
         11   -1    0    0    0    0  0.00000000000E+00  0.00000000000E+00  0.39999999674E+01  0.40000000000E+01  0.51100000000E-03 0.  1.
    9000002   -1    0    0    0    0 -0.00000000000E+00 -0.00000000000E+00  0.00000000000E+00  0.93800000000E+00  0.93800000000E+00 0.  1.
         11    1    1    2    0    0  0.18166973437E+00  0.28532167511E+00  0.11908884013E+01  0.12379934557E+01  0.51100000000E-03 0.  1.
    9000002    1    1    2    0    0 -0.84908397671E-02  0.91454758847E-01  0.87001245065E-01  0.94649315049E+00  0.93800000000E+00 0.  1.
         22    1    1    2    0    0 -0.17317889461E+00 -0.37677643395E+00  0.27221103210E+01  0.27535133939E+01  0.00000000000E+00 0.  1.
</event>
<event>
 5    1  0.2111786E+001  0.1572396E+01  0.7818608E-02  0.3383879E+00
         11   -1    0    0    0    0  0.00000000000E+00  0.00000000000E+00  0.39999999674E+01  0.40000000000E+01  0.51100000000E-03 0. -1.
    9000002   -1    0    0    0    0 -0.00000000000E+00 -0.00000000000E+00  0.00000000000E+00  0.93800000000E+00  0.93800000000E+00 0. -1.
         11    1    1    2    0    0 -0.12293697600E+00 -0.20610120274E+00  0.18272724896E+01  0.18429639764E+01  0.51100000000E-03 0. -1.
    9000002    1    1    2    0    0  0.21732513373E+00  0.19753929222E-01  0.52432106525E-01  0.96447579403E+00  0.93800000000E+00 0. -1.
         22    1    1    2    0    0 -0.94388157724E-01  0.18634727352E+00  0.21202953712E+01  0.21305602296E+01  0.00000000000E+00 0. -1.
</event>
<event>
 5    1  0.2111786E+001  0.1544944E+01  0.7818608E-02  0.3415377E+00
         11   -1    0    0    0    0  0.00000000000E+00  0.00000000000E+00  0.39999999674E+01  0.40000000000E+01  0.51100000000E-03 0.  1.
    9000002   -1    0    0    0    0 -0.00000000000E+00 -0.00000000000E+00  0.00000000000E+00  0.93800000000E+00  0.93800000000E+00 0.  1.
         11    1    1    2    0    0  0.15391820607E+00  0.20946715264E+00  0.31878738452E+01  0.31984538790E+01  0.51100000000E-03 0.  1.
    9000002    1    1    2    0    0 -0.12461616706E+00  0.90517853571E-02  0.51581968977E-01  0.94768972952E+00  0.93800000000E+00 0.  1.
         22    1    1    2    0    0 -0.29302039010E-01 -0.21851893800E+00  0.76054415317E+00  0.79185639145E+00  0.00000000000E+00 0.  1.
</event>
<event>
 5    1  0.2111786E+001  0.1564255E+01  0.7818608E-02  0.3393097E+00
         11   -1    0    0    0    0  0.00000000000E+00  0.00000000000E+00  0.39999999674E+01  0.40000000000E+01  0.51100000000E-03 0.  1.
    9000002   -1    0    0    0    0 -0.00000000000E+00 -0.00000000000E+00  0.00000000000E+00  0.93800000000E+00  0.93800000000E+00 0. -1.
         11    1    1    2    0    0  0.86677234219E-01 -0.16580373190E+00  0.28042637959E+01  0.28104980908E+01  0.51100000000E-03 0.  1.
    9000002    1    1    2    0    0  0.56294226231E-01  0.32354307067E-02  0.28255454048E-01  0.94011801313E+00  0.93800000000E+00 0. -1.
         22    1    1    2    0    0 -0.14297146045E+00  0.16256830120E+00  0.11674807174E+01  0.11873838960E+01  0.00000000000E+00 0. -1.
</event>
<event>
 5    1  0.2654107E+001  0.1568299E+01  0.7818608E-02  0.3388506E+00
         11   -1    0    0    0    0  0.00000000000E+00  0.00000000000E+00  0.39999999674E+01  0.40000000000E+01  0.51100000000E-03 0. -1.
    9000002   -1    0    0    0    0 -0.00000000000E+00 -0.00000000000E+00  0.00000000000E+00  0.93800000000E+00  0.93800000000E+00 0.  1.
         11    1    1    2    0    0 -0.18998607127E+00 -0.35776010968E-01  0.25541333541E+01  0.25614394550E+01  0.51100000000E-03 0. -1.
    9000002    1    1    2    0    0 -0.11059268547E-01 -0.28954472285E-01  0.23715799705E-01  0.93881154022E+00  0.93800000000E+00 0.  1.
         22    1    1    2    0    0  0.20104533982E+00  0.64730483254E-01  0.14221508136E+01  0.14377490048E+01  0.00000000000E+00 0. -1.
</event>
<event>
 5    1  0.2111786E+001  0.1494920E+01  0.7818608E-02  0.3475956E+00
         11   -1    0    0    0    0  0.00000000000E+00  0.00000000000E+00  0.39999999674E+01  0.40000000000E+01  0.51100000000E-03 0. -1.
    9000002   -1    0    0    0    0 -0.00000000000E+00 -0.00000000000E+00  0.00000000000E+00  0.93800000000E+00  0.93800000000E+00 0. -1.
         11    1    1    2    0    0 -0.31631120291E+00 -0.16377225838E+00  0.91927675868E+00  0.98587227868E+00  0.51100000000E-03 0. -1.
    9000002    1    1    2    0    0  0.12434427799E+00 -0.28178663899E-01  0.91982984996E-01  0.95108380603E+00  0.93800000000E+00 0. -1.
         22    1    1    2    0    0  0.19196692492E+00  0.19195092228E+00  0.29887402237E+01  0.30010439153E+01  0.00000000000E+00 0. -1.
</event>
<event>
 5    1  0.2111786E+001  0.1540836E+01  0.7818608E-02  0.3420193E+00
         11   -1    0    0    0    0  0.00000000000E+00  0.00000000000E+00  0.39999999674E+01  0.40000000000E+01  0.51100000000E-03 0. -1.
    9000002   -1    0    0    0    0 -0.00000000000E+00 -0.00000000000E+00  0.00000000000E+00  0.93800000000E+00  0.93800000000E+00 0.  1.
         11    1    1    2    0    0  0.48937549364E-01  0.29441367971E+00  0.24949098269E+01  0.25126976746E+01  0.51100000000E-03 0. -1.
    9000002    1    1    2    0    0  0.23230114410E-01 -0.31423838862E-01  0.44924347714E-01  0.93988791506E+00  0.93800000000E+00 0.  1.
         22    1    1    2    0    0 -0.72167663774E-01 -0.26298984085E+00  0.14601657928E+01  0.14854144104E+01  0.00000000000E+00 0.  1.
</event>
<event>
 5    1  0.2111786E+001  0.1558250E+01  0.7818608E-02  0.3399963E+00
         11   -1    0    0    0    0  0.00000000000E+00  0.00000000000E+00  0.39999999674E+01  0.40000000000E+01  0.51100000000E-03 0. -1.
    9000002   -1    0    0    0    0 -0.00000000000E+00 -0.00000000000E+00  0.00000000000E+00  0.93800000000E+00  0.93800000000E+00 0. -1.
         11    1    1    2    0    0 -0.99266311391E-01  0.37090342540E+00  0.10355539195E+01  0.11044434494E+01  0.51100000000E-03 0. -1.
    9000002    1    1    2    0    0  0.66711662432E-01 -0.57981993832E+00  0.27852374566E+00  0.11393248368E+01  0.93800000000E+00 0. -1.
         22    1    1    2    0    0  0.32554648959E-01  0.20891651292E+00  0.26859223021E+01  0.26942317138E+01  0.00000000000E+00 0. -1.
</event>
<event>
 5    1  0.2111786E+001  0.1571623E+01  0.7818608E-02  0.3384750E+00
         11   -1    0    0    0    0  0.00000000000E+00  0.00000000000E+00  0.39999999674E+01  0.40000000000E+01  0.51100000000E-03 0. -1.
    9000002   -1    0    0    0    0 -0.00000000000E+00 -0.00000000000E+00  0.00000000000E+00  0.93800000000E+00  0.93800000000E+00 0. -1.
         11    1    1    2    0    0  0.25731933390E-02 -0.16293563247E+00  0.15388634718E+01  0.15474675078E+01  0.51100000000E-03 0. -1.
    9000002    1    1    2    0    0  0.39149185578E-01 -0.84187397809E-01  0.26423032262E-01  0.94295405684E+00  0.93800000000E+00 0. -1.
         22    1    1    2    0    0 -0.41722378917E-01  0.24712303028E+00  0.24347134633E+01  0.24475784354E+01  0.00000000000E+00 0. -1.
</event>
<event>
 5    1  0.2111786E+001  0.1531534E+01  0.7818608E-02  0.3431199E+00
         11   -1    0    0    0    0  0.00000000000E+00  0.00000000000E+00  0.39999999674E+01  0.40000000000E+01  0.51100000000E-03 0.  1.
    9000002   -1    0    0    0    0 -0.00000000000E+00 -0.00000000000E+00  0.00000000000E+00  0.93800000000E+00  0.93800000000E+00 0.  1.
         11    1    1    2    0    0 -0.13154461769E-01  0.37500507389E+00  0.21417865761E+01  0.21744083894E+01  0.51100000000E-03 0.  1.
    9000002    1    1    2    0    0  0.83507737241E-01 -0.11719649887E+00  0.65676813534E-01  0.95124445090E+00  0.93800000000E+00 0.  1.
         22    1    1    2    0    0 -0.70353275472E-01 -0.25780857502E+00  0.17925365777E+01  0.18123471597E+01  0.00000000000E+00 0. -1.
</event>
<event>
 5    1  0.2111786E+001  0.1586850E+01  0.7818608E-02  0.3367761E+00
         11   -1    0    0    0    0  0.00000000000E+00  0.00000000000E+00  0.39999999674E+01  0.40000000000E+01  0.51100000000E-03 0. -1.
    9000002   -1    0    0    0    0 -0.00000000000E+00 -0.00000000000E+00  0.00000000000E+00  0.93800000000E+00  0.93800000000E+00 0.  1.
         11    1    1    2    0    0 -0.74123657455E-01 -0.18605147298E-01  0.15942251904E+01  0.15960559786E+01  0.51100000000E-03 0. -1.
    9000002    1    1    2    0    0 -0.14474423376E+00 -0.25682480570E-02  0.23349568601E-01  0.94939280146E+00  0.93800000000E+00 0.  1.
         22    1    1    2    0    0  0.21886789121E+00  0.21173395355E-01  0.23824252083E+01  0.23925512199E+01  0.00000000000E+00 0. -1.
</event>
<event>
 5    1  0.2111786E+001  0.1567903E+01  0.7818608E-02  0.3388954E+00
         11   -1    0    0    0    0  0.00000000000E+00  0.00000000000E+00  0.39999999674E+01  0.40000000000E+01  0.51100000000E-03 0.  1.
    9000002   -1    0    0    0    0 -0.00000000000E+00 -0.00000000000E+00  0.00000000000E+00  0.93800000000E+00  0.93800000000E+00 0.  1.
         11    1    1    2    0    0  0.73469779459E-01 -0.17368606843E+00  0.12529720288E+01  0.12670847741E+01  0.51100000000E-03 0.  1.
    9000002    1    1    2    0    0  0.63630885139E-02 -0.34507447802E-01  0.24195123312E-01  0.93896786784E+00  0.93800000000E+00 0.  1.
         22    1    1    2    0    0 -0.79832867973E-01  0.20819351624E+00  0.27228328153E+01  0.27319473580E+01  0.00000000000E+00 0.  1.
</event>
<event>
 5    1  0.2111786E+001  0.1539314E+01  0.7818608E-02  0.3421984E+00
         11   -1    0    0    0    0  0.00000000000E+00  0.00000000000E+00  0.39999999674E+01  0.40000000000E+01  0.51100000000E-03 0.  1.
    9000002   -1    0    0    0    0 -0.00000000000E+00 -0.00000000000E+00  0.00000000000E+00  0.93800000000E+00  0.93800000000E+00 0.  1.
         11    1    1    2    0    0  0.11488484348E+00 -0.19409438070E+00  0.64789973974E+00  0.68603607030E+00  0.51100000000E-03 0.  1.
    9000002    1    1    2    0    0 -0.49425994500E-01  0.34903030415E-02  0.46744564793E-01  0.94047018320E+00  0.93800000000E+00 0.  1.
         22    1    1    2    0    0 -0.65458848979E-01  0.19060407765E+00  0.33053556628E+01  0.33114937465E+01  0.00000000000E+00 0.  1.
</event>
<event>
 5    1  0.2111786E+001  0.1562078E+01  0.7818608E-02  0.3395580E+00
         11   -1    0    0    0    0  0.00000000000E+00  0.00000000000E+00  0.39999999674E+01  0.40000000000E+01  0.51100000000E-03 0.  1.
    9000002   -1    0    0    0    0 -0.00000000000E+00 -0.00000000000E+00  0.00000000000E+00  0.93800000000E+00  0.93800000000E+00 0. -1.
         11    1    1    2    0    0  0.16720237335E+00  0.12608386606E-01  0.73637200767E+00  0.75522155681E+00  0.51100000000E-03 0.  1.
    9000002    1    1    2    0    0  0.66002578278E-01  0.94712737502E-01  0.36840092447E-01  0.94579492248E+00  0.93800000000E+00 0. -1.
         22    1    1    2    0    0 -0.23320495163E+00 -0.10732112411E+00  0.32267878672E+01  0.32369835207E+01  0.00000000000E+00 0.  1.
</event>
<event>
 5    1  0.2111786E+001  0.1560773E+01  0.7818608E-02  0.3397072E+00
         11   -1    0    0    0    0  0.00000000000E+00  0.00000000000E+00  0.39999999674E+01  0.40000000000E+01  0.51100000000E-03 0. -1.
    9000002   -1    0    0    0    0 -0.00000000000E+00 -0.00000000000E+00  0.00000000000E+00  0.93800000000E+00  0.93800000000E+00 0.  1.
         11    1    1    2    0    0 -0.18666851767E+00  0.63468110593E-01  0.28738334160E+01  0.28805888461E+01  0.51100000000E-03 0. -1.
    9000002    1    1    2    0    0 -0.34164823839E-01 -0.56633959944E-01  0.31696088827E-01  0.94086305202E+00  0.93800000000E+00 0.  1.
         22    1    1    2    0    0  0.22083334151E+00 -0.68341506493E-02  0.10944704626E+01  0.11165481019E+01  0.00000000000E+00 0.  1.
</event>
<event>
 5    1  0.2111786E+001  0.1574799E+01  0.7818608E-02  0.3381178E+00
         11   -1    0    0    0    0  0.00000000000E+00  0.00000000000E+00  0.39999999674E+01  0.40000000000E+01  0.51100000000E-03 0. -1.
    9000002   -1    0    0    0    0 -0.00000000000E+00 -0.00000000000E+00  0.00000000000E+00  0.93800000000E+00  0.93800000000E+00 0. -1.
         11    1    1    2    0    0  0.52692054821E-01 -0.14799878805E+00  0.20013863599E+01  0.20075427061E+01  0.51100000000E-03 0. -1.
    9000002    1    1    2    0    0 -0.12293130527E-03 -0.68314705455E-01  0.21375517638E-01  0.94072728612E+00  0.93800000000E+00 0. -1.
         22    1    1    2    0    0 -0.52569123516E-01  0.21631349350E+00  0.19772380898E+01  0.19897300078E+01  0.00000000000E+00 0. -1.
</event>
<event>
 5    1  0.2111786E+001  0.1563210E+01  0.7818608E-02  0.3394288E+00
         11   -1    0    0    0    0  0.00000000000E+00  0.00000000000E+00  0.39999999674E+01  0.40000000000E+01  0.51100000000E-03 0. -1.
    9000002   -1    0    0    0    0 -0.00000000000E+00 -0.00000000000E+00  0.00000000000E+00  0.93800000000E+00  0.93800000000E+00 0.  1.
         11    1    1    2    0    0 -0.11903418531E+00 -0.14401445002E+00  0.29805894189E+01  0.29864398276E+01  0.51100000000E-03 0. -1.
    9000002    1    1    2    0    0 -0.12738951353E-01 -0.11213410894E-01  0.27068863500E-01  0.93854394934E+00  0.93800000000E+00 0.  1.
         22    1    1    2    0    0  0.13177313666E+00  0.15522786091E+00  0.99234168498E+00  0.10130162230E+01  0.00000000000E+00 0.  1.
</event>
<event>
 5    1  0.2111786E+001  0.1544866E+01  0.7818608E-02  0.3415467E+00
         11   -1    0    0    0    0  0.00000000000E+00  0.00000000000E+00  0.39999999674E+01  0.40000000000E+01  0.51100000000E-03 0. -1.
    9000002   -1    0    0    0    0 -0.00000000000E+00 -0.00000000000E+00  0.00000000000E+00  0.93800000000E+00  0.93800000000E+00 0.  1.
         11    1    1    2    0    0 -0.10954610648E+00 -0.29769856819E+00  0.16979313939E+01  0.17273089088E+01  0.51100000000E-03 0. -1.
    9000002    1    1    2    0    0 -0.10719920006E+00  0.15291553388E+00  0.65137310269E-01  0.95862489963E+00  0.93800000000E+00 0.  1.
         22    1    1    2    0    0  0.21674530654E+00  0.14478303431E+00  0.22369312632E+01  0.22520661916E+01  0.00000000000E+00 0. -1.
</event>
<event>
 5    1  0.2111786E+001  0.1531483E+01  0.7818608E-02  0.3431260E+00
         11   -1    0    0    0    0  0.00000000000E+00  0.00000000000E+00  0.39999999674E+01  0.40000000000E+01  0.51100000000E-03 0.  1.
    9000002   -1    0    0    0    0 -0.00000000000E+00 -0.00000000000E+00  0.00000000000E+00  0.93800000000E+00  0.93800000000E+00 0. -1.
         11    1    1    2    0    0  0.28564285555E+00 -0.15826012421E-01  0.10676235168E+01  0.11052884412E+01  0.51100000000E-03 0.  1.
    9000002    1    1    2    0    0 -0.20292664604E-01  0.43037117670E-01  0.52674391710E-01  0.94068197457E+00  0.93800000000E+00 0. -1.
         22    1    1    2    0    0 -0.26535019095E+00 -0.27211105249E-01  0.28797020589E+01  0.28920295842E+01  0.00000000000E+00 0.  1.
</event>
<event>
 5    1  0.2111786E+001  0.1502739E+01  0.7818608E-02  0.3466201E+00
         11   -1    0    0    0    0  0.00000000000E+00  0.00000000000E+00  0.39999999674E+01  0.40000000000E+01  0.51100000000E-03 0. -1.
    9000002   -1    0    0    0    0 -0.00000000000E+00 -0.00000000000E+00  0.00000000000E+00  0.93800000000E+00  0.93800000000E+00 0. -1.
         11    1    1    2    0    0  0.12621822965E+00 -0.19653254763E+00  0.35580833232E+00  0.42562414669E+00  0.51100000000E-03 0. -1.
    9000002    1    1    2    0    0 -0.20288693279E+00 -0.85941060006E-02  0.10392179317E+00  0.96533968387E+00  0.93800000000E+00 0. -1.
         22    1    1    2    0    0  0.76668703143E-01  0.20512665363E+00  0.35402698419E+01  0.35470361694E+01  0.00000000000E+00 0. -1.
</event>
<event>
 5    1  0.2111786E+001  0.1466102E+01  0.7818608E-02  0.3512879E+00
         11   -1    0    0    0    0  0.00000000000E+00  0.00000000000E+00  0.39999999674E+01  0.40000000000E+01  0.51100000000E-03 0.  1.
    9000002   -1    0    0    0    0 -0.00000000000E+00 -0.00000000000E+00  0.00000000000E+00  0.93800000000E+00  0.93800000000E+00 0. -1.
         11    1    1    2    0    0  0.95123173723E-01 -0.36234534554E+00  0.41495026007E+00  0.55904073829E+00  0.51100000000E-03 0.  1.
    9000002    1    1    2    0    0 -0.29143972555E+00  0.27926899589E+00  0.26891107054E+00  0.10559760649E+01  0.93800000000E+00 0. -1.
         22    1    1    2    0    0  0.19631655183E+00  0.83076349653E-01  0.33161386368E+01  0.33229831968E+01  0.00000000000E+00 0.  1.
</event>
<event>
 5    1  0.2111786E+001  0.1555621E+01  0.7818608E-02  0.3402985E+00
         11   -1    0    0    0    0  0.00000000000E+00  0.00000000000E+00  0.39999999674E+01  0.40000000000E+01  0.51100000000E-03 0.  1.
    9000002   -1    0    0    0    0 -0.00000000000E+00 -0.00000000000E+00  0.00000000000E+00  0.93800000000E+00  0.93800000000E+00 0. -1.
         11    1    1    2    0    0  0.14087690325E+00  0.20620769014E+00  0.13187422822E+01  0.13421808303E+01  0.51100000000E-03 0.  1.
    9000002    1    1    2    0    0  0.69008432459E-01 -0.99216834334E-01  0.42649238414E-01  0.94671489980E+00  0.93800000000E+00 0. -1.
         22    1    1    2    0    0 -0.20988533571E+00 -0.10699085580E+00  0.26386084468E+01  0.26491042699E+01  0.00000000000E+00 0.  1.
</event>
<event>
 5    1  0.2111786E+001  0.1575794E+01  0.7818608E-02  0.3380062E+00
         11   -1    0    0    0    0  0.00000000000E+00  0.00000000000E+00  0.39999999674E+01  0.40000000000E+01  0.51100000000E-03 0. -1.
    9000002   -1    0    0    0    0 -0.00000000000E+00 -0.00000000000E+00  0.00000000000E+00  0.93800000000E+00  0.93800000000E+00 0. -1.
         11    1    1    2    0    0  0.62255746629E-01  0.14660653749E+00  0.15750095826E+01  0.15830428614E+01  0.51100000000E-03 0. -1.
    9000002    1    1    2    0    0 -0.10170638237E+00  0.85719050105E-01  0.29436836603E-01  0.94784095244E+00  0.93800000000E+00 0. -1.
         22    1    1    2    0    0  0.39450635736E-01 -0.23232558759E+00  0.23955535482E+01  0.24071161861E+01  0.00000000000E+00 0. -1.
</event>
<event>
 5    1  0.2111786E+001  0.1525040E+01  0.7818608E-02  0.3438969E+00
         11   -1    0    0    0    0  0.00000000000E+00  0.00000000000E+00  0.39999999674E+01  0.40000000000E+01  0.51100000000E-03 0. -1.
    9000002   -1    0    0    0    0 -0.00000000000E+00 -0.00000000000E+00  0.00000000000E+00  0.93800000000E+00  0.93800000000E+00 0.  1.
         11    1    1    2    0    0 -0.56527111294E-01  0.29131517439E+00  0.86499862951E+00  0.91448495631E+00  0.51100000000E-03 0. -1.
    9000002    1    1    2    0    0 -0.51137705770E-01 -0.11357981260E+00  0.67128441215E-01  0.94861249539E+00  0.93800000000E+00 0.  1.
         22    1    1    2    0    0  0.10766481706E+00 -0.17773536180E+00  0.30678728966E+01  0.30749025483E+01  0.00000000000E+00 0.  1.
</event>
<event>
 5    1  0.2111786E+001  0.1573078E+01  0.7818608E-02  0.3383112E+00
         11   -1    0    0    0    0  0.00000000000E+00  0.00000000000E+00  0.39999999674E+01  0.40000000000E+01  0.51100000000E-03 0.  1.
    9000002   -1    0    0    0    0 -0.00000000000E+00 -0.00000000000E+00  0.00000000000E+00  0.93800000000E+00  0.93800000000E+00 0. -1.
         11    1    1    2    0    0 -0.14182393360E+00 -0.13009463602E+00  0.22460433861E+01  0.22542736737E+01  0.51100000000E-03 0.  1.
    9000002    1    1    2    0    0  0.52945142406E-01 -0.51533836583E-01  0.23193646984E-01  0.94119119720E+00  0.93800000000E+00 0. -1.
         22    1    1    2    0    0  0.88878791195E-01  0.18162847260E+00  0.17307629343E+01  0.17425351291E+01  0.00000000000E+00 0.  1.
</event>
<event>
 5    1  0.2111786E+001  0.1562543E+01  0.7818608E-02  0.3395049E+00
         11   -1    0    0    0    0  0.00000000000E+00  0.00000000000E+00  0.39999999674E+01  0.40000000000E+01  0.51100000000E-03 0. -1.
    9000002   -1    0    0    0    0 -0.00000000000E+00 -0.00000000000E+00  0.00000000000E+00  0.93800000000E+00  0.93800000000E+00 0. -1.
         11    1    1    2    0    0 -0.15406103862E+00 -0.15546298050E+00  0.14117748621E+01  0.14286399351E+01  0.51100000000E-03 0. -1.
    9000002    1    1    2    0    0  0.91218718101E-01 -0.85646709935E-01  0.38083330389E-01  0.94707473491E+00  0.93800000000E+00 0. -1.
         22    1    1    2    0    0  0.62842320523E-01  0.24110969044E+00  0.25501417749E+01  0.25622853300E+01  0.00000000000E+00 0. -1.
</event>
<event>
 5    1  0.2111786E+001  0.1590088E+01  0.7818608E-02  0.3364192E+00
         11   -1    0    0    0    0  0.00000000000E+00  0.00000000000E+00  0.39999999674E+01  0.40000000000E+01  0.51100000000E-03 0.  1.
    9000002   -1    0    0    0    0 -0.00000000000E+00 -0.00000000000E+00  0.00000000000E+00  0.93800000000E+00  0.93800000000E+00 0. -1.
         11    1    1    2    0    0  0.65460760841E-01  0.16666113815E+00  0.85338481786E+00  0.87196728990E+00  0.51100000000E-03 0.  1.
    9000002    1    1    2    0    0 -0.81655751163E-01 -0.36806166298E+00  0.10349767933E+00  0.10162149473E+01  0.93800000000E+00 0. -1.
         22    1    1    2    0    0  0.16194990322E-01  0.20140052483E+00  0.30431174702E+01  0.30498177628E+01  0.00000000000E+00 0.  1.
</event>
<event>
 5    1  0.2111786E+001  0.1492630E+01  0.7818608E-02  0.3478833E+00
         11   -1    0    0    0    0  0.00000000000E+00  0.00000000000E+00  0.39999999674E+01  0.40000000000E+01  0.51100000000E-03 0. -1.
    9000002   -1    0    0    0    0 -0.00000000000E+00 -0.00000000000E+00  0.00000000000E+00  0.93800000000E+00  0.93800000000E+00 0. -1.
         11    1    1    2    0    0 -0.37517998295E+00 -0.10176092251E+00  0.12694639577E+01  0.13276499185E+01  0.51100000000E-03 0. -1.
    9000002    1    1    2    0    0  0.90537860510E-01 -0.93643459771E-01  0.94392659286E-01  0.95169332028E+00  0.93800000000E+00 0. -1.
         22    1    1    2    0    0  0.28464212244E+00  0.19540438228E+00  0.26361433503E+01  0.26586567612E+01  0.00000000000E+00 0. -1.
</event>
<event>
 5    1  0.2111786E+001  0.1531435E+01  0.7818608E-02  0.3431318E+00
         11   -1    0    0    0    0  0.00000000000E+00  0.00000000000E+00  0.39999999674E+01  0.40000000000E+01  0.51100000000E-03 0. -1.
    9000002   -1    0    0    0    0 -0.00000000000E+00 -0.00000000000E+00  0.00000000000E+00  0.93800000000E+00  0.93800000000E+00 0. -1.
         11    1    1    2    0    0  0.11766090630E+00  0.11104032932E+00  0.23073115199E+01  0.23129766006E+01  0.51100000000E-03 0. -1.
    9000002    1    1    2    0    0  0.25957354432E+00  0.66992486365E-01  0.10237521807E+00  0.98091340261E+00  0.93800000000E+00 0. -1.
         22    1    1    2    0    0 -0.37723445063E+00 -0.17803281569E+00  0.15903132294E+01  0.16441099968E+01  0.00000000000E+00 0. -1.
</event>
<event>
 5    1  0.2111786E+001  0.1301027E+01  0.7818608E-02  0.3779972E+00
         11   -1    0    0    0    0  0.00000000000E+00  0.00000000000E+00  0.39999999674E+01  0.40000000000E+01  0.51100000000E-03 0.  1.
    9000002   -1    0    0    0    0 -0.00000000000E+00 -0.00000000000E+00  0.00000000000E+00  0.93800000000E+00  0.93800000000E+00 0.  1.
         11    1    1    2    0    0  0.48607921167E+00 -0.35961459200E+00  0.98613659306E+00  0.11567459946E+01  0.51100000000E-03 0.  1.
    9000002    1    1    2    0    0  0.56325545257E-01  0.17226498188E+00  0.29115703557E+00  0.99873130040E+00  0.93800000000E+00 0.  1.
         22    1    1    2    0    0 -0.54240475692E+00  0.18734961012E+00  0.27227063387E+01  0.27825227050E+01  0.00000000000E+00 0.  1.
</event>
<event>
 5    1  0.2111786E+001  0.1514360E+01  0.7818608E-02  0.3451903E+00
         11   -1    0    0    0    0  0.00000000000E+00  0.00000000000E+00  0.39999999674E+01  0.40000000000E+01  0.51100000000E-03 0.  1.
    9000002   -1    0    0    0    0 -0.00000000000E+00 -0.00000000000E+00  0.00000000000E+00  0.93800000000E+00  0.93800000000E+00 0.  1.
         11    1    1    2    0    0 -0.15864889277E-01  0.14915587621E+00  0.17269354295E+00  0.22874110041E+00  0.51100000000E-03 0.  1.
    9000002    1    1    2    0    0  0.12646394143E-02  0.82430394504E-01  0.69372797726E-01  0.94416786342E+00  0.93800000000E+00 0.  1.
         22    1    1    2    0    0  0.14600249863E-01 -0.23158627071E+00  0.37579336267E+01  0.37650910362E+01  0.00000000000E+00 0.  1.
</event>
<event>
 5    1  0.2111786E+001  0.1473147E+01  0.7818608E-02  0.3503708E+00
         11   -1    0    0    0    0  0.00000000000E+00  0.00000000000E+00  0.39999999674E+01  0.40000000000E+01  0.51100000000E-03 0. -1.
    9000002   -1    0    0    0    0 -0.00000000000E+00 -0.00000000000E+00  0.00000000000E+00  0.93800000000E+00  0.93800000000E+00 0.  1.
         11    1    1    2    0    0 -0.33333081134E+00 -0.23179262135E+00  0.20449272298E+01  0.20848416931E+01  0.51100000000E-03 0. -1.
    9000002    1    1    2    0    0 -0.14101770263E+00  0.19735183451E+00  0.14255926142E+00  0.97928590414E+00  0.93800000000E+00 0.  1.
         22    1    1    2    0    0  0.47434851398E+00  0.34440786842E-01  0.18125134762E+01  0.18738724027E+01  0.00000000000E+00 0.  1.
</event>
<event>
 5    1  0.2111786E+001  0.1533329E+01  0.7818608E-02  0.3429064E+00
         11   -1    0    0    0    0  0.00000000000E+00  0.00000000000E+00  0.39999999674E+01  0.40000000000E+01  0.51100000000E-03 0. -1.
    9000002   -1    0    0    0    0 -0.00000000000E+00 -0.00000000000E+00  0.00000000000E+00  0.93800000000E+00  0.93800000000E+00 0.  1.
         11    1    1    2    0    0 -0.18546165457E+00  0.21906195571E+00  0.10396473982E+01  0.10785412090E+01  0.51100000000E-03 0. -1.
    9000002    1    1    2    0    0  0.86320388140E-01  0.66981204519E-02  0.54924800211E-01  0.94358720207E+00  0.93800000000E+00 0.  1.
         22    1    1    2    0    0  0.99141266430E-01 -0.22576007616E+00  0.29054277690E+01  0.29158715890E+01  0.00000000000E+00 0. -1.
</event>
<event>
 5    1  0.2111786E+001  0.1568128E+01  0.7818608E-02  0.3388699E+00
         11   -1    0    0    0    0  0.00000000000E+00  0.00000000000E+00  0.39999999674E+01  0.40000000000E+01  0.51100000000E-03 0.  1.
    9000002   -1    0    0    0    0 -0.00000000000E+00 -0.00000000000E+00  0.00000000000E+00  0.93800000000E+00  0.93800000000E+00 0.  1.
         11    1    1    2    0    0 -0.14819596145E+00 -0.14538193143E+00  0.15673874181E+01  0.15810760667E+01  0.51100000000E-03 0.  1.
    9000002    1    1    2    0    0 -0.36276670201E-01  0.35637761656E-01  0.24946518113E-01  0.93970866529E+00  0.93800000000E+00 0.  1.
         22    1    1    2    0    0  0.18447263165E+00  0.10974416978E+00  0.24076660311E+01  0.24172152680E+01  0.00000000000E+00 0.  1.
</event>
<event>
 5    1  0.2111786E+001  0.1563886E+01  0.7818608E-02  0.3393517E+00
         11   -1    0    0    0    0  0.00000000000E+00  0.00000000000E+00  0.39999999674E+01  0.40000000000E+01  0.51100000000E-03 0.  1.
    9000002   -1    0    0    0    0 -0.00000000000E+00 -0.00000000000E+00  0.00000000000E+00  0.93800000000E+00  0.93800000000E+00 0. -1.
         11    1    1    2    0    0 -0.93642947462E-01  0.10842131860E+00  0.52620786681E+00  0.54536149859E+00  0.51100000000E-03 0.  1.
    9000002    1    1    2    0    0  0.60619041477E-01  0.15986016957E+00  0.46377000130E-01  0.95458093850E+00  0.93800000000E+00 0. -1.
         22    1    1    2    0    0  0.33023905985E-01 -0.26828148817E+00  0.34274151004E+01  0.34380575629E+01  0.00000000000E+00 0.  1.
</event>
<event>
 5    1  0.2111786E+001  0.1579978E+01  0.7818608E-02  0.3375386E+00
         11   -1    0    0    0    0  0.00000000000E+00  0.00000000000E+00  0.39999999674E+01  0.40000000000E+01  0.51100000000E-03 0. -1.
    9000002   -1    0    0    0    0 -0.00000000000E+00 -0.00000000000E+00  0.00000000000E+00  0.93800000000E+00  0.93800000000E+00 0. -1.
         11    1    1    2    0    0 -0.12714518538E+00  0.52465804687E-01  0.22150412351E+01  0.22193076607E+01  0.51100000000E-03 0. -1.
    9000002    1    1    2    0    0  0.16454179702E-01  0.12009425823E+00  0.24273029569E-01  0.94611127826E+00  0.93800000000E+00 0. -1.
         22    1    1    2    0    0  0.11069100567E+00 -0.17256006292E+00  0.17606857027E+01  0.17725810610E+01  0.00000000000E+00 0. -1.
</event>
<event>
 5    1  0.2111786E+001  0.1497953E+01  0.7818608E-02  0.3472158E+00
         11   -1    0    0    0    0  0.00000000000E+00  0.00000000000E+00  0.39999999674E+01  0.40000000000E+01  0.51100000000E-03 0.  1.
    9000002   -1    0    0    0    0 -0.00000000000E+00 -0.00000000000E+00  0.00000000000E+00  0.93800000000E+00  0.93800000000E+00 0.  1.
         11    1    1    2    0    0 -0.44329996183E+00 -0.23392133396E+00  0.12588452328E+01  0.13549633308E+01  0.51100000000E-03 0.  1.
    9000002    1    1    2    0    0  0.27921800240E+00  0.36511663798E+00  0.23832873110E+00  0.10714090891E+01  0.93800000000E+00 0.  1.
         22    1    1    2    0    0  0.16408195943E+00 -0.13119530403E+00  0.25028260035E+01  0.25116275801E+01  0.00000000000E+00 0.  1.
</event>
<event>
 5    1  0.2111786E+001  0.1583673E+01  0.7818608E-02  0.3371277E+00
         11   -1    0    0    0    0  0.00000000000E+00  0.00000000000E+00  0.39999999674E+01  0.40000000000E+01  0.51100000000E-03 0. -1.
    9000002   -1    0    0    0    0 -0.00000000000E+00 -0.00000000000E+00  0.00000000000E+00  0.93800000000E+00  0.93800000000E+00 0.  1.
         11    1    1    2    0    0  0.11955247492E+00  0.38376356406E-01  0.13133349468E+01  0.13193234943E+01  0.51100000000E-03 0. -1.
    9000002    1    1    2    0    0 -0.24761498907E-01  0.15632121294E+00  0.28479420978E-01  0.95168510068E+00  0.93800000000E+00 0.  1.
         22    1    1    2    0    0 -0.94790976010E-01 -0.19469756935E+00  0.26581855995E+01  0.26669914050E+01  0.00000000000E+00 0. -1.
</event>
<event>
 5    1  0.2111786E+001  0.1556572E+01  0.7818608E-02  0.3401891E+00
         11   -1    0    0    0    0  0.00000000000E+00  0.00000000000E+00  0.39999999674E+01  0.40000000000E+01  0.51100000000E-03 0. -1.
    9000002   -1    0    0    0    0 -0.00000000000E+00 -0.00000000000E+00  0.00000000000E+00  0.93800000000E+00  0.93800000000E+00 0.  1.
         11    1    1    2    0    0  0.44776610495E-01 -0.20938314859E+00  0.97534690653E+00  0.99857303036E+00  0.51100000000E-03 0. -1.
    9000002    1    1    2    0    0  0.37548400391E-01  0.22995068362E-02  0.32842484180E-01  0.93932837649E+00  0.93800000000E+00 0.  1.
         22    1    1    2    0    0 -0.82325010886E-01  0.20708364176E+00  0.29918105767E+01  0.30000985932E+01  0.00000000000E+00 0. -1.
</event>
<event>
 5    1  0.2111786E+001  0.1551235E+01  0.7818608E-02  0.3408053E+00
         11   -1    0    0    0    0  0.00000000000E+00  0.00000000000E+00  0.39999999674E+01  0.40000000000E+01  0.51100000000E-03 0.  1.
    9000002   -1    0    0    0    0 -0.00000000000E+00 -0.00000000000E+00  0.00000000000E+00  0.93800000000E+00  0.93800000000E+00 0. -1.
         11    1    1    2    0    0  0.17539509294E+00 -0.30993625991E+00  0.27567631337E+01  0.27796703331E+01  0.51100000000E-03 0.  1.
    9000002    1    1    2    0    0 -0.17736273621E+00  0.10383435934E+00  0.65270412650E-01  0.96246731952E+00  0.93800000000E+00 0. -1.
         22    1    1    2    0    0  0.19676432744E-02  0.20610190057E+00  0.11779664210E+01  0.11958623474E+01  0.00000000000E+00 0.  1.
</event>
<event>
 5    1  0.2111786E+001  0.1557974E+01  0.7818608E-02  0.3400279E+00
         11   -1    0    0    0    0  0.00000000000E+00  0.00000000000E+00  0.39999999674E+01  0.40000000000E+01  0.51100000000E-03 0. -1.
    9000002   -1    0    0    0    0 -0.00000000000E+00 -0.00000000000E+00  0.00000000000E+00  0.93800000000E+00  0.93800000000E+00 0. -1.
         11    1    1    2    0    0 -0.93787389435E-01  0.17498000064E+00  0.22094776039E+01  0.22183790520E+01  0.51100000000E-03 0. -1.
    9000002    1    1    2    0    0 -0.36659312671E-01  0.73404369698E-01  0.35431756397E-01  0.94224811810E+00  0.93800000000E+00 0. -1.
         22    1    1    2    0    0  0.13044670211E+00 -0.24838437034E+00  0.17550906070E+01  0.17773728299E+01  0.00000000000E+00 0.  1.
</event>
<event>
 5    1  0.2111786E+001  0.1580584E+01  0.7818608E-02  0.3374710E+00
         11   -1    0    0    0    0  0.00000000000E+00  0.00000000000E+00  0.39999999674E+01  0.40000000000E+01  0.51100000000E-03 0.  1.
    9000002   -1    0    0    0    0 -0.00000000000E+00 -0.00000000000E+00  0.00000000000E+00  0.93800000000E+00  0.93800000000E+00 0. -1.
         11    1    1    2    0    0  0.23288935125E-01  0.10241508233E+00  0.16767649089E+01  0.16800512029E+01  0.51100000000E-03 0.  1.
    9000002    1    1    2    0    0 -0.45609368203E-01  0.14637700582E+00  0.29762420601E-01  0.95091337354E+00  0.93800000000E+00 0. -1.
         22    1    1    2    0    0  0.22320433078E-01 -0.24879208815E+00  0.22934726379E+01  0.23070354236E+01  0.00000000000E+00 0.  1.
</event>
<event>
 5    1  0.2111786E+001  0.1552383E+01  0.7818608E-02  0.3406725E+00
         11   -1    0    0    0    0  0.00000000000E+00  0.00000000000E+00  0.39999999674E+01  0.40000000000E+01  0.51100000000E-03 0. -1.
    9000002   -1    0    0    0    0 -0.00000000000E+00 -0.00000000000E+00  0.00000000000E+00  0.93800000000E+00  0.93800000000E+00 0.  1.
         11    1    1    2    0    0  0.11696691966E+00 -0.25925033853E+00  0.19971299757E+01  0.20172804464E+01  0.51100000000E-03 0. -1.
    9000002    1    1    2    0    0  0.27917054710E-02  0.51360936270E-01  0.36867633231E-01  0.94013241715E+00  0.93800000000E+00 0.  1.
         22    1    1    2    0    0 -0.11975862513E+00  0.20788940226E+00  0.19660023584E+01  0.19805871365E+01  0.00000000000E+00 0. -1.
</event>
<event>
 5    1  0.2111786E+001  0.1572097E+01  0.7818608E-02  0.3384217E+00
         11   -1    0    0    0    0  0.00000000000E+00  0.00000000000E+00  0.39999999674E+01  0.40000000000E+01  0.51100000000E-03 0. -1.
    9000002   -1    0    0    0    0 -0.00000000000E+00 -0.00000000000E+00  0.00000000000E+00  0.93800000000E+00  0.93800000000E+00 0. -1.
         11    1    1    2    0    0  0.89571865620E-01  0.77222649254E-01  0.27126325870E+01  0.27152094338E+01  0.51100000000E-03 0. -1.
    9000002    1    1    2    0    0  0.13856226602E+00 -0.14503465934E+00  0.47602345459E-01  0.96038770154E+00  0.93800000000E+00 0. -1.
         22    1    1    2    0    0 -0.22813413164E+00  0.67812010088E-01  0.12397650349E+01  0.12624028646E+01  0.00000000000E+00 0. -1.
</event>
<event>
 5    1  0.2111786E+001  0.1579370E+01  0.7818608E-02  0.3376064E+00
         11   -1    0    0    0    0  0.00000000000E+00  0.00000000000E+00  0.39999999674E+01  0.40000000000E+01  0.51100000000E-03 0.  1.
    9000002   -1    0    0    0    0 -0.00000000000E+00 -0.00000000000E+00  0.00000000000E+00  0.93800000000E+00  0.93800000000E+00 0. -1.
         11    1    1    2    0    0 -0.96899453491E-02  0.10260763523E+00  0.81301250209E+00  0.81951925635E+00  0.51100000000E-03 0.  1.
    9000002    1    1    2    0    0  0.22015836102E+00  0.15268377356E+00  0.63563899605E-01  0.97758191880E+00  0.93800000000E+00 0. -1.
         22    1    1    2    0    0 -0.21046841567E+00 -0.25529140879E+00  0.31234235657E+01  0.31408988248E+01  0.00000000000E+00 0.  1.
</event>
<event>
 5    1  0.2111786E+001  0.1529970E+01  0.7818608E-02  0.3433064E+00
         11   -1    0    0    0    0  0.00000000000E+00  0.00000000000E+00  0.39999999674E+01  0.40000000000E+01  0.51100000000E-03 0. -1.
    9000002   -1    0    0    0    0 -0.00000000000E+00 -0.00000000000E+00  0.00000000000E+00  0.93800000000E+00  0.93800000000E+00 0.  1.
         11    1    1    2    0    0 -0.37813899831E-01 -0.41159849828E+00  0.28327767323E+01  0.28627726929E+01  0.51100000000E-03 0. -1.
    9000002    1    1    2    0    0  0.38623394884E-01  0.17579654423E+00  0.75236911461E-01  0.95807138797E+00  0.93800000000E+00 0.  1.
         22    1    1    2    0    0 -0.80949505257E-03  0.23580195405E+00  0.10919863236E+01  0.11171559192E+01  0.00000000000E+00 0.  1.
</event>
<event>
 5    1  0.2111786E+001  0.1531301E+01  0.7818608E-02  0.3431478E+00
         11   -1    0    0    0    0  0.00000000000E+00  0.00000000000E+00  0.39999999674E+01  0.40000000000E+01  0.51100000000E-03 0.  1.
    9000002   -1    0    0    0    0 -0.00000000000E+00 -0.00000000000E+00  0.00000000000E+00  0.93800000000E+00  0.93800000000E+00 0.  1.
         11    1    1    2    0    0  0.88844648200E-01  0.32286939580E+00  0.27934794064E+01  0.28134792470E+01  0.51100000000E-03 0.  1.
    9000002    1    1    2    0    0  0.21367824134E+00 -0.24549286421E+00  0.12724422086E+00  0.10009796346E+01  0.93800000000E+00 0.  1.
         22    1    1    2    0    0 -0.30252288954E+00 -0.77376531592E-01  0.10792763401E+01  0.11235411183E+01  0.00000000000E+00 0.  1.
</event>
<event>
 5    1  0.2111786E+001  0.1570417E+01  0.7818608E-02  0.3386111E+00
         11   -1    0    0    0    0  0.00000000000E+00  0.00000000000E+00  0.39999999674E+01  0.40000000000E+01  0.51100000000E-03 0.  1.
    9000002   -1    0    0    0    0 -0.00000000000E+00 -0.00000000000E+00  0.00000000000E+00  0.93800000000E+00  0.93800000000E+00 0.  1.
         11    1    1    2    0    0  0.16994933650E-01 -0.14382263563E+00  0.14990133321E+01  0.15059930309E+01  0.51100000000E-03 0.  1.
    9000002    1    1    2    0    0  0.41403157443E-01 -0.14045442122E+00  0.36050120570E-01  0.95004488161E+00  0.93800000000E+00 0.  1.
         22    1    1    2    0    0 -0.58398091092E-01  0.28427705685E+00  0.24649365147E+01  0.24819620875E+01  0.00000000000E+00 0.  1.
</event>
<event>
 5    1  0.2111786E+001  0.1542564E+01  0.7818608E-02  0.3418163E+00
         11   -1    0    0    0    0  0.00000000000E+00  0.00000000000E+00  0.39999999674E+01  0.40000000000E+01  0.51100000000E-03 0.  1.
    9000002   -1    0    0    0    0 -0.00000000000E+00 -0.00000000000E+00  0.00000000000E+00  0.93800000000E+00  0.93800000000E+00 0. -1.
         11    1    1    2    0    0 -0.25342874383E+00  0.19935453681E+00  0.26372164175E+01  0.26568551059E+01  0.51100000000E-03 0.  1.
    9000002    1    1    2    0    0  0.12316604633E+00  0.16046812208E-01  0.53302266544E-01  0.94768797965E+00  0.93800000000E+00 0. -1.
         22    1    1    2    0    0  0.13026269750E+00 -0.21540134902E+00  0.13094812833E+01  0.13334569145E+01  0.00000000000E+00 0. -1.
</event>
<event>
 5    1  0.2111786E+001  0.1092467E+01  0.7818608E-02  0.4276481E+00
         11   -1    0    0    0    0  0.00000000000E+00  0.00000000000E+00  0.39999999674E+01  0.40000000000E+01  0.51100000000E-03 0. -1.
    9000002   -1    0    0    0    0 -0.00000000000E+00 -0.00000000000E+00  0.00000000000E+00  0.93800000000E+00  0.93800000000E+00 0. -1.
         11    1    1    2    0    0 -0.32528828057E+00 -0.67387613625E+00  0.10461173910E+01  0.12861894764E+01  0.51100000000E-03 0. -1.
    9000002    1    1    2    0    0 -0.51164143138E+00  0.67461613478E-01  0.11382493778E+01  0.15626207696E+01  0.93800000000E+00 0. -1.
         22    1    1    2    0    0  0.83692971194E+00  0.60641452277E+00  0.18156331986E+01  0.20891897539E+01  0.00000000000E+00 0. -1.
</event>
<event>
 5    1  0.2111786E+001  0.1540972E+01  0.7818608E-02  0.3420032E+00
         11   -1    0    0    0    0  0.00000000000E+00  0.00000000000E+00  0.39999999674E+01  0.40000000000E+01  0.51100000000E-03 0. -1.
    9000002   -1    0    0    0    0 -0.00000000000E+00 -0.00000000000E+00  0.00000000000E+00  0.93800000000E+00  0.93800000000E+00 0. -1.
         11    1    1    2    0    0 -0.55089615945E-01  0.46782794035E-01  0.34910045568E+01  0.34917526505E+01  0.51100000000E-03 0. -1.
    9000002    1    1    2    0    0  0.36867934819E-01  0.15915578805E+00  0.62452441548E-01  0.95416671339E+00  0.93800000000E+00 0. -1.
         22    1    1    2    0    0  0.18221681126E-01 -0.20593858208E+00  0.44654296900E+00  0.49208063609E+00  0.00000000000E+00 0.  1.
</event>
<event>
 5    1  0.2111786E+001  0.1575630E+01  0.7818608E-02  0.3380246E+00
         11   -1    0    0    0    0  0.00000000000E+00  0.00000000000E+00  0.39999999674E+01  0.40000000000E+01  0.51100000000E-03 0.  1.
    9000002   -1    0    0    0    0 -0.00000000000E+00 -0.00000000000E+00  0.00000000000E+00  0.93800000000E+00  0.93800000000E+00 0. -1.
         11    1    1    2    0    0 -0.73238252195E-01  0.37255391314E+00  0.32361635125E+01  0.32583607535E+01  0.51100000000E-03 0.  1.
    9000002    1    1    2    0    0  0.11417864817E+00 -0.57840212688E+00  0.26601373597E+00  0.11393827679E+01  0.93800000000E+00 0. -1.
         22    1    1    2    0    0 -0.40940395975E-01  0.20584821374E+00  0.49782271894E+00  0.54025647855E+00  0.00000000000E+00 0.  1.
</event>
<event>
 5    1  0.2111786E+001  0.1554982E+01  0.7818608E-02  0.3403723E+00
         11   -1    0    0    0    0  0.00000000000E+00  0.00000000000E+00  0.39999999674E+01  0.40000000000E+01  0.51100000000E-03 0. -1.
    9000002   -1    0    0    0    0 -0.00000000000E+00 -0.00000000000E+00  0.00000000000E+00  0.93800000000E+00  0.93800000000E+00 0.  1.
         11    1    1    2    0    0 -0.20708375730E+00 -0.12937466281E+00  0.85409079676E+00  0.88830897561E+00  0.51100000000E-03 0. -1.
    9000002    1    1    2    0    0  0.23927931158E-01  0.29894711280E+00  0.95844311180E-01  0.98943016637E+00  0.93800000000E+00 0.  1.
         22    1    1    2    0    0  0.18315582615E+00 -0.16957245000E+00  0.30500648594E+01  0.30602608580E+01  0.00000000000E+00 0. -1.
</event>
<event>
 5    1  0.2111786E+001  0.1525873E+01  0.7818608E-02  0.3437969E+00
         11   -1    0    0    0    0  0.00000000000E+00  0.00000000000E+00  0.39999999674E+01  0.40000000000E+01  0.51100000000E-03 0. -1.
    9000002   -1    0    0    0    0 -0.00000000000E+00 -0.00000000000E+00  0.00000000000E+00  0.93800000000E+00  0.93800000000E+00 0.  1.
         11    1    1    2    0    0  0.24088395493E+00 -0.35337993583E+00  0.29297649475E+01  0.29608149837E+01  0.51100000000E-03 0. -1.
    9000002    1    1    2    0    0 -0.19399975470E+00  0.11517533999E+00  0.91832648275E-01  0.96911222212E+00  0.93800000000E+00 0.  1.
         22    1    1    2    0    0 -0.46884200233E-01  0.23820459584E+00  0.97840237154E+00  0.10080727942E+01  0.00000000000E+00 0. -1.
</event>
<event>
 5    1  0.2111786E+001  0.1471083E+01  0.7818608E-02  0.3506385E+00
         11   -1    0    0    0    0  0.00000000000E+00  0.00000000000E+00  0.39999999674E+01  0.40000000000E+01  0.51100000000E-03 0. -1.
    9000002   -1    0    0    0    0 -0.00000000000E+00 -0.00000000000E+00  0.00000000000E+00  0.93800000000E+00  0.93800000000E+00 0.  1.
         11    1    1    2    0    0  0.61679185160E-01 -0.21741986808E+00  0.27811957902E+00  0.35836640784E+00  0.51100000000E-03 0. -1.
    9000002    1    1    2    0    0  0.67825262355E-01 -0.98865258837E-01  0.11044142915E+00  0.95205877701E+00  0.93800000000E+00 0.  1.
         22    1    1    2    0    0 -0.12950444752E+00  0.31628512692E+00  0.36114389592E+01  0.36275748151E+01  0.00000000000E+00 0. -1.
</event>
<event>
 5    1  0.2111786E+001  0.1561281E+01  0.7818608E-02  0.3396491E+00
         11   -1    0    0    0    0  0.00000000000E+00  0.00000000000E+00  0.39999999674E+01  0.40000000000E+01  0.51100000000E-03 0.  1.
    9000002   -1    0    0    0    0 -0.00000000000E+00 -0.00000000000E+00  0.00000000000E+00  0.93800000000E+00  0.93800000000E+00 0.  1.
         11    1    1    2    0    0 -0.19983744980E+00 -0.91666520824E-01  0.23894550525E+01  0.23995485963E+01  0.51100000000E-03 0.  1.
    9000002    1    1    2    0    0 -0.20790899206E-01  0.14501892948E-02  0.28618403622E-01  0.93866787394E+00  0.93800000000E+00 0.  1.
         22    1    1    2    0    0  0.22062834901E+00  0.90216331529E-01  0.15819265113E+01  0.15997835297E+01  0.00000000000E+00 0.  1.
</event>
<event>
 5    1  0.2111786E+001  0.1586153E+01  0.7818608E-02  0.3368531E+00
         11   -1    0    0    0    0  0.00000000000E+00  0.00000000000E+00  0.39999999674E+01  0.40000000000E+01  0.51100000000E-03 0. -1.
    9000002   -1    0    0    0    0 -0.00000000000E+00 -0.00000000000E+00  0.00000000000E+00  0.93800000000E+00  0.93800000000E+00 0. -1.
         11    1    1    2    0    0 -0.97755594001E-01  0.29784606444E-01  0.12900694020E+01  0.12941107379E+01  0.51100000000E-03 0. -1.
    9000002    1    1    2    0    0 -0.80395925840E-01 -0.22288689477E+00  0.47607862693E-01  0.96863438992E+00  0.93800000000E+00 0. -1.
         22    1    1    2    0    0  0.17815151984E+00  0.19310228833E+00  0.26623227027E+01  0.26752548722E+01  0.00000000000E+00 0. -1.
</event>
<event>
 5    1  0.2111786E+001  0.1549160E+01  0.7818608E-02  0.3410462E+00
         11   -1    0    0    0    0  0.00000000000E+00  0.00000000000E+00  0.39999999674E+01  0.40000000000E+01  0.51100000000E-03 0. -1.
    9000002   -1    0    0    0    0 -0.00000000000E+00 -0.00000000000E+00  0.00000000000E+00  0.93800000000E+00  0.93800000000E+00 0. -1.
         11    1    1    2    0    0 -0.49971223153E-01 -0.27187959378E+00  0.26150012666E+01  0.26295717373E+01  0.51100000000E-03 0. -1.
    9000002    1    1    2    0    0 -0.47277682363E-01  0.43519811365E-01  0.40350149840E-01  0.94106391272E+00  0.93800000000E+00 0. -1.
         22    1    1    2    0    0  0.97248905516E-01  0.22835978242E+00  0.13446485510E+01  0.13673643499E+01  0.00000000000E+00 0. -1.
</event>
<event>
 5    1  0.2111786E+001  0.1509039E+01  0.7818608E-02  0.3458420E+00
         11   -1    0    0    0    0  0.00000000000E+00  0.00000000000E+00  0.39999999674E+01  0.40000000000E+01  0.51100000000E-03 0.  1.
    9000002   -1    0    0    0    0 -0.00000000000E+00 -0.00000000000E+00  0.00000000000E+00  0.93800000000E+00  0.93800000000E+00 0.  1.
         11    1    1    2    0    0 -0.39168146759E+00  0.27448430234E+00  0.19928832136E+01  0.20494730465E+01  0.51100000000E-03 0.  1.
    9000002    1    1    2    0    0  0.19867279394E+00 -0.11085116724E+00  0.10640185128E+00  0.97104284884E+00  0.93800000000E+00 0.  1.
         22    1    1    2    0    0  0.19300867365E+00 -0.16363313510E+00  0.19007149025E+01  0.19174841046E+01  0.00000000000E+00 0.  1.
</event>
<event>
 5    1  0.2111786E+001  0.1572578E+01  0.7818608E-02  0.3383675E+00
         11   -1    0    0    0    0  0.00000000000E+00  0.00000000000E+00  0.39999999674E+01  0.40000000000E+01  0.51100000000E-03 0. -1.
    9000002   -1    0    0    0    0 -0.00000000000E+00 -0.00000000000E+00  0.00000000000E+00  0.93800000000E+00  0.93800000000E+00 0. -1.
         11    1    1    2    0    0 -0.75155382512E-01 -0.82800151658E+00  0.21490906261E+01  0.23043058875E+01  0.51100000000E-03 0. -1.
    9000002    1    1    2    0    0 -0.49977567130E-01  0.99143232390E+00  0.84297422387E+00  0.16049564954E+01  0.93800000000E+00 0. -1.
         22    1    1    2    0    0  0.12513294964E+00 -0.16343080731E+00  0.10079351174E+01  0.10287376170E+01  0.00000000000E+00 0. -1.
</event>
<event>
 5    1  0.2111786E+001  0.1580351E+01  0.7818608E-02  0.3374970E+00
         11   -1    0    0    0    0  0.00000000000E+00  0.00000000000E+00  0.39999999674E+01  0.40000000000E+01  0.51100000000E-03 0.  1.
    9000002   -1    0    0    0    0 -0.00000000000E+00 -0.00000000000E+00  0.00000000000E+00  0.93800000000E+00  0.93800000000E+00 0.  1.
         11    1    1    2    0    0  0.51110206193E-01 -0.39542100829E-01  0.17076739240E+01  0.17088962294E+01  0.51100000000E-03 0.  1.
    9000002    1    1    2    0    0 -0.48630535427E-01 -0.28494172968E+00  0.70882999022E-01  0.98408593011E+00  0.93800000000E+00 0.  1.
         22    1    1    2    0    0 -0.24796707659E-02  0.32448383051E+00  0.22214430443E+01  0.22450178405E+01  0.00000000000E+00 0.  1.
</event>
<event>
 5    1  0.2111786E+001  0.1559934E+01  0.7818608E-02  0.3398031E+00
         11   -1    0    0    0    0  0.00000000000E+00  0.00000000000E+00  0.39999999674E+01  0.40000000000E+01  0.51100000000E-03 0.  1.
    9000002   -1    0    0    0    0 -0.00000000000E+00 -0.00000000000E+00  0.00000000000E+00  0.93800000000E+00  0.93800000000E+00 0.  1.
         11    1    1    2    0    0  0.23924873806E+00 -0.19577953528E-01  0.14595291587E+01  0.14791378844E+01  0.51100000000E-03 0.  1.
    9000002    1    1    2    0    0 -0.25718680117E-01 -0.22755879439E-01  0.30141709527E-01  0.93911224207E+00  0.93800000000E+00 0.  1.
         22    1    1    2    0    0 -0.21353005794E+00  0.42333832966E-01  0.25103290992E+01  0.25197498735E+01  0.00000000000E+00 0. -1.
</event>
<event>
 5    1  0.2111786E+001  0.1582764E+01  0.7818608E-02  0.3372285E+00
         11   -1    0    0    0    0  0.00000000000E+00  0.00000000000E+00  0.39999999674E+01  0.40000000000E+01  0.51100000000E-03 0. -1.
    9000002   -1    0    0    0    0 -0.00000000000E+00 -0.00000000000E+00  0.00000000000E+00  0.93800000000E+00  0.93800000000E+00 0. -1.
         11    1    1    2    0    0 -0.67449046711E-01 -0.28662646452E-01  0.24805893730E+01  0.24816717792E+01  0.51100000000E-03 0. -1.
    9000002    1    1    2    0    0 -0.13394817158E+00  0.21471898752E-01  0.24686976887E-01  0.94808048284E+00  0.93800000000E+00 0. -1.
         22    1    1    2    0    0  0.20139721830E+00  0.71907476998E-02  0.14947236175E+01  0.15082477379E+01  0.00000000000E+00 0.  1.
</event>
<event>
 5    1  0.2111786E+001  0.1581302E+01  0.7818608E-02  0.3373911E+00
         11   -1    0    0    0    0  0.00000000000E+00  0.00000000000E+00  0.39999999674E+01  0.40000000000E+01  0.51100000000E-03 0. -1.
    9000002   -1    0    0    0    0 -0.00000000000E+00 -0.00000000000E+00  0.00000000000E+00  0.93800000000E+00  0.93800000000E+00 0.  1.
         11    1    1    2    0    0  0.26153882277E+00 -0.38610089729E+00  0.17205748024E+01  0.17826537438E+01  0.51100000000E-03 0. -1.
    9000002    1    1    2    0    0 -0.51468678651E+00  0.46962162942E+00  0.36744110314E+00  0.12248689429E+01  0.93800000000E+00 0.  1.
         22    1    1    2    0    0  0.25314796374E+00 -0.83520732134E-01  0.19119840618E+01  0.19304773132E+01  0.00000000000E+00 0. -1.
</event>
<event>
 5    1  0.2111786E+001  0.1510567E+01  0.7818608E-02  0.3456543E+00
         11   -1    0    0    0    0  0.00000000000E+00  0.00000000000E+00  0.39999999674E+01  0.40000000000E+01  0.51100000000E-03 0. -1.
    9000002   -1    0    0    0    0 -0.00000000000E+00 -0.00000000000E+00  0.00000000000E+00  0.93800000000E+00  0.93800000000E+00 0.  1.
         11    1    1    2    0    0  0.13264590052E+00 -0.21367476687E+00  0.63055403350E+00  0.67885969921E+00  0.51100000000E-03 0. -1.
    9000002    1    1    2    0    0  0.13061434868E-01 -0.10083254606E+00  0.74957069456E-01  0.94646730830E+00  0.93800000000E+00 0.  1.
         22    1    1    2    0    0 -0.14570733539E+00  0.31450731294E+00  0.32944888644E+01  0.33126729925E+01  0.00000000000E+00 0. -1.
</event>
<event>
 5    1  0.2111786E+001  0.1562952E+01  0.7818608E-02  0.3394582E+00
         11   -1    0    0    0    0  0.00000000000E+00  0.00000000000E+00  0.39999999674E+01  0.40000000000E+01  0.51100000000E-03 0. -1.
    9000002   -1    0    0    0    0 -0.00000000000E+00 -0.00000000000E+00  0.00000000000E+00  0.93800000000E+00  0.93800000000E+00 0. -1.
         11    1    1    2    0    0  0.10550063714E+00 -0.75738089818E-01  0.53436437793E+00  0.54992016894E+00  0.51100000000E-03 0. -1.
    9000002    1    1    2    0    0  0.13540593738E+00 -0.16811612190E+00  0.59089159622E-01  0.96433050719E+00  0.93800000000E+00 0. -1.
         22    1    1    2    0    0 -0.24090657453E+00  0.24385421172E+00  0.34065464298E+01  0.34237493239E+01  0.00000000000E+00 0. -1.
</event>
<event>
 5    1  0.2111786E+001  0.1449556E+01  0.7818608E-02  0.3534799E+00
         11   -1    0    0    0    0  0.00000000000E+00  0.00000000000E+00  0.39999999674E+01  0.40000000000E+01  0.51100000000E-03 0.  1.
    9000002   -1    0    0    0    0 -0.00000000000E+00 -0.00000000000E+00  0.00000000000E+00  0.93800000000E+00  0.93800000000E+00 0. -1.
         11    1    1    2    0    0  0.68121214215E+00 -0.27095089588E+00  0.21249653089E+01  0.22478750400E+01  0.51100000000E-03 0.  1.
    9000002    1    1    2    0    0 -0.37650741033E+00  0.43762095064E+00  0.39533985305E+00  0.11702168713E+01  0.93800000000E+00 0. -1.
         22    1    1    2    0    0 -0.30470473182E+00 -0.16667005476E+00  0.14796948054E+01  0.15199080887E+01  0.00000000000E+00 0. -1.
</event>
<event>
 5    1  0.2111786E+001  0.1573208E+01  0.7818608E-02  0.3382966E+00
         11   -1    0    0    0    0  0.00000000000E+00  0.00000000000E+00  0.39999999674E+01  0.40000000000E+01  0.51100000000E-03 0.  1.
    9000002   -1    0    0    0    0 -0.00000000000E+00 -0.00000000000E+00  0.00000000000E+00  0.93800000000E+00  0.93800000000E+00 0.  1.
         11    1    1    2    0    0 -0.16400053796E+00  0.62337758020E-01  0.14174771493E+01  0.14282940532E+01  0.51100000000E-03 0.  1.
    9000002    1    1    2    0    0 -0.18890243518E-01  0.42783718826E-01  0.20885366761E-01  0.93939740602E+00  0.93800000000E+00 0.  1.
         22    1    1    2    0    0  0.18289078148E+00 -0.10512147685E+00  0.25616374513E+01  0.25703085408E+01  0.00000000000E+00 0.  1.
</event>
<event>
 5    1  0.2111786E+001  0.1588750E+01  0.7818608E-02  0.3365665E+00
         11   -1    0    0    0    0  0.00000000000E+00  0.00000000000E+00  0.39999999674E+01  0.40000000000E+01  0.51100000000E-03 0.  1.
    9000002   -1    0    0    0    0 -0.00000000000E+00 -0.00000000000E+00  0.00000000000E+00  0.93800000000E+00  0.93800000000E+00 0.  1.
         11    1    1    2    0    0 -0.78926185881E-01  0.12152359653E-01  0.31192991208E+00  0.32198999027E+00  0.51100000000E-03 0.  1.
    9000002    1    1    2    0    0  0.19235206323E+00  0.16081475146E+00  0.50160102753E-01  0.97222463270E+00  0.93800000000E+00 0.  1.
         22    1    1    2    0    0 -0.11342587735E+00 -0.17296711111E+00  0.36379099525E+01  0.36437853770E+01  0.00000000000E+00 0.  1.
</event>
<event>
 5    1  0.2111786E+001  0.1469193E+01  0.7818608E-02  0.3508844E+00
         11   -1    0    0    0    0  0.00000000000E+00  0.00000000000E+00  0.39999999674E+01  0.40000000000E+01  0.51100000000E-03 0.  1.
    9000002   -1    0    0    0    0 -0.00000000000E+00 -0.00000000000E+00  0.00000000000E+00  0.93800000000E+00  0.93800000000E+00 0. -1.
         11    1    1    2    0    0 -0.17557243179E+00 -0.10871264931E+00  0.19069176795E+00  0.28108313790E+00  0.51100000000E-03 0.  1.
    9000002    1    1    2    0    0 -0.32258428068E-01  0.64668941509E-01  0.10511219172E+00  0.94663364140E+00  0.93800000000E+00 0. -1.
         22    1    1    2    0    0  0.20783085985E+00  0.44043707805E-01  0.37041960077E+01  0.37102832207E+01  0.00000000000E+00 0.  1.
</event>
<event>
 5    1  0.2111786E+001  0.1589684E+01  0.7818608E-02  0.3364637E+00
         11   -1    0    0    0    0  0.00000000000E+00  0.00000000000E+00  0.39999999674E+01  0.40000000000E+01  0.51100000000E-03 0.  1.
    9000002   -1    0    0    0    0 -0.00000000000E+00 -0.00000000000E+00  0.00000000000E+00  0.93800000000E+00  0.93800000000E+00 0.  1.
         11    1    1    2    0    0  0.52534647764E-01 -0.59822447853E-01  0.10067787695E+01  0.10099219605E+01  0.51100000000E-03 0.  1.
    9000002    1    1    2    0    0 -0.99059545133E-01 -0.16240742595E+00  0.31445623779E-01  0.95761254834E+00  0.93800000000E+00 0.  1.
         22    1    1    2    0    0  0.46524897369E-01  0.22222987380E+00  0.29617755740E+01  0.29704654911E+01  0.00000000000E+00 0.  1.
</event>
<event>
 5    1  0.2111786E+001  0.1567716E+01  0.7818608E-02  0.3389167E+00
         11   -1    0    0    0    0  0.00000000000E+00  0.00000000000E+00  0.39999999674E+01  0.40000000000E+01  0.51100000000E-03 0.  1.
    9000002   -1    0    0    0    0 -0.00000000000E+00 -0.00000000000E+00  0.00000000000E+00  0.93800000000E+00  0.93800000000E+00 0. -1.
         11    1    1    2    0    0 -0.17150892123E-01 -0.20654274481E+00  0.14508486633E+01  0.14655770753E+01  0.51100000000E-03 0.  1.
    9000002    1    1    2    0    0 -0.62232877738E-01  0.87465590667E-02  0.26182090507E-01  0.94046740253E+00  0.93800000000E+00 0. -1.
         22    1    1    2    0    0  0.79383769861E-01  0.19779618575E+00  0.25229692135E+01  0.25319555222E+01  0.00000000000E+00 0.  1.
</event>
<event>
 5    1  0.2221882E+001  0.1561519E+01  0.7818608E-02  0.3396219E+00
         11   -1    0    0    0    0  0.00000000000E+00  0.00000000000E+00  0.39999999674E+01  0.40000000000E+01  0.51100000000E-03 0. -1.
    9000002   -1    0    0    0    0 -0.00000000000E+00 -0.00000000000E+00  0.00000000000E+00  0.93800000000E+00  0.93800000000E+00 0. -1.
         11    1    1    2    0    0 -0.20107210613E+00  0.13693966087E+00  0.22630854392E+01  0.22761235531E+01  0.51100000000E-03 0. -1.
    9000002    1    1    2    0    0  0.28794403293E-01  0.83138783058E-02  0.28756562681E-01  0.93891915420E+00  0.93800000000E+00 0. -1.
         22    1    1    2    0    0  0.17227770284E+00 -0.14525353918E+00  0.17081579655E+01  0.17229572927E+01  0.00000000000E+00 0. -1.
</event>
<event>
 5    1  0.2111786E+001  0.1546230E+01  0.7818608E-02  0.3413874E+00
         11   -1    0    0    0    0  0.00000000000E+00  0.00000000000E+00  0.39999999674E+01  0.40000000000E+01  0.51100000000E-03 0.  1.
    9000002   -1    0    0    0    0 -0.00000000000E+00 -0.00000000000E+00  0.00000000000E+00  0.93800000000E+00  0.93800000000E+00 0. -1.
         11    1    1    2    0    0 -0.20137905836E+00  0.18710661014E+00  0.12869225045E+01  0.13159529636E+01  0.51100000000E-03 0.  1.
    9000002    1    1    2    0    0  0.99071514096E-01  0.36619910042E-01  0.47479914197E-01  0.94512143398E+00  0.93800000000E+00 0. -1.
         22    1    1    2    0    0  0.10230754426E+00 -0.22372652018E+00  0.26655975487E+01  0.26769256024E+01  0.00000000000E+00 0.  1.
</event>
<event>
 5    1  0.2111786E+001  0.1552922E+01  0.7818608E-02  0.3406101E+00
         11   -1    0    0    0    0  0.00000000000E+00  0.00000000000E+00  0.39999999674E+01  0.40000000000E+01  0.51100000000E-03 0.  1.
    9000002   -1    0    0    0    0 -0.00000000000E+00 -0.00000000000E+00  0.00000000000E+00  0.93800000000E+00  0.93800000000E+00 0. -1.
         11    1    1    2    0    0  0.13005586226E+00 -0.26665841633E+00  0.31523333274E+01  0.31662638719E+01  0.51100000000E-03 0.  1.
    9000002    1    1    2    0    0 -0.19009327506E+00  0.74005365242E-01  0.63501275766E-01  0.96202321143E+00  0.93800000000E+00 0. -1.
         22    1    1    2    0    0  0.60037412799E-01  0.19265305109E+00  0.78416536419E+00  0.80971291667E+00  0.00000000000E+00 0.  1.
</event>
<event>
 5    1  0.2111786E+001  0.1558501E+01  0.7818608E-02  0.3399675E+00
         11   -1    0    0    0    0  0.00000000000E+00  0.00000000000E+00  0.39999999674E+01  0.40000000000E+01  0.51100000000E-03 0. -1.
    9000002   -1    0    0    0    0 -0.00000000000E+00 -0.00000000000E+00  0.00000000000E+00  0.93800000000E+00  0.93800000000E+00 0. -1.
         11    1    1    2    0    0 -0.17576979729E+00  0.11435925397E+00  0.10701371583E+01  0.10904892752E+01  0.51100000000E-03 0. -1.
    9000002    1    1    2    0    0 -0.22784548718E-01  0.14927958545E-01  0.30923457591E-01  0.93890480872E+00  0.93800000000E+00 0. -1.
         22    1    1    2    0    0  0.19855434600E+00 -0.12928721251E+00  0.28989393515E+01  0.29086059161E+01  0.00000000000E+00 0. -1.
</event>
<event>
 5    1  0.2111786E+001  0.1488778E+01  0.7818608E-02  0.3483695E+00
         11   -1    0    0    0    0  0.00000000000E+00  0.00000000000E+00  0.39999999674E+01  0.40000000000E+01  0.51100000000E-03 0.  1.
    9000002   -1    0    0    0    0 -0.00000000000E+00 -0.00000000000E+00  0.00000000000E+00  0.93800000000E+00  0.93800000000E+00 0. -1.
         11    1    1    2    0    0 -0.95759345231E-01 -0.26085196173E+00  0.42127902364E+00  0.50466808401E+00  0.51100000000E-03 0.  1.
    9000002    1    1    2    0    0  0.24088093908E+00  0.91547041462E-01  0.13462488815E+00  0.98202461686E+00  0.93800000000E+00 0. -1.
         22    1    1    2    0    0 -0.14512159385E+00  0.16930492027E+00  0.34440960556E+01  0.34513072991E+01  0.00000000000E+00 0.  1.
</event>
<event>
 5    1  0.2111786E+001  0.1512620E+01  0.7818608E-02  0.3454029E+00
         11   -1    0    0    0    0  0.00000000000E+00  0.00000000000E+00  0.39999999674E+01  0.40000000000E+01  0.51100000000E-03 0.  1.
    9000002   -1    0    0    0    0 -0.00000000000E+00 -0.00000000000E+00  0.00000000000E+00  0.93800000000E+00  0.93800000000E+00 0.  1.
         11    1    1    2    0    0 -0.30411194290E+00  0.44107244374E-01  0.13113292910E+01  0.13468534788E+01  0.51100000000E-03 0.  1.
    9000002    1    1    2    0    0 -0.48817873453E-01  0.16369582157E+00  0.86947071971E-01  0.95738356999E+00  0.93800000000E+00 0.  1.
         22    1    1    2    0    0  0.35292981635E+00 -0.20780306594E+00  0.26017236044E+01  0.26337629512E+01  0.00000000000E+00 0.  1.
</event>
<event>
 5    1  0.2111786E+001  0.1529161E+01  0.7818608E-02  0.3434030E+00
         11   -1    0    0    0    0  0.00000000000E+00  0.00000000000E+00  0.39999999674E+01  0.40000000000E+01  0.51100000000E-03 0.  1.
    9000002   -1    0    0    0    0 -0.00000000000E+00 -0.00000000000E+00  0.00000000000E+00  0.93800000000E+00  0.93800000000E+00 0.  1.
         11    1    1    2    0    0 -0.11673658228E+00  0.19105459221E+00  0.33261120190E+01  0.33336392593E+01  0.51100000000E-03 0.  1.
    9000002    1    1    2    0    0  0.10681943380E+00  0.49555284477E-01  0.62696932143E-01  0.94743919222E+00  0.93800000000E+00 0.  1.
         22    1    1    2    0    0  0.99171484812E-02 -0.24060987669E+00  0.61119101618E+00  0.65692154848E+00  0.00000000000E+00 0.  1.
</event>
<event>
 5    1  0.2111786E+001  0.1557083E+01  0.7818608E-02  0.3401304E+00
         11   -1    0    0    0    0  0.00000000000E+00  0.00000000000E+00  0.39999999674E+01  0.40000000000E+01  0.51100000000E-03 0.  1.
    9000002   -1    0    0    0    0 -0.00000000000E+00 -0.00000000000E+00  0.00000000000E+00  0.93800000000E+00  0.93800000000E+00 0. -1.
         11    1    1    2    0    0  0.24468029304E+00 -0.79111413820E-01  0.21105708913E+01  0.21261789224E+01  0.51100000000E-03 0.  1.
    9000002    1    1    2    0    0 -0.24999649991E-01 -0.18131215965E-01  0.32139561710E-01  0.93905839803E+00  0.93800000000E+00 0. -1.
         22    1    1    2    0    0 -0.21968064305E+00  0.97242629785E-01  0.18572895143E+01  0.18727626796E+01  0.00000000000E+00 0. -1.
</event>
<event>
 5    1  0.2111786E+001  0.1473191E+01  0.7818608E-02  0.3503651E+00
         11   -1    0    0    0    0  0.00000000000E+00  0.00000000000E+00  0.39999999674E+01  0.40000000000E+01  0.51100000000E-03 0. -1.
    9000002   -1    0    0    0    0 -0.00000000000E+00 -0.00000000000E+00  0.00000000000E+00  0.93800000000E+00  0.93800000000E+00 0.  1.
         11    1    1    2    0    0  0.27454367157E+00  0.10959287008E+00  0.25347044815E+00  0.38939999226E+00  0.51100000000E-03 0. -1.
    9000002    1    1    2    0    0 -0.27315199268E+00  0.16729859560E+00  0.22525685950E+00  0.10164573203E+01  0.93800000000E+00 0.  1.
         22    1    1    2    0    0 -0.13916788872E-02 -0.27689146567E+00  0.35212726597E+01  0.35321426875E+01  0.00000000000E+00 0. -1.
</event>
<event>
 5    1  0.2111786E+001  0.1578868E+01  0.7818608E-02  0.3376623E+00
         11   -1    0    0    0    0  0.00000000000E+00  0.00000000000E+00  0.39999999674E+01  0.40000000000E+01  0.51100000000E-03 0. -1.
    9000002   -1    0    0    0    0 -0.00000000000E+00 -0.00000000000E+00  0.00000000000E+00  0.93800000000E+00  0.93800000000E+00 0. -1.
         11    1    1    2    0    0  0.44144407256E-01 -0.12552535785E+00  0.10104469077E+01  0.10191705248E+01  0.51100000000E-03 0. -1.
    9000002    1    1    2    0    0  0.30570089552E+00  0.14112504718E+00  0.92718505399E-01  0.10009046097E+01  0.93800000000E+00 0. -1.
         22    1    1    2    0    0 -0.34984530277E+00 -0.15599689333E-01  0.28968345542E+01  0.29179248655E+01  0.00000000000E+00 0. -1.
</event>
<event>
 5    1  0.2111786E+001  0.1570690E+01  0.7818608E-02  0.3385803E+00
         11   -1    0    0    0    0  0.00000000000E+00  0.00000000000E+00  0.39999999674E+01  0.40000000000E+01  0.51100000000E-03 0. -1.
    9000002   -1    0    0    0    0 -0.00000000000E+00 -0.00000000000E+00  0.00000000000E+00  0.93800000000E+00  0.93800000000E+00 0.  1.
         11    1    1    2    0    0 -0.33230686249E+00  0.18823883650E+00  0.16092379319E+01  0.16539373304E+01  0.51100000000E-03 0. -1.
    9000002    1    1    2    0    0  0.30173011726E+00 -0.47523928382E+00  0.24769368869E+00  0.11216459352E+01  0.93800000000E+00 0.  1.
         22    1    1    2    0    0  0.30576745231E-01  0.28700044731E+00  0.21430683468E+01  0.21624167344E+01  0.00000000000E+00 0. -1.
</event>
<event>
 5    1  0.2111786E+001  0.1529406E+01  0.7818608E-02  0.3433737E+00
         11   -1    0    0    0    0  0.00000000000E+00  0.00000000000E+00  0.39999999674E+01  0.40000000000E+01  0.51100000000E-03 0.  1.
    9000002   -1    0    0    0    0 -0.00000000000E+00 -0.00000000000E+00  0.00000000000E+00  0.93800000000E+00  0.93800000000E+00 0.  1.
         11    1    1    2    0    0 -0.33408100694E+00 -0.51918230965E-01  0.12710915717E+01  0.13152869142E+01  0.51100000000E-03 0.  1.
    9000002    1    1    2    0    0  0.14320686483E+00 -0.98188191653E-01  0.74085545856E-01  0.95680812874E+00  0.93800000000E+00 0.  1.
         22    1    1    2    0    0  0.19087414210E+00  0.15010642262E+00  0.26548228498E+01  0.26659049571E+01  0.00000000000E+00 0.  1.
</event>
<event>
 5    1  0.2111786E+001  0.1526363E+01  0.7818608E-02  0.3437381E+00
         11   -1    0    0    0    0  0.00000000000E+00  0.00000000000E+00  0.39999999674E+01  0.40000000000E+01  0.51100000000E-03 0. -1.
    9000002   -1    0    0    0    0 -0.00000000000E+00 -0.00000000000E+00  0.00000000000E+00  0.93800000000E+00  0.93800000000E+00 0.  1.
         11    1    1    2    0    0 -0.29870047431E+00  0.76848712823E-01  0.10735050659E+01  0.11169337875E+01  0.51100000000E-03 0. -1.
    9000002    1    1    2    0    0  0.56984328523E-01 -0.28734098005E-01  0.57949532157E-01  0.94195276440E+00  0.93800000000E+00 0.  1.
         22    1    1    2    0    0  0.24171614579E+00 -0.48114614817E-01  0.28685453693E+01  0.28791134481E+01  0.00000000000E+00 0. -1.
</event>
<event>
 5    1  0.2111786E+001  0.1553330E+01  0.7818608E-02  0.3405629E+00
         11   -1    0    0    0    0  0.00000000000E+00  0.00000000000E+00  0.39999999674E+01  0.40000000000E+01  0.51100000000E-03 0. -1.
    9000002   -1    0    0    0    0 -0.00000000000E+00 -0.00000000000E+00  0.00000000000E+00  0.93800000000E+00  0.93800000000E+00 0. -1.
         11    1    1    2    0    0  0.16675242353E+00  0.28720030409E-01  0.56716879134E+00  0.59187153157E+00  0.51100000000E-03 0. -1.
    9000002    1    1    2    0    0  0.91163651306E-01  0.19620224020E-01  0.40321921096E-01  0.94348588852E+00  0.93800000000E+00 0. -1.
         22    1    1    2    0    0 -0.25791607483E+00 -0.48340254428E-01  0.33925092549E+01  0.34026425799E+01  0.00000000000E+00 0. -1.
</event>
<event>
 5    1  0.2111786E+001  0.1486657E+01  0.7818608E-02  0.3486384E+00
         11   -1    0    0    0    0  0.00000000000E+00  0.00000000000E+00  0.39999999674E+01  0.40000000000E+01  0.51100000000E-03 0.  1.
    9000002   -1    0    0    0    0 -0.00000000000E+00 -0.00000000000E+00  0.00000000000E+00  0.93800000000E+00  0.93800000000E+00 0. -1.
         11    1    1    2    0    0 -0.19603145149E+00  0.37966746682E+00  0.12615360439E+01  0.13319343702E+01  0.51100000000E-03 0.  1.
    9000002    1    1    2    0    0  0.32368443883E-02 -0.16163641764E+00  0.10617297737E+00  0.95773352755E+00  0.93800000000E+00 0. -1.
         22    1    1    2    0    0  0.19279460710E+00 -0.21803104918E+00  0.26322909461E+01  0.26483321022E+01  0.00000000000E+00 0.  1.
</event>
<event>
 5    1  0.2111786E+001  0.1458342E+01  0.7818608E-02  0.3523092E+00
         11   -1    0    0    0    0  0.00000000000E+00  0.00000000000E+00  0.39999999674E+01  0.40000000000E+01  0.51100000000E-03 0.  1.
    9000002   -1    0    0    0    0 -0.00000000000E+00 -0.00000000000E+00  0.00000000000E+00  0.93800000000E+00  0.93800000000E+00 0. -1.
         11    1    1    2    0    0  0.11152861708E+00 -0.47762811722E+00  0.12515121381E+01  0.13441912601E+01  0.51100000000E-03 0.  1.
    9000002    1    1    2    0    0  0.92218884203E-01  0.22755460155E+00  0.15689019156E+00  0.98221380132E+00  0.93800000000E+00 0. -1.
         22    1    1    2    0    0 -0.20374750129E+00  0.25007351568E+00  0.25915976377E+01  0.26115949386E+01  0.00000000000E+00 0.  1.
</event>
<event>
 5    1  0.2111786E+001  0.1519322E+01  0.7818608E-02  0.3445870E+00
         11   -1    0    0    0    0  0.00000000000E+00  0.00000000000E+00  0.39999999674E+01  0.40000000000E+01  0.51100000000E-03 0. -1.
    9000002   -1    0    0    0    0 -0.00000000000E+00 -0.00000000000E+00  0.00000000000E+00  0.93800000000E+00  0.93800000000E+00 0.  1.
         11    1    1    2    0    0 -0.75163661208E-01 -0.33466800395E+00  0.20971700458E+01  0.21250352259E+01  0.51100000000E-03 0. -1.
    9000002    1    1    2    0    0 -0.73743037432E-01  0.26523900205E-01  0.64965635969E-01  0.94350733262E+00  0.93800000000E+00 0.  1.
         22    1    1    2    0    0  0.14890669864E+00  0.30814410374E+00  0.18378642856E+01  0.18694574415E+01  0.00000000000E+00 0. -1.
</event>
<event>
 5    1  0.2111786E+001  0.1578167E+01  0.7818608E-02  0.3377406E+00
         11   -1    0    0    0    0  0.00000000000E+00  0.00000000000E+00  0.39999999674E+01  0.40000000000E+01  0.51100000000E-03 0.  1.
    9000002   -1    0    0    0    0 -0.00000000000E+00 -0.00000000000E+00  0.00000000000E+00  0.93800000000E+00  0.93800000000E+00 0. -1.
         11    1    1    2    0    0 -0.13624898076E+00 -0.27429580542E-01  0.22655556327E+01  0.22698146956E+01  0.51100000000E-03 0.  1.
    9000002    1    1    2    0    0 -0.66822515132E-01  0.23487208413E-01  0.19106561312E-01  0.94086447386E+00  0.93800000000E+00 0. -1.
         22    1    1    2    0    0  0.20307149589E+00  0.39423721294E-02  0.17153377734E+01  0.17273208305E+01  0.00000000000E+00 0.  1.
</event>
<event>
 5    1  0.2111786E+001  0.1489485E+01  0.7818608E-02  0.3482801E+00
         11   -1    0    0    0    0  0.00000000000E+00  0.00000000000E+00  0.39999999674E+01  0.40000000000E+01  0.51100000000E-03 0. -1.
    9000002   -1    0    0    0    0 -0.00000000000E+00 -0.00000000000E+00  0.00000000000E+00  0.93800000000E+00  0.93800000000E+00 0. -1.
         11    1    1    2    0    0  0.36203716324E+00  0.16297882412E-01  0.24547916526E+01  0.24813985668E+01  0.51100000000E-03 0. -1.
    9000002    1    1    2    0    0  0.35531369083E-01  0.46467858479E-01  0.86971900637E-01  0.94383783118E+00  0.93800000000E+00 0. -1.
         22    1    1    2    0    0 -0.39756853232E+00 -0.62765740891E-01  0.14582364141E+01  0.15127636020E+01  0.00000000000E+00 0. -1.
</event>
<event>
 5    1  0.2111786E+001  0.1516551E+01  0.7818608E-02  0.3449233E+00
         11   -1    0    0    0    0  0.00000000000E+00  0.00000000000E+00  0.39999999674E+01  0.40000000000E+01  0.51100000000E-03 0.  1.
    9000002   -1    0    0    0    0 -0.00000000000E+00 -0.00000000000E+00  0.00000000000E+00  0.93800000000E+00  0.93800000000E+00 0. -1.
         11    1    1    2    0    0  0.27457160513E+00 -0.27352203443E-01  0.18736795439E+01  0.18938883293E+01  0.51100000000E-03 0.  1.
    9000002    1    1    2    0    0  0.93101926296E-01 -0.22467325198E+00  0.10553379461E+00  0.97474479770E+00  0.93800000000E+00 0. -1.
         22    1    1    2    0    0 -0.36767353142E+00  0.25202545542E+00  0.20207866289E+01  0.20693668730E+01  0.00000000000E+00 0.  1.
</event>
<event>
 5    1  0.2111786E+001  0.1537813E+01  0.7818608E-02  0.3423754E+00
         11   -1    0    0    0    0  0.00000000000E+00  0.00000000000E+00  0.39999999674E+01  0.40000000000E+01  0.51100000000E-03 0. -1.
    9000002   -1    0    0    0    0 -0.00000000000E+00 -0.00000000000E+00  0.00000000000E+00  0.93800000000E+00  0.93800000000E+00 0.  1.
         11    1    1    2    0    0  0.43247126399E-01 -0.22181487760E+00  0.21950660065E+01  0.22066687988E+01  0.51100000000E-03 0. -1.
    9000002    1    1    2    0    0 -0.17547520960E+00 -0.12623877323E+00  0.79142943722E-01  0.96583403470E+00  0.93800000000E+00 0.  1.
         22    1    1    2    0    0  0.13222808321E+00  0.34805365083E+00  0.17257910172E+01  0.17654971665E+01  0.00000000000E+00 0. -1.
</event>
<event>
 5    1  0.2111786E+001  0.1588135E+01  0.7818608E-02  0.3366343E+00
         11   -1    0    0    0    0  0.00000000000E+00  0.00000000000E+00  0.39999999674E+01  0.40000000000E+01  0.51100000000E-03 0.  1.
    9000002   -1    0    0    0    0 -0.00000000000E+00 -0.00000000000E+00  0.00000000000E+00  0.93800000000E+00  0.93800000000E+00 0.  1.
         11    1    1    2    0    0 -0.12568529206E+00  0.31596847178E-01  0.47887859584E+00  0.49610495267E+00  0.51100000000E-03 0.  1.
    9000002    1    1    2    0    0  0.32094404133E+00 -0.24176414722E+00  0.11860896433E+00  0.10273105991E+01  0.93800000000E+00 0.  1.
         22    1    1    2    0    0 -0.19525874927E+00  0.21016730004E+00  0.34025124072E+01  0.34145844483E+01  0.00000000000E+00 0.  1.
</event>
<event>
 5    1  0.2111786E+001  0.1599363E+01  0.7818608E-02  0.3354055E+00
         11   -1    0    0    0    0  0.00000000000E+00  0.00000000000E+00  0.39999999674E+01  0.40000000000E+01  0.51100000000E-03 0.  1.
    9000002   -1    0    0    0    0 -0.00000000000E+00 -0.00000000000E+00  0.00000000000E+00  0.93800000000E+00  0.93800000000E+00 0. -1.
         11    1    1    2    0    0  0.16955629713E+00  0.30651347800E+00  0.22666504133E+01  0.22935571079E+01  0.51100000000E-03 0.  1.
    9000002    1    1    2    0    0 -0.26994515877E+00 -0.47995177368E+00  0.20975983777E+00  0.11077306908E+01  0.93800000000E+00 0. -1.
         22    1    1    2    0    0  0.10038886164E+00  0.17343829568E+00  0.15235897163E+01  0.15367122013E+01  0.00000000000E+00 0. -1.
</event>
<event>
 5    1  0.2111786E+001  0.1577832E+01  0.7818608E-02  0.3377781E+00
         11   -1    0    0    0    0  0.00000000000E+00  0.00000000000E+00  0.39999999674E+01  0.40000000000E+01  0.51100000000E-03 0. -1.
    9000002   -1    0    0    0    0 -0.00000000000E+00 -0.00000000000E+00  0.00000000000E+00  0.93800000000E+00  0.93800000000E+00 0.  1.
         11    1    1    2    0    0  0.68995913153E-01  0.71764829490E-01  0.10397185580E+01  0.10444738234E+01  0.51100000000E-03 0. -1.
    9000002    1    1    2    0    0  0.19891168271E+00  0.10360089491E+00  0.50054562115E-01  0.96573726351E+00  0.93800000000E+00 0.  1.
         22    1    1    2    0    0 -0.26790759587E+00 -0.17536572440E+00  0.29102268473E+01  0.29277889131E+01  0.00000000000E+00 0. -1.
</event>
<event>
 5    1  0.2111786E+001  0.1554008E+01  0.7818608E-02  0.3404846E+00
         11   -1    0    0    0    0  0.00000000000E+00  0.00000000000E+00  0.39999999674E+01  0.40000000000E+01  0.51100000000E-03 0.  1.
    9000002   -1    0    0    0    0 -0.00000000000E+00 -0.00000000000E+00  0.00000000000E+00  0.93800000000E+00  0.93800000000E+00 0. -1.
         11    1    1    2    0    0 -0.10903984804E+00 -0.24609429841E+00  0.27628949861E+01  0.27759756947E+01  0.51100000000E-03 0.  1.
    9000002    1    1    2    0    0 -0.10285203861E-01  0.57460899022E-01  0.36156841753E-01  0.94050989231E+00  0.93800000000E+00 0. -1.
         22    1    1    2    0    0  0.11932505190E+00  0.18863339939E+00  0.12009481395E+01  0.12215144130E+01  0.00000000000E+00 0. -1.
</event>
<event>
 5    1  0.2111786E+001  0.1563819E+01  0.7818608E-02  0.3393594E+00
         11   -1    0    0    0    0  0.00000000000E+00  0.00000000000E+00  0.39999999674E+01  0.40000000000E+01  0.51100000000E-03 0. -1.
    9000002   -1    0    0    0    0 -0.00000000000E+00 -0.00000000000E+00  0.00000000000E+00  0.93800000000E+00  0.93800000000E+00 0.  1.
         11    1    1    2    0    0  0.85672850699E-01 -0.13239248530E+00  0.20068862728E+01  0.20130723735E+01  0.51100000000E-03 0. -1.
    9000002    1    1    2    0    0  0.52347372745E-01 -0.13035634689E+00  0.39906074240E-01  0.94929948876E+00  0.93800000000E+00 0.  1.
         22    1    1    2    0    0 -0.13802022344E+00  0.26274883218E+00  0.19532076203E+01  0.19756281378E+01  0.00000000000E+00 0. -1.
</event>
<event>
 5    1  0.2111786E+001  0.1547624E+01  0.7818608E-02  0.3412249E+00
         11   -1    0    0    0    0  0.00000000000E+00  0.00000000000E+00  0.39999999674E+01  0.40000000000E+01  0.51100000000E-03 0.  1.
    9000002   -1    0    0    0    0 -0.00000000000E+00 -0.00000000000E+00  0.00000000000E+00  0.93800000000E+00  0.93800000000E+00 0. -1.
         11    1    1    2    0    0 -0.74130587266E-01  0.18740505603E+00  0.31253328612E+01  0.31318240297E+01  0.51100000000E-03 0.  1.
    9000002    1    1    2    0    0 -0.11465630270E+00 -0.44015834797E-01  0.49137576787E-01  0.94728135362E+00  0.93800000000E+00 0. -1.
         22    1    1    2    0    0  0.18878688997E+00 -0.14338922123E+00  0.82552952941E+00  0.85889461665E+00  0.00000000000E+00 0. -1.
</event>
<event>
 5    1  0.2111786E+001  0.1561728E+01  0.7818608E-02  0.3395980E+00
         11   -1    0    0    0    0  0.00000000000E+00  0.00000000000E+00  0.39999999674E+01  0.40000000000E+01  0.51100000000E-03 0.  1.
    9000002   -1    0    0    0    0 -0.00000000000E+00 -0.00000000000E+00  0.00000000000E+00  0.93800000000E+00  0.93800000000E+00 0. -1.
         11    1    1    2    0    0  0.30708253531E+00  0.71569795696E-01  0.33395028280E+01  0.33543555743E+01  0.51100000000E-03 0.  1.
    9000002    1    1    2    0    0 -0.38510635471E+00 -0.26063248043E+00  0.18116193147E+00  0.10624969834E+01  0.93800000000E+00 0. -1.
         22    1    1    2    0    0  0.78023819402E-01  0.18906268474E+00  0.47933520785E+00  0.52114744232E+00  0.00000000000E+00 0.  1.
</event>
<event>
 5    1  0.2111786E+001  0.1555003E+01  0.7818608E-02  0.3403698E+00
         11   -1    0    0    0    0  0.00000000000E+00  0.00000000000E+00  0.39999999674E+01  0.40000000000E+01  0.51100000000E-03 0.  1.
    9000002   -1    0    0    0    0 -0.00000000000E+00 -0.00000000000E+00  0.00000000000E+00  0.93800000000E+00  0.93800000000E+00 0. -1.
         11    1    1    2    0    0  0.17141917427E+00 -0.13115658811E-01  0.58911700118E+00  0.61369019547E+00  0.51100000000E-03 0.  1.
    9000002    1    1    2    0    0  0.60651577882E-01 -0.73880709267E-01  0.39348877159E-01  0.94367860378E+00  0.93800000000E+00 0. -1.
         22    1    1    2    0    0 -0.23207075215E+00  0.86996368078E-01  0.33715340890E+01  0.33806312008E+01  0.00000000000E+00 0.  1.
</event>
<event>
 5    1  0.2111786E+001  0.1580415E+01  0.7818608E-02  0.3374898E+00
         11   -1    0    0    0    0  0.00000000000E+00  0.00000000000E+00  0.39999999674E+01  0.40000000000E+01  0.51100000000E-03 0.  1.
    9000002   -1    0    0    0    0 -0.00000000000E+00 -0.00000000000E+00  0.00000000000E+00  0.93800000000E+00  0.93800000000E+00 0.  1.
         11    1    1    2    0    0  0.24409323914E+00  0.17542529089E+00  0.11869399460E+01  0.12244109762E+01  0.51100000000E-03 0.  1.
    9000002    1    1    2    0    0 -0.45133991214E+00 -0.18845129109E+00  0.18085706819E+00  0.10732077546E+01  0.93800000000E+00 0.  1.
         22    1    1    2    0    0  0.20724667300E+00  0.13026000204E-01  0.26322029532E+01  0.26403812692E+01  0.00000000000E+00 0.  1.
</event>
<event>
 5    1  0.2111786E+001  0.1449394E+01  0.7818608E-02  0.3535017E+00
         11   -1    0    0    0    0  0.00000000000E+00  0.00000000000E+00  0.39999999674E+01  0.40000000000E+01  0.51100000000E-03 0. -1.
    9000002   -1    0    0    0    0 -0.00000000000E+00 -0.00000000000E+00  0.00000000000E+00  0.93800000000E+00  0.93800000000E+00 0. -1.
         11    1    1    2    0    0  0.27862958465E+00  0.39500578691E+00  0.19482062209E+01  0.20072796909E+01  0.51100000000E-03 0. -1.
    9000002    1    1    2    0    0 -0.68187644720E-01  0.45879722366E-02  0.12150385838E+00  0.94830258461E+00  0.93800000000E+00 0. -1.
         22    1    1    2    0    0 -0.21044193993E+00 -0.39959375914E+00  0.19302898881E+01  0.19824177245E+01  0.00000000000E+00 0. -1.
</event>
<event>
 5    1  0.2111786E+001  0.1526296E+01  0.7818608E-02  0.3437461E+00
         11   -1    0    0    0    0  0.00000000000E+00  0.00000000000E+00  0.39999999674E+01  0.40000000000E+01  0.51100000000E-03 0.  1.
    9000002   -1    0    0    0    0 -0.00000000000E+00 -0.00000000000E+00  0.00000000000E+00  0.93800000000E+00  0.93800000000E+00 0. -1.
         11    1    1    2    0    0  0.17746165219E+00  0.23323327698E+00  0.15245549826E+01  0.15524685361E+01  0.51100000000E-03 0.  1.
    9000002    1    1    2    0    0 -0.41289458687E-01  0.10401158193E+00  0.64003937579E-01  0.94681768710E+00  0.93800000000E+00 0. -1.
         22    1    1    2    0    0 -0.13617219350E+00 -0.33724485891E+00  0.24114410471E+01  0.24387137768E+01  0.00000000000E+00 0.  1.
</event>
<event>
 5    1  0.2111786E+001  0.1580853E+01  0.7818608E-02  0.3374410E+00
         11   -1    0    0    0    0  0.00000000000E+00  0.00000000000E+00  0.39999999674E+01  0.40000000000E+01  0.51100000000E-03 0. -1.
    9000002   -1    0    0    0    0 -0.00000000000E+00 -0.00000000000E+00  0.00000000000E+00  0.93800000000E+00  0.93800000000E+00 0. -1.
         11    1    1    2    0    0  0.54831884238E-01  0.46302340793E-01  0.19142784934E+01  0.19156233591E+01  0.51100000000E-03 0. -1.
    9000002    1    1    2    0    0  0.20228133269E+00  0.34654776590E-01  0.42160297105E-01  0.96111403160E+00  0.93800000000E+00 0. -1.
         22    1    1    2    0    0 -0.25711321692E+00 -0.80957117384E-01  0.20435611768E+01  0.20612626093E+01  0.00000000000E+00 0. -1.
</event>
<event>
 5    1  0.2111786E+001  0.1573491E+01  0.7818608E-02  0.3382647E+00
         11   -1    0    0    0    0  0.00000000000E+00  0.00000000000E+00  0.39999999674E+01  0.40000000000E+01  0.51100000000E-03 0. -1.
    9000002   -1    0    0    0    0 -0.00000000000E+00 -0.00000000000E+00  0.00000000000E+00  0.93800000000E+00  0.93800000000E+00 0.  1.
         11    1    1    2    0    0 -0.62440706008E-01  0.20799170709E+00  0.80848375286E+00  0.83714134514E+00  0.51100000000E-03 0. -1.
    9000002    1    1    2    0    0  0.30297586124E+00 -0.23268400642E+00  0.12005994926E+00  0.10198993140E+01  0.93800000000E+00 0.  1.
         22    1    1    2    0    0 -0.24053515524E+00  0.24692299321E-01  0.30714562652E+01  0.30809593408E+01  0.00000000000E+00 0. -1.
</event>
<event>
 5    1  0.2111786E+001  0.1289718E+01  0.7818608E-02  0.3801798E+00
         11   -1    0    0    0    0  0.00000000000E+00  0.00000000000E+00  0.39999999674E+01  0.40000000000E+01  0.51100000000E-03 0. -1.
    9000002   -1    0    0    0    0 -0.00000000000E+00 -0.00000000000E+00  0.00000000000E+00  0.93800000000E+00  0.93800000000E+00 0. -1.
         11    1    1    2    0    0 -0.51148552052E+00 -0.48933285462E+00  0.89700256223E+00  0.11426626528E+01  0.51100000000E-03 0. -1.
    9000002    1    1    2    0    0  0.27230297880E+00  0.28854311412E+00  0.43223687228E+00  0.11063809266E+01  0.93800000000E+00 0. -1.
         22    1    1    2    0    0  0.23918254172E+00  0.20078974050E+00  0.26707605329E+01  0.26889564206E+01  0.00000000000E+00 0. -1.
</event>
<event>
 5    1  0.2111786E+001  0.1562140E+01  0.7818608E-02  0.3395509E+00
         11   -1    0    0    0    0  0.00000000000E+00  0.00000000000E+00  0.39999999674E+01  0.40000000000E+01  0.51100000000E-03 0.  1.
    9000002   -1    0    0    0    0 -0.00000000000E+00 -0.00000000000E+00  0.00000000000E+00  0.93800000000E+00  0.93800000000E+00 0.  1.
         11    1    1    2    0    0  0.14657139781E+00 -0.13257427123E+00  0.12960449186E+01  0.13110270036E+01  0.51100000000E-03 0.  1.
    9000002    1    1    2    0    0  0.79361315155E-01 -0.58880832693E-02  0.32003150263E-01  0.94191352549E+00  0.93800000000E+00 0.  1.
         22    1    1    2    0    0 -0.22593271297E+00  0.13846235450E+00  0.26719518985E+01  0.26850594709E+01  0.00000000000E+00 0.  1.
</event>
<event>
 5    1  0.2111786E+001  0.1493774E+01  0.7818608E-02  0.3477394E+00
         11   -1    0    0    0    0  0.00000000000E+00  0.00000000000E+00  0.39999999674E+01  0.40000000000E+01  0.51100000000E-03 0.  1.
    9000002   -1    0    0    0    0 -0.00000000000E+00 -0.00000000000E+00  0.00000000000E+00  0.93800000000E+00  0.93800000000E+00 0.  1.
         11    1    1    2    0    0  0.97819809980E-01 -0.26092318176E+00  0.49477147807E+00  0.56784566445E+00  0.51100000000E-03 0.  1.
    9000002    1    1    2    0    0 -0.89365374343E-01  0.58578351987E-01  0.89358580336E-01  0.94828611154E+00  0.93800000000E+00 0.  1.
         22    1    1    2    0    0 -0.84544356364E-02  0.20234482977E+00  0.34158699090E+01  0.34218682240E+01  0.00000000000E+00 0.  1.
</event>
<event>
 5    1  0.2111786E+001  0.1559392E+01  0.7818608E-02  0.3398653E+00
         11   -1    0    0    0    0  0.00000000000E+00  0.00000000000E+00  0.39999999674E+01  0.40000000000E+01  0.51100000000E-03 0.  1.
    9000002   -1    0    0    0    0 -0.00000000000E+00 -0.00000000000E+00  0.00000000000E+00  0.93800000000E+00  0.93800000000E+00 0. -1.
         11    1    1    2    0    0 -0.17040038936E+00  0.87947234564E-01  0.78752211695E+00  0.81053214283E+00  0.51100000000E-03 0.  1.
    9000002    1    1    2    0    0  0.11943974259E-01  0.39206755524E-01  0.30893310336E-01  0.93940312157E+00  0.93800000000E+00 0. -1.
         22    1    1    2    0    0  0.15845641510E+00 -0.12715399009E+00  0.31815845401E+01  0.31880647356E+01  0.00000000000E+00 0.  1.
</event>
<event>
 5    1  0.2111786E+001  0.1260242E+01  0.7818608E-02  0.3860948E+00
         11   -1    0    0    0    0  0.00000000000E+00  0.00000000000E+00  0.39999999674E+01  0.40000000000E+01  0.51100000000E-03 0.  1.
    9000002   -1    0    0    0    0 -0.00000000000E+00 -0.00000000000E+00  0.00000000000E+00  0.93800000000E+00  0.93800000000E+00 0. -1.
         11    1    1    2    0    0  0.99857617355E-01  0.62657898176E+00  0.32086094615E+01  0.32707411548E+01  0.51100000000E-03 0.  1.
    9000002    1    1    2    0    0  0.22531485049E+00 -0.32767986566E+00  0.47594797372E+00  0.11245049355E+01  0.93800000000E+00 0. -1.
         22    1    1    2    0    0 -0.32517246784E+00 -0.29889911611E+00  0.31544253214E+00  0.54275390974E+00  0.00000000000E+00 0. -1.
</event>
<event>
 5    1  0.2111786E+001  0.1499751E+01  0.7818608E-02  0.3469916E+00
         11   -1    0    0    0    0  0.00000000000E+00  0.00000000000E+00  0.39999999674E+01  0.40000000000E+01  0.51100000000E-03 0.  1.
    9000002   -1    0    0    0    0 -0.00000000000E+00 -0.00000000000E+00  0.00000000000E+00  0.93800000000E+00  0.93800000000E+00 0. -1.
         11    1    1    2    0    0  0.19075461844E+00  0.35052616754E+00  0.12796103726E+01  0.13403950483E+01  0.51100000000E-03 0.  1.
    9000002    1    1    2    0    0 -0.17194704970E+00 -0.53962562153E-01  0.99950533446E-01  0.96037068632E+00  0.93800000000E+00 0. -1.
         22    1    1    2    0    0 -0.18807568735E-01 -0.29656360539E+00  0.26204390613E+01  0.26372342654E+01  0.00000000000E+00 0.  1.
</event>
<event>
 5    1  0.2111786E+001  0.1554938E+01  0.7818608E-02  0.3403773E+00
         11   -1    0    0    0    0  0.00000000000E+00  0.00000000000E+00  0.39999999674E+01  0.40000000000E+01  0.51100000000E-03 0.  1.
    9000002   -1    0    0    0    0 -0.00000000000E+00 -0.00000000000E+00  0.00000000000E+00  0.93800000000E+00  0.93800000000E+00 0.  1.
         11    1    1    2    0    0  0.13370492988E+00 -0.14279298811E+00  0.24239633174E+01  0.24318440063E+01  0.51100000000E-03 0.  1.
    9000002    1    1    2    0    0  0.69425891548E-01 -0.52746327589E-01  0.38340049122E-01  0.94282346643E+00  0.93800000000E+00 0.  1.
         22    1    1    2    0    0 -0.20313082143E+00  0.19553931570E+00  0.15376966008E+01  0.15633325272E+01  0.00000000000E+00 0.  1.
</event>
<event>
 5    1  0.2111786E+001  0.1550291E+01  0.7818608E-02  0.3409148E+00
         11   -1    0    0    0    0  0.00000000000E+00  0.00000000000E+00  0.39999999674E+01  0.40000000000E+01  0.51100000000E-03 0. -1.
    9000002   -1    0    0    0    0 -0.00000000000E+00 -0.00000000000E+00  0.00000000000E+00  0.93800000000E+00  0.93800000000E+00 0. -1.
         11    1    1    2    0    0  0.18989078564E+00 -0.25042223465E-01  0.11940498053E+01  0.12093141949E+01  0.51100000000E-03 0. -1.
    9000002    1    1    2    0    0  0.12962715758E+00 -0.21084651554E+00  0.79385766391E-01  0.97334760132E+00  0.93800000000E+00 0. -1.
         22    1    1    2    0    0 -0.31951794322E+00  0.23588873901E+00  0.27265643957E+01  0.27553382037E+01  0.00000000000E+00 0. -1.
</event>
<event>
 5    1  0.2111786E+001  0.1464308E+01  0.7818608E-02  0.3515229E+00
         11   -1    0    0    0    0  0.00000000000E+00  0.00000000000E+00  0.39999999674E+01  0.40000000000E+01  0.51100000000E-03 0.  1.
    9000002   -1    0    0    0    0 -0.00000000000E+00 -0.00000000000E+00  0.00000000000E+00  0.93800000000E+00  0.93800000000E+00 0. -1.
         11    1    1    2    0    0  0.12050473511E+00 -0.11712276163E+00  0.35689826712E+01  0.35729367054E+01  0.51100000000E-03 0.  1.
    9000002    1    1    2    0    0  0.50124344209E-01 -0.87563638243E-01  0.11299288673E+00  0.95015326820E+00  0.93800000000E+00 0. -1.
         22    1    1    2    0    0 -0.17062907932E+00  0.20468639988E+00  0.31802440945E+00  0.41491002640E+00  0.00000000000E+00 0.  1.
</event>
<event>
 5    1  0.2111786E+001  0.1560545E+01  0.7818608E-02  0.3397333E+00
         11   -1    0    0    0    0  0.00000000000E+00  0.00000000000E+00  0.39999999674E+01  0.40000000000E+01  0.51100000000E-03 0.  1.
    9000002   -1    0    0    0    0 -0.00000000000E+00 -0.00000000000E+00  0.00000000000E+00  0.93800000000E+00  0.93800000000E+00 0. -1.
         11    1    1    2    0    0 -0.11042141758E+00  0.22867202043E+00  0.25087651125E+01  0.25215841119E+01  0.51100000000E-03 0.  1.
    9000002    1    1    2    0    0 -0.42200749389E-01 -0.70402411467E-01  0.33486846950E-01  0.94217979797E+00  0.93800000000E+00 0. -1.
         22    1    1    2    0    0  0.15262216697E+00 -0.15826960896E+00  0.14577480079E+01  0.14742360902E+01  0.00000000000E+00 0.  1.
</event>
<event>
 5    1  0.2111786E+001  0.1580404E+01  0.7818608E-02  0.3374911E+00
         11   -1    0    0    0    0  0.00000000000E+00  0.00000000000E+00  0.39999999674E+01  0.40000000000E+01  0.51100000000E-03 0.  1.
    9000002   -1    0    0    0    0 -0.00000000000E+00 -0.00000000000E+00  0.00000000000E+00  0.93800000000E+00  0.93800000000E+00 0.  1.
         11    1    1    2    0    0 -0.41667203079E-01 -0.18194100232E+00  0.16378521603E+01  0.16484534098E+01  0.51100000000E-03 0.  1.
    9000002    1    1    2    0    0 -0.16116611609E+00  0.14033793883E+00  0.44917588467E-01  0.96308402738E+00  0.93800000000E+00 0.  1.
         22    1    1    2    0    0  0.20283331916E+00  0.41603063496E-01  0.23172302186E+01  0.23264625629E+01  0.00000000000E+00 0.  1.
</event>
<event>
 5    1  0.2111786E+001  0.1575259E+01  0.7818608E-02  0.3380662E+00
         11   -1    0    0    0    0  0.00000000000E+00  0.00000000000E+00  0.39999999674E+01  0.40000000000E+01  0.51100000000E-03 0. -1.
    9000002   -1    0    0    0    0 -0.00000000000E+00 -0.00000000000E+00  0.00000000000E+00  0.93800000000E+00  0.93800000000E+00 0.  1.
         11    1    1    2    0    0  0.14719583891E+00 -0.17902214540E+00  0.17683425212E+01  0.17834660291E+01  0.51100000000E-03 0. -1.
    9000002    1    1    2    0    0  0.49006136885E-01  0.22138696682E+00  0.52810596881E-01  0.96646094058E+00  0.93800000000E+00 0.  1.
         22    1    1    2    0    0 -0.19620197580E+00 -0.42364821423E-01  0.21788468493E+01  0.21880730304E+01  0.00000000000E+00 0. -1.
</event>
<event>
 5    1  0.2111786E+001  0.1557772E+01  0.7818608E-02  0.3400512E+00
         11   -1    0    0    0    0  0.00000000000E+00  0.00000000000E+00  0.39999999674E+01  0.40000000000E+01  0.51100000000E-03 0.  1.
    9000002   -1    0    0    0    0 -0.00000000000E+00 -0.00000000000E+00  0.00000000000E+00  0.93800000000E+00  0.93800000000E+00 0. -1.
         11    1    1    2    0    0  0.96851884554E-01  0.56294956661E-01  0.27612135341E+01  0.27634850916E+01  0.51100000000E-03 0.  1.
    9000002    1    1    2    0    0  0.10625830137E+00  0.13266644597E+00  0.50866533114E-01  0.95463218922E+00  0.93800000000E+00 0. -1.
         22    1    1    2    0    0 -0.20311018592E+00 -0.18896140263E+00  0.11879199002E+01  0.12198827192E+01  0.00000000000E+00 0.  1.
</event>
<event>
 5    1  0.2111786E+001  0.1555024E+01  0.7818608E-02  0.3403673E+00
         11   -1    0    0    0    0  0.00000000000E+00  0.00000000000E+00  0.39999999674E+01  0.40000000000E+01  0.51100000000E-03 0.  1.
    9000002   -1    0    0    0    0 -0.00000000000E+00 -0.00000000000E+00  0.00000000000E+00  0.93800000000E+00  0.93800000000E+00 0. -1.
         11    1    1    2    0    0  0.72859429156E-01 -0.21283693725E+00  0.22849814358E+01  0.22960288503E+01  0.51100000000E-03 0.  1.
    9000002    1    1    2    0    0  0.50622450382E-01 -0.29364413375E-01  0.35397122178E-01  0.94049022191E+00  0.93800000000E+00 0. -1.
         22    1    1    2    0    0 -0.12348187954E+00  0.24220135062E+00  0.16796214093E+01  0.17014809278E+01  0.00000000000E+00 0.  1.
</event>
<event>
 5    1  0.2111786E+001  0.1594300E+01  0.7818608E-02  0.3359574E+00
         11   -1    0    0    0    0  0.00000000000E+00  0.00000000000E+00  0.39999999674E+01  0.40000000000E+01  0.51100000000E-03 0.  1.
    9000002   -1    0    0    0    0 -0.00000000000E+00 -0.00000000000E+00  0.00000000000E+00  0.93800000000E+00  0.93800000000E+00 0. -1.
         11    1    1    2    0    0  0.29085171985E-01 -0.76326033497E-01  0.13992196885E+01  0.14016018009E+01  0.51100000000E-03 0.  1.
    9000002    1    1    2    0    0  0.15100281740E+00  0.16516807089E+00  0.37282521066E-01  0.96504731950E+00  0.93800000000E+00 0. -1.
         22    1    1    2    0    0 -0.18008798938E+00 -0.88842037397E-01  0.25634977578E+01  0.25713508796E+01  0.00000000000E+00 0.  1.
</event>
<event>
 5    1  0.2111786E+001  0.1513922E+01  0.7818608E-02  0.3452438E+00
         11   -1    0    0    0    0  0.00000000000E+00  0.00000000000E+00  0.39999999674E+01  0.40000000000E+01  0.51100000000E-03 0. -1.
    9000002   -1    0    0    0    0 -0.00000000000E+00 -0.00000000000E+00  0.00000000000E+00  0.93800000000E+00  0.93800000000E+00 0.  1.
         11    1    1    2    0    0  0.21623974161E+00 -0.48087256318E+00  0.29580068975E+01  0.30046302792E+01  0.51100000000E-03 0. -1.
    9000002    1    1    2    0    0 -0.46902895801E+00  0.30617214710E+00  0.30408411434E+00  0.11340373432E+01  0.93800000000E+00 0.  1.
         22    1    1    2    0    0  0.25278921640E+00  0.17470041608E+00  0.73790895555E+00  0.79933237767E+00  0.00000000000E+00 0.  1.
</event>
<event>
 5    1  0.2111786E+001  0.1594644E+01  0.7818608E-02  0.3359197E+00
         11   -1    0    0    0    0  0.00000000000E+00  0.00000000000E+00  0.39999999674E+01  0.40000000000E+01  0.51100000000E-03 0. -1.
    9000002   -1    0    0    0    0 -0.00000000000E+00 -0.00000000000E+00  0.00000000000E+00  0.93800000000E+00  0.93800000000E+00 0.  1.
         11    1    1    2    0    0  0.90534814329E-01  0.65022541710E-02  0.19445711151E+01  0.19466884483E+01  0.51100000000E-03 0. -1.
    9000002    1    1    2    0    0 -0.35448571587E+00 -0.98972653119E-02  0.88440554488E-01  0.10066895302E+01  0.93800000000E+00 0.  1.
         22    1    1    2    0    0  0.26395090154E+00  0.33950111409E-02  0.19669882977E+01  0.19846220214E+01  0.00000000000E+00 0. -1.
</event>
<event>
 5    1  0.2111786E+001  0.1561223E+01  0.7818608E-02  0.3396557E+00
         11   -1    0    0    0    0  0.00000000000E+00  0.00000000000E+00  0.39999999674E+01  0.40000000000E+01  0.51100000000E-03 0.  1.
    9000002   -1    0    0    0    0 -0.00000000000E+00 -0.00000000000E+00  0.00000000000E+00  0.93800000000E+00  0.93800000000E+00 0. -1.
         11    1    1    2    0    0  0.22375088160E+00  0.32275967346E+00  0.23765432270E+01  0.24087748410E+01  0.51100000000E-03 0.  1.
    9000002    1    1    2    0    0 -0.12438163031E-01 -0.39842894699E+00  0.13985267855E+00  0.10287385992E+01  0.93800000000E+00 0. -1.
         22    1    1    2    0    0 -0.21131271857E+00  0.75669273528E-01  0.14836040618E+01  0.15004865598E+01  0.00000000000E+00 0.  1.
</event>
<event>
 5    1  0.2111786E+001  0.1534139E+01  0.7818608E-02  0.3428103E+00
         11   -1    0    0    0    0  0.00000000000E+00  0.00000000000E+00  0.39999999674E+01  0.40000000000E+01  0.51100000000E-03 0. -1.
    9000002   -1    0    0    0    0 -0.00000000000E+00 -0.00000000000E+00  0.00000000000E+00  0.93800000000E+00  0.93800000000E+00 0. -1.
         11    1    1    2    0    0 -0.18876112980E+00  0.28370204735E+00  0.26412266932E+01  0.26631177821E+01  0.51100000000E-03 0. -1.
    9000002    1    1    2    0    0  0.21183000883E-01 -0.77839161052E-01  0.53597782996E-01  0.94298694416E+00  0.93800000000E+00 0. -1.
         22    1    1    2    0    0  0.16757812892E+00 -0.20586288630E+00  0.13051754912E+01  0.13318952737E+01  0.00000000000E+00 0.  1.
</event>
<event>
 5    1  0.2111786E+001  0.1574434E+01  0.7818608E-02  0.3381587E+00
         11   -1    0    0    0    0  0.00000000000E+00  0.00000000000E+00  0.39999999674E+01  0.40000000000E+01  0.51100000000E-03 0. -1.
    9000002   -1    0    0    0    0 -0.00000000000E+00 -0.00000000000E+00  0.00000000000E+00  0.93800000000E+00  0.93800000000E+00 0.  1.
         11    1    1    2    0    0 -0.12484600527E+00  0.10829332918E+00  0.11904492524E+01  0.12018667372E+01  0.51100000000E-03 0. -1.
    9000002    1    1    2    0    0 -0.10428389780E+00 -0.95403672630E-01  0.32011053238E-01  0.94912891623E+00  0.93800000000E+00 0.  1.
         22    1    1    2    0    0  0.22912990307E+00 -0.12889656547E-01  0.27775396617E+01  0.27870043466E+01  0.00000000000E+00 0. -1.
</event>
<event>
 5    1  0.2111786E+001  0.1583492E+01  0.7818608E-02  0.3371478E+00
         11   -1    0    0    0    0  0.00000000000E+00  0.00000000000E+00  0.39999999674E+01  0.40000000000E+01  0.51100000000E-03 0. -1.
    9000002   -1    0    0    0    0 -0.00000000000E+00 -0.00000000000E+00  0.00000000000E+00  0.93800000000E+00  0.93800000000E+00 0.  1.
         11    1    1    2    0    0 -0.10176910658E+01 -0.14342295097E+00  0.18505756734E+01  0.21168126588E+01  0.51100000000E-03 0. -1.
    9000002    1    1    2    0    0  0.11885357033E+01  0.27918382616E+00  0.15562028475E+01  0.21891030194E+01  0.93800000000E+00 0.  1.
         22    1    1    2    0    0 -0.17084463748E+00 -0.13576087520E+00  0.59322144643E+00  0.63208432183E+00  0.00000000000E+00 0.  1.
</event>
<event>
 5    1  0.2111786E+001  0.1564182E+01  0.7818608E-02  0.3393181E+00
         11   -1    0    0    0    0  0.00000000000E+00  0.00000000000E+00  0.39999999674E+01  0.40000000000E+01  0.51100000000E-03 0. -1.
    9000002   -1    0    0    0    0 -0.00000000000E+00 -0.00000000000E+00  0.00000000000E+00  0.93800000000E+00  0.93800000000E+00 0. -1.
         11    1    1    2    0    0 -0.19504075371E+00  0.20186524994E-01  0.99644694781E+00  0.10155565825E+01  0.51100000000E-03 0. -1.
    9000002    1    1    2    0    0 -0.56623931349E-02 -0.14342484718E+00  0.40225107545E-01  0.94977092436E+00  0.93800000000E+00 0. -1.
         22    1    1    2    0    0  0.20070314685E+00  0.12323832219E+00  0.29633279120E+01  0.29726724931E+01  0.00000000000E+00 0. -1.
</event>
<event>
 5    1  0.2111786E+001  0.1580747E+01  0.7818608E-02  0.3374528E+00
         11   -1    0    0    0    0  0.00000000000E+00  0.00000000000E+00  0.39999999674E+01  0.40000000000E+01  0.51100000000E-03 0.  1.
    9000002   -1    0    0    0    0 -0.00000000000E+00 -0.00000000000E+00  0.00000000000E+00  0.93800000000E+00  0.93800000000E+00 0.  1.
         11    1    1    2    0    0  0.15195394633E+00 -0.62429881344E-01  0.15218995666E+01  0.15307403581E+01  0.51100000000E-03 0.  1.
    9000002    1    1    2    0    0 -0.11483338371E+00 -0.14885339925E+00  0.37645930280E-01  0.95739503683E+00  0.93800000000E+00 0.  1.
         22    1    1    2    0    0 -0.37120562626E-01  0.21128328059E+00  0.24404544705E+01  0.24498646051E+01  0.00000000000E+00 0.  1.
</event>
<event>
 5    1  0.2111786E+001  0.1522431E+01  0.7818608E-02  0.3442111E+00
         11   -1    0    0    0    0  0.00000000000E+00  0.00000000000E+00  0.39999999674E+01  0.40000000000E+01  0.51100000000E-03 0.  1.
    9000002   -1    0    0    0    0 -0.00000000000E+00 -0.00000000000E+00  0.00000000000E+00  0.93800000000E+00  0.93800000000E+00 0. -1.
         11    1    1    2    0    0 -0.25076676797E-01 -0.38539947353E-01 -0.10572790707E-01  0.47182754111E-01  0.51100000000E-03 0.  1.
    9000002    1    1    2    0    0  0.31340716765E+00 -0.13938881872E+00  0.14358636719E+00  0.10090165214E+01  0.93800000000E+00 0. -1.
         22    1    1    2    0    0 -0.28833049086E+00  0.17792876607E+00  0.38669863909E+01  0.38818007245E+01  0.00000000000E+00 0.  1.
</event>
<event>
 5    1  0.2111786E+001  0.1548800E+01  0.7818608E-02  0.3410880E+00
         11   -1    0    0    0    0  0.00000000000E+00  0.00000000000E+00  0.39999999674E+01  0.40000000000E+01  0.51100000000E-03 0.  1.
    9000002   -1    0    0    0    0 -0.00000000000E+00 -0.00000000000E+00  0.00000000000E+00  0.93800000000E+00  0.93800000000E+00 0. -1.
         11    1    1    2    0    0 -0.31575261660E+00  0.95514631946E-01  0.21175283660E+01  0.21430700879E+01  0.51100000000E-03 0.  1.
    9000002    1    1    2    0    0  0.10366590912E+00 -0.38779568076E-01  0.46259552198E-01  0.94563968920E+00  0.93800000000E+00 0. -1.
         22    1    1    2    0    0  0.21208670748E+00 -0.56735063870E-01  0.18362120491E+01  0.18492902229E+01  0.00000000000E+00 0. -1.
</event>
<event>
 5    1  0.2111786E+001  0.1479341E+01  0.7818608E-02  0.3495723E+00
         11   -1    0    0    0    0  0.00000000000E+00  0.00000000000E+00  0.39999999674E+01  0.40000000000E+01  0.51100000000E-03 0.  1.
    9000002   -1    0    0    0    0 -0.00000000000E+00 -0.00000000000E+00  0.00000000000E+00  0.93800000000E+00  0.93800000000E+00 0. -1.
         11    1    1    2    0    0  0.73368699398E-01  0.19700689497E+00  0.33719088359E+01  0.33784558812E+01  0.51100000000E-03 0.  1.
    9000002    1    1    2    0    0  0.99809249209E-01  0.57447995962E-01  0.10266647191E+00  0.95060326263E+00  0.93800000000E+00 0. -1.
         22    1    1    2    0    0 -0.17317794861E+00 -0.25445489094E+00  0.52542465957E+00  0.60894085615E+00  0.00000000000E+00 0.  1.
</event>
<event>
 5    1  0.2111786E+001  0.1500315E+01  0.7818608E-02  0.3469213E+00
         11   -1    0    0    0    0  0.00000000000E+00  0.00000000000E+00  0.39999999674E+01  0.40000000000E+01  0.51100000000E-03 0. -1.
    9000002   -1    0    0    0    0 -0.00000000000E+00 -0.00000000000E+00  0.00000000000E+00  0.93800000000E+00  0.93800000000E+00 0.  1.
         11    1    1    2    0    0 -0.20260635023E-01  0.47996850802E+00  0.28577437511E+01  0.28978405529E+01  0.51100000000E-03 0. -1.
    9000002    1    1    2    0    0 -0.10873449607E-01 -0.19817460555E+00  0.10458424514E+00  0.96445490850E+00  0.93800000000E+00 0.  1.
         22    1    1    2    0    0  0.31134084630E-01 -0.28179390247E+00  0.10376719711E+01  0.10757045386E+01  0.00000000000E+00 0.  1.
</event>
<event>
 5    1  0.2111786E+001  0.1536627E+01  0.7818608E-02  0.3425155E+00
         11   -1    0    0    0    0  0.00000000000E+00  0.00000000000E+00  0.39999999674E+01  0.40000000000E+01  0.51100000000E-03 0.  1.
    9000002   -1    0    0    0    0 -0.00000000000E+00 -0.00000000000E+00  0.00000000000E+00  0.93800000000E+00  0.93800000000E+00 0. -1.
         11    1    1    2    0    0  0.33980530719E+00  0.16824002283E+00  0.19188137024E+01  0.19559188729E+01  0.51100000000E-03 0.  1.
    9000002    1    1    2    0    0 -0.12307156548E+00 -0.11008528873E+00  0.66289440740E-01  0.95472701385E+00  0.93800000000E+00 0. -1.
         22    1    1    2    0    0 -0.21673374170E+00 -0.58154734102E-01  0.20148968243E+01  0.20273541132E+01  0.00000000000E+00 0.  1.
</event>
<event>
 5    1  0.2111786E+001  0.1579411E+01  0.7818608E-02  0.3376017E+00
         11   -1    0    0    0    0  0.00000000000E+00  0.00000000000E+00  0.39999999674E+01  0.40000000000E+01  0.51100000000E-03 0.  1.
    9000002   -1    0    0    0    0 -0.00000000000E+00 -0.00000000000E+00  0.00000000000E+00  0.93800000000E+00  0.93800000000E+00 0. -1.
         11    1    1    2    0    0 -0.11739672619E+00  0.21999678426E+00  0.20394321074E+01  0.20546201980E+01  0.51100000000E-03 0.  1.
    9000002    1    1    2    0    0 -0.98776335194E-01 -0.37146940536E+00  0.11633738768E+00  0.10203551692E+01  0.93800000000E+00 0. -1.
         22    1    1    2    0    0  0.21617306138E+00  0.15147262109E+00  0.18442304723E+01  0.18630246328E+01  0.00000000000E+00 0. -1.
</event>
<event>
 5    1  0.2111786E+001  0.1567166E+01  0.7818608E-02  0.3389789E+00
         11   -1    0    0    0    0  0.00000000000E+00  0.00000000000E+00  0.39999999674E+01  0.40000000000E+01  0.51100000000E-03 0. -1.
    9000002   -1    0    0    0    0 -0.00000000000E+00 -0.00000000000E+00  0.00000000000E+00  0.93800000000E+00  0.93800000000E+00 0.  1.
         11    1    1    2    0    0 -0.15701874752E+00  0.20916294636E+00  0.21316919726E+01  0.21476766405E+01  0.51100000000E-03 0. -1.
    9000002    1    1    2    0    0  0.23574713963E+00  0.93042563898E-02  0.62056022629E-01  0.96920494890E+00  0.93800000000E+00 0.  1.
         22    1    1    2    0    0 -0.78728392116E-01 -0.21846720275E+00  0.18062519721E+01  0.18211184105E+01  0.00000000000E+00 0. -1.
</event>
<event>
 5    1  0.2111786E+001  0.1532389E+01  0.7818608E-02  0.3430182E+00
         11   -1    0    0    0    0  0.00000000000E+00  0.00000000000E+00  0.39999999674E+01  0.40000000000E+01  0.51100000000E-03 0.  1.
    9000002   -1    0    0    0    0 -0.00000000000E+00 -0.00000000000E+00  0.00000000000E+00  0.93800000000E+00  0.93800000000E+00 0. -1.
         11    1    1    2    0    0  0.33551389782E+00  0.24815469782E+00  0.14078154934E+01  0.14683647552E+01  0.51100000000E-03 0.  1.
    9000002    1    1    2    0    0 -0.43042342418E+00 -0.53293952186E-02  0.18516038640E+00  0.10485328298E+01  0.93800000000E+00 0. -1.
         22    1    1    2    0    0  0.94909526361E-01 -0.24282530260E+00  0.24070240875E+01  0.24211024150E+01  0.00000000000E+00 0.  1.
</event>
<event>
 5    1  0.2111786E+001  0.1537165E+01  0.7818608E-02  0.3424520E+00
         11   -1    0    0    0    0  0.00000000000E+00  0.00000000000E+00  0.39999999674E+01  0.40000000000E+01  0.51100000000E-03 0.  1.
    9000002   -1    0    0    0    0 -0.00000000000E+00 -0.00000000000E+00  0.00000000000E+00  0.93800000000E+00  0.93800000000E+00 0.  1.
         11    1    1    2    0    0 -0.37271457763E+00  0.13980977824E+00  0.12395442364E+01  0.13018959657E+01  0.51100000000E-03 0.  1.
    9000002    1    1    2    0    0  0.27101005025E+00 -0.37860882069E+00  0.20447623027E+00  0.10669796695E+01  0.93800000000E+00 0.  1.
         22    1    1    2    0    0  0.10170452737E+00  0.23879904245E+00  0.25559795007E+01  0.25691243647E+01  0.00000000000E+00 0. -1.
</event>
<event>
 5    1  0.2111786E+001  0.1583311E+01  0.7818608E-02  0.3371679E+00
         11   -1    0    0    0    0  0.00000000000E+00  0.00000000000E+00  0.39999999674E+01  0.40000000000E+01  0.51100000000E-03 0. -1.
    9000002   -1    0    0    0    0 -0.00000000000E+00 -0.00000000000E+00  0.00000000000E+00  0.93800000000E+00  0.93800000000E+00 0. -1.
         11    1    1    2    0    0 -0.70638373417E-01 -0.34542229376E-01  0.22602933849E+01  0.22616607597E+01  0.51100000000E-03 0. -1.
    9000002    1    1    2    0    0 -0.95522753946E-01 -0.93440384518E-01  0.23910477281E-01  0.94777181479E+00  0.93800000000E+00 0. -1.
         22    1    1    2    0    0  0.16616112736E+00  0.12798261389E+00  0.17157961052E+01  0.17285674255E+01  0.00000000000E+00 0.  1.
</event>
<event>
 5    1  0.2111786E+001  0.1479384E+01  0.7818608E-02  0.3495668E+00
         11   -1    0    0    0    0  0.00000000000E+00  0.00000000000E+00  0.39999999674E+01  0.40000000000E+01  0.51100000000E-03 0.  1.
    9000002   -1    0    0    0    0 -0.00000000000E+00 -0.00000000000E+00  0.00000000000E+00  0.93800000000E+00  0.93800000000E+00 0. -1.
         11    1    1    2    0    0 -0.99406099046E-02  0.30480380338E+00  0.59480358171E+00  0.66842780928E+00  0.51100000000E-03 0.  1.
    9000002    1    1    2    0    0  0.96637925844E-01  0.75566714910E-02  0.99736842010E-01  0.94825493916E+00  0.93800000000E+00 0. -1.
         22    1    1    2    0    0 -0.86697315940E-01 -0.31236047487E+00  0.33054595436E+01  0.33213172516E+01  0.00000000000E+00 0.  1.
</event>
<event>
 5    1  0.2111786E+001  0.1577375E+01  0.7818608E-02  0.3378292E+00
         11   -1    0    0    0    0  0.00000000000E+00  0.00000000000E+00  0.39999999674E+01  0.40000000000E+01  0.51100000000E-03 0. -1.
    9000002   -1    0    0    0    0 -0.00000000000E+00 -0.00000000000E+00  0.00000000000E+00  0.93800000000E+00  0.93800000000E+00 0.  1.
         11    1    1    2    0    0 -0.78565562046E-01 -0.11235805165E+00  0.93599427280E+00  0.94598225097E+00  0.51100000000E-03 0. -1.
    9000002    1    1    2    0    0 -0.60270340638E-01 -0.37160294451E-01  0.19692508064E-01  0.94087469746E+00  0.93800000000E+00 0.  1.
         22    1    1    2    0    0  0.13883590268E+00  0.14951834610E+00  0.30443131865E+01  0.30511430516E+01  0.00000000000E+00 0. -1.
</event>
<event>
 5    1  0.2111786E+001  0.1573173E+01  0.7818608E-02  0.3383005E+00
         11   -1    0    0    0    0  0.00000000000E+00  0.00000000000E+00  0.39999999674E+01  0.40000000000E+01  0.51100000000E-03 0. -1.
    9000002   -1    0    0    0    0 -0.00000000000E+00 -0.00000000000E+00  0.00000000000E+00  0.93800000000E+00  0.93800000000E+00 0.  1.
         11    1    1    2    0    0 -0.50648834055E-01 -0.12615666822E+00  0.16720108157E+01  0.16775283122E+01  0.51100000000E-03 0. -1.
    9000002    1    1    2    0    0 -0.11473755644E+00 -0.95072815529E-01  0.34477841088E-01  0.95038743081E+00  0.93800000000E+00 0.  1.
         22    1    1    2    0    0  0.16538639049E+00  0.22122948375E+00  0.22935113106E+01  0.23100842570E+01  0.00000000000E+00 0. -1.
</event>
<event>
 5    1  0.2111786E+001  0.1475918E+01  0.7818608E-02  0.3500127E+00
         11   -1    0    0    0    0  0.00000000000E+00  0.00000000000E+00  0.39999999674E+01  0.40000000000E+01  0.51100000000E-03 0. -1.
    9000002   -1    0    0    0    0 -0.00000000000E+00 -0.00000000000E+00  0.00000000000E+00  0.93800000000E+00  0.93800000000E+00 0. -1.
         11    1    1    2    0    0 -0.33042469300E+00  0.34301365935E+00  0.10045874936E+01  0.11117711733E+01  0.51100000000E-03 0. -1.
    9000002    1    1    2    0    0  0.42071023728E+00 -0.10865083644E+00  0.24241138916E+00  0.10617953615E+01  0.93800000000E+00 0. -1.
         22    1    1    2    0    0 -0.90285544282E-01 -0.23436282292E+00  0.27530010846E+01  0.27644334653E+01  0.00000000000E+00 0. -1.
</event>
<event>
 5    1  0.2111786E+001  0.1469306E+01  0.7818608E-02  0.3508696E+00
         11   -1    0    0    0    0  0.00000000000E+00  0.00000000000E+00  0.39999999674E+01  0.40000000000E+01  0.51100000000E-03 0.  1.
    9000002   -1    0    0    0    0 -0.00000000000E+00 -0.00000000000E+00  0.00000000000E+00  0.93800000000E+00  0.93800000000E+00 0.  1.
         11    1    1    2    0    0  0.23306548365E+00  0.21258321901E+00  0.66472995156E+00  0.73578346970E+00  0.51100000000E-03 0.  1.
    9000002    1    1    2    0    0  0.43221217008E+00  0.10256432438E+00  0.30202522733E+00  0.10809209215E+01  0.93800000000E+00 0.  1.
         22    1    1    2    0    0 -0.66527765373E+00 -0.31514754339E+00  0.30332447885E+01  0.31212956088E+01  0.00000000000E+00 0.  1.
</event>
<event>
 5    1  0.2111786E+001  0.1548868E+01  0.7818608E-02  0.3410801E+00
         11   -1    0    0    0    0  0.00000000000E+00  0.00000000000E+00  0.39999999674E+01  0.40000000000E+01  0.51100000000E-03 0. -1.
    9000002   -1    0    0    0    0 -0.00000000000E+00 -0.00000000000E+00  0.00000000000E+00  0.93800000000E+00  0.93800000000E+00 0.  1.
         11    1    1    2    0    0 -0.59965723695E-01  0.25476181096E+00  0.11289662833E+01  0.11589066391E+01  0.51100000000E-03 0. -1.
    9000002    1    1    2    0    0 -0.85506226519E-01 -0.83862158899E-01  0.47661872721E-01  0.94681562650E+00  0.93800000000E+00 0.  1.
         22    1    1    2    0    0  0.14547195021E+00 -0.17089965206E+00  0.28233718114E+01  0.28322777344E+01  0.00000000000E+00 0. -1.
</event>
<event>
 5    1  0.2111786E+001  0.1463776E+01  0.7818608E-02  0.3515929E+00
         11   -1    0    0    0    0  0.00000000000E+00  0.00000000000E+00  0.39999999674E+01  0.40000000000E+01  0.51100000000E-03 0.  1.
    9000002   -1    0    0    0    0 -0.00000000000E+00 -0.00000000000E+00  0.00000000000E+00  0.93800000000E+00  0.93800000000E+00 0. -1.
         11    1    1    2    0    0 -0.25462269882E+00  0.29857434496E+00  0.12022882789E+01  0.12647042045E+01  0.51100000000E-03 0.  1.
    9000002    1    1    2    0    0 -0.16354523638E+00 -0.72797633696E-01  0.13017825559E+00  0.96376185754E+00  0.93800000000E+00 0. -1.
         22    1    1    2    0    0  0.41816793520E+00 -0.22577671127E+00  0.26675334329E+01  0.27095339380E+01  0.00000000000E+00 0.  1.
</event>
<event>
 5    1  0.2111786E+001  0.1513486E+01  0.7818608E-02  0.3452970E+00
         11   -1    0    0    0    0  0.00000000000E+00  0.00000000000E+00  0.39999999674E+01  0.40000000000E+01  0.51100000000E-03 0.  1.
    9000002   -1    0    0    0    0 -0.00000000000E+00 -0.00000000000E+00  0.00000000000E+00  0.93800000000E+00  0.93800000000E+00 0.  1.
         11    1    1    2    0    0 -0.12589163811E+00  0.27826239600E+00  0.80447447020E+00  0.86049875067E+00  0.51100000000E-03 0.  1.
    9000002    1    1    2    0    0 -0.10030410045E+00 -0.14388548158E+00  0.87391017239E-01  0.95825108102E+00  0.93800000000E+00 0.  1.
         22    1    1    2    0    0  0.22619573856E+00 -0.13437691443E+00  0.31081344799E+01  0.31192501683E+01  0.00000000000E+00 0.  1.
</event>
<event>
 5    1  0.2111786E+001  0.1596922E+01  0.7818608E-02  0.3356711E+00
         11   -1    0    0    0    0  0.00000000000E+00  0.00000000000E+00  0.39999999674E+01  0.40000000000E+01  0.51100000000E-03 0. -1.
    9000002   -1    0    0    0    0 -0.00000000000E+00 -0.00000000000E+00  0.00000000000E+00  0.93800000000E+00  0.93800000000E+00 0.  1.
         11    1    1    2    0    0  0.72646015068E-01  0.18561668808E-01  0.46435078988E+00  0.47036570479E+00  0.51100000000E-03 0. -1.
    9000002    1    1    2    0    0 -0.30598633189E+00 -0.12299230079E-03  0.64661404463E-01  0.98876324146E+00  0.93800000000E+00 0.  1.
         22    1    1    2    0    0  0.23334031682E+00 -0.18438676508E-01  0.34709877730E+01  0.34788710538E+01  0.00000000000E+00 0. -1.
</event>
<event>
 5    1  0.2111786E+001  0.1519377E+01  0.7818608E-02  0.3445803E+00
         11   -1    0    0    0    0  0.00000000000E+00  0.00000000000E+00  0.39999999674E+01  0.40000000000E+01  0.51100000000E-03 0.  1.
    9000002   -1    0    0    0    0 -0.00000000000E+00 -0.00000000000E+00  0.00000000000E+00  0.93800000000E+00  0.93800000000E+00 0.  1.
         11    1    1    2    0    0 -0.35751113728E+00  0.70478044165E-01  0.24504943576E+01  0.24774390458E+01  0.51100000000E-03 0.  1.
    9000002    1    1    2    0    0  0.99760371705E-01  0.12462735346E+00  0.78797824249E-01  0.95474457637E+00  0.93800000000E+00 0.  1.
         22    1    1    2    0    0  0.25775076558E+00 -0.19510539763E+00  0.14707077855E+01  0.15058163778E+01  0.00000000000E+00 0.  1.
</event>
<event>
 5    1  0.2111786E+001  0.1526577E+01  0.7818608E-02  0.3437124E+00
         11   -1    0    0    0    0  0.00000000000E+00  0.00000000000E+00  0.39999999674E+01  0.40000000000E+01  0.51100000000E-03 0.  1.
    9000002   -1    0    0    0    0 -0.00000000000E+00 -0.00000000000E+00  0.00000000000E+00  0.93800000000E+00  0.93800000000E+00 0.  1.
         11    1    1    2    0    0  0.15997316866E+00 -0.47677821747E-01  0.27753071419E+00  0.32386439727E+00  0.51100000000E-03 0.  1.
    9000002    1    1    2    0    0  0.31266635833E-01 -0.13431368316E+00  0.68405461912E-01  0.95054777640E+00  0.93800000000E+00 0.  1.
         22    1    1    2    0    0 -0.19123980449E+00  0.18199150491E+00  0.36540637913E+01  0.36635878263E+01  0.00000000000E+00 0.  1.
</event>
<event>
 5    1  0.2111786E+001  0.1564618E+01  0.7818608E-02  0.3392684E+00
         11   -1    0    0    0    0  0.00000000000E+00  0.00000000000E+00  0.39999999674E+01  0.40000000000E+01  0.51100000000E-03 0. -1.
    9000002   -1    0    0    0    0 -0.00000000000E+00 -0.00000000000E+00  0.00000000000E+00  0.93800000000E+00  0.93800000000E+00 0.  1.
         11    1    1    2    0    0 -0.14208298453E+00  0.50202376682E-01  0.50481792865E+00  0.52682943666E+00  0.51100000000E-03 0. -1.
    9000002    1    1    2    0    0  0.84680773178E-01  0.20118734726E+00  0.58510984935E-01  0.96483921842E+00  0.93800000000E+00 0.  1.
         22    1    1    2    0    0  0.57402211350E-01 -0.25138972394E+00  0.34366710538E+01  0.34463313449E+01  0.00000000000E+00 0. -1.
</event>
<event>
 5    1  0.2111786E+001  0.1471950E+01  0.7818608E-02  0.3505260E+00
         11   -1    0    0    0    0  0.00000000000E+00  0.00000000000E+00  0.39999999674E+01  0.40000000000E+01  0.51100000000E-03 0.  1.
    9000002   -1    0    0    0    0 -0.00000000000E+00 -0.00000000000E+00  0.00000000000E+00  0.93800000000E+00  0.93800000000E+00 0.  1.
         11    1    1    2    0    0  0.36205538729E+00  0.24804801761E+00  0.33979112619E+01  0.34261367642E+01  0.51100000000E-03 0.  1.
    9000002    1    1    2    0    0 -0.10507520458E+00 -0.16835288570E+00  0.12870809736E+00  0.96736408196E+00  0.93800000000E+00 0.  1.
         22    1    1    2    0    0 -0.25698018271E+00 -0.79695131911E-01  0.47338060814E+00  0.54449915383E+00  0.00000000000E+00 0.  1.
</event>
<event>
 5    1  0.2111786E+001  0.1538650E+01  0.7818608E-02  0.3422767E+00
         11   -1    0    0    0    0  0.00000000000E+00  0.00000000000E+00  0.39999999674E+01  0.40000000000E+01  0.51100000000E-03 0.  1.
    9000002   -1    0    0    0    0 -0.00000000000E+00 -0.00000000000E+00  0.00000000000E+00  0.93800000000E+00  0.93800000000E+00 0.  1.
         11    1    1    2    0    0 -0.25624294250E+00  0.72822738413E-01  0.14356072941E+01  0.14601137493E+01  0.51100000000E-03 0.  1.
    9000002    1    1    2    0    0 -0.64695414979E-01 -0.36199053861E-01  0.49385749722E-01  0.94222015500E+00  0.93800000000E+00 0.  1.
         22    1    1    2    0    0  0.32093835748E+00 -0.36623684552E-01  0.25150069235E+01  0.25356660957E+01  0.00000000000E+00 0.  1.
</event>
<event>
 5    1  0.2111786E+001  0.1520300E+01  0.7818608E-02  0.3444686E+00
         11   -1    0    0    0    0  0.00000000000E+00  0.00000000000E+00  0.39999999674E+01  0.40000000000E+01  0.51100000000E-03 0.  1.
    9000002   -1    0    0    0    0 -0.00000000000E+00 -0.00000000000E+00  0.00000000000E+00  0.93800000000E+00  0.93800000000E+00 0. -1.
         11    1    1    2    0    0  0.30527504816E+00 -0.44338229351E+00  0.30384938402E+01  0.30858103946E+01  0.51100000000E-03 0.  1.
    9000002    1    1    2    0    0 -0.93731402930E-01  0.37049519948E+00  0.16670223220E+00  0.10264920375E+01  0.93800000000E+00 0. -1.
         22    1    1    2    0    0 -0.21154364523E+00  0.72887094032E-01  0.79480389496E+00  0.82569756798E+00  0.00000000000E+00 0. -1.
</event>
<event>
 5    1  0.2111786E+001  0.1571824E+01  0.7818608E-02  0.3384524E+00
         11   -1    0    0    0    0  0.00000000000E+00  0.00000000000E+00  0.39999999674E+01  0.40000000000E+01  0.51100000000E-03 0.  1.
    9000002   -1    0    0    0    0 -0.00000000000E+00 -0.00000000000E+00  0.00000000000E+00  0.93800000000E+00  0.93800000000E+00 0.  1.
         11    1    1    2    0    0 -0.11217245677E+00 -0.11015324818E+00  0.20529886832E+01  0.20589995611E+01  0.51100000000E-03 0.  1.
    9000002    1    1    2    0    0 -0.77715523141E-02 -0.10364546256E+00  0.27752478123E-01  0.94414881188E+00  0.93800000000E+00 0.  1.
         22    1    1    2    0    0  0.11994400909E+00  0.21379871074E+00  0.19192588060E+01  0.19348516270E+01  0.00000000000E+00 0.  1.
</event>
<event>
 5    1  0.2111786E+001  0.1491208E+01  0.7818608E-02  0.3480624E+00
         11   -1    0    0    0    0  0.00000000000E+00  0.00000000000E+00  0.39999999674E+01  0.40000000000E+01  0.51100000000E-03 0. -1.
    9000002   -1    0    0    0    0 -0.00000000000E+00 -0.00000000000E+00  0.00000000000E+00  0.93800000000E+00  0.93800000000E+00 0.  1.
         11    1    1    2    0    0  0.38555475690E+00 -0.11037979352E+00  0.35749590245E+01  0.35973835572E+01  0.51100000000E-03 0. -1.
    9000002    1    1    2    0    0 -0.17924987517E+00  0.13410082783E+00  0.12025932388E+00  0.97181266443E+00  0.93800000000E+00 0.  1.
         22    1    1    2    0    0 -0.20630488173E+00 -0.23721034311E-01  0.30478161899E+00  0.36880377841E+00  0.00000000000E+00 0.  1.
</event>
<event>
 5    1  0.2111786E+001  0.1552096E+01  0.7818608E-02  0.3407057E+00
         11   -1    0    0    0    0  0.00000000000E+00  0.00000000000E+00  0.39999999674E+01  0.40000000000E+01  0.51100000000E-03 0. -1.
    9000002   -1    0    0    0    0 -0.00000000000E+00 -0.00000000000E+00  0.00000000000E+00  0.93800000000E+00  0.93800000000E+00 0. -1.
         11    1    1    2    0    0  0.26719467512E+00 -0.49615790669E-01  0.24738755582E+01  0.24887577744E+01  0.51100000000E-03 0. -1.
    9000002    1    1    2    0    0 -0.21166941208E-01  0.58802774782E-01  0.37955619395E-01  0.94084559560E+00  0.93800000000E+00 0. -1.
         22    1    1    2    0    0 -0.24602773391E+00 -0.91869841135E-02  0.14881687898E+01  0.15083966300E+01  0.00000000000E+00 0. -1.
</event>
<event>
 5    1  0.2111786E+001  0.1594384E+01  0.7818608E-02  0.3359482E+00
         11   -1    0    0    0    0  0.00000000000E+00  0.00000000000E+00  0.39999999674E+01  0.40000000000E+01  0.51100000000E-03 0.  1.
    9000002   -1    0    0    0    0 -0.00000000000E+00 -0.00000000000E+00  0.00000000000E+00  0.93800000000E+00  0.93800000000E+00 0.  1.
         11    1    1    2    0    0 -0.20405613871E+00  0.15349740530E+00  0.21045256264E+01  0.21199596068E+01  0.51100000000E-03 0.  1.
    9000002    1    1    2    0    0  0.51402847565E+00 -0.22204004744E+00  0.22202999522E+00  0.11147503645E+01  0.93800000000E+00 0.  1.
         22    1    1    2    0    0 -0.30997233694E+00  0.68542642140E-01  0.16734443457E+01  0.17032900287E+01  0.00000000000E+00 0. -1.
</event>
<event>
 5    1  0.2111786E+001  0.1524652E+01  0.7818608E-02  0.3439436E+00
         11   -1    0    0    0    0  0.00000000000E+00  0.00000000000E+00  0.39999999674E+01  0.40000000000E+01  0.51100000000E-03 0. -1.
    9000002   -1    0    0    0    0 -0.00000000000E+00 -0.00000000000E+00  0.00000000000E+00  0.93800000000E+00  0.93800000000E+00 0. -1.
         11    1    1    2    0    0 -0.77575298153E-01  0.60345788680E+00  0.28940191848E+01  0.29572836609E+01  0.51100000000E-03 0. -1.
    9000002    1    1    2    0    0 -0.73003885999E-01 -0.46786569975E+00  0.22217621103E+00  0.10739805162E+01  0.93800000000E+00 0. -1.
         22    1    1    2    0    0  0.15057918415E+00 -0.13559218705E+00  0.88380457158E+00  0.90673582295E+00  0.00000000000E+00 0. -1.
</event>
<event>
 5    1  0.2111786E+001  0.1546515E+01  0.7818608E-02  0.3413542E+00
         11   -1    0    0    0    0  0.00000000000E+00  0.00000000000E+00  0.39999999674E+01  0.40000000000E+01  0.51100000000E-03 0. -1.
    9000002   -1    0    0    0    0 -0.00000000000E+00 -0.00000000000E+00  0.00000000000E+00  0.93800000000E+00  0.93800000000E+00 0. -1.
         11    1    1    2    0    0  0.41603018780E-01 -0.26578605096E+00  0.10606378895E+01  0.10942239395E+01  0.51100000000E-03 0. -1.
    9000002    1    1    2    0    0  0.12619418587E+00  0.11345943504E+00  0.59576571152E-01  0.95508710795E+00  0.93800000000E+00 0. -1.
         22    1    1    2    0    0 -0.16779720465E+00  0.15232661592E+00  0.28797855067E+01  0.28886889525E+01  0.00000000000E+00 0. -1.
</event>
<event>
 5    1  0.2111786E+001  0.1547243E+01  0.7818608E-02  0.3412693E+00
         11   -1    0    0    0    0  0.00000000000E+00  0.00000000000E+00  0.39999999674E+01  0.40000000000E+01  0.51100000000E-03 0. -1.
    9000002   -1    0    0    0    0 -0.00000000000E+00 -0.00000000000E+00  0.00000000000E+00  0.93800000000E+00  0.93800000000E+00 0. -1.
         11    1    1    2    0    0  0.32029032318E-01  0.25260716079E+00  0.19578330484E+01  0.19743218438E+01  0.51100000000E-03 0. -1.
    9000002    1    1    2    0    0 -0.12761410457E-01  0.43895062674E-01  0.40402266104E-01  0.93998190048E+00  0.93800000000E+00 0. -1.
         22    1    1    2    0    0 -0.19267621861E-01 -0.29650222346E+00  0.20017646529E+01  0.20236962557E+01  0.00000000000E+00 0. -1.
</event>
<event>
 5    1  0.2111786E+001  0.1564183E+01  0.7818608E-02  0.3393180E+00
         11   -1    0    0    0    0  0.00000000000E+00  0.00000000000E+00  0.39999999674E+01  0.40000000000E+01  0.51100000000E-03 0. -1.
    9000002   -1    0    0    0    0 -0.00000000000E+00 -0.00000000000E+00  0.00000000000E+00  0.93800000000E+00  0.93800000000E+00 0.  1.
         11    1    1    2    0    0 -0.15463754787E+00  0.16177337319E+00  0.13645574144E+01  0.13827872555E+01  0.51100000000E-03 0. -1.
    9000002    1    1    2    0    0 -0.74899462834E-02 -0.41886254032E-01  0.27376538472E-01  0.93936363163E+00  0.93800000000E+00 0.  1.
         22    1    1    2    0    0  0.16212749415E+00 -0.11988711916E+00  0.26080660144E+01  0.26158491129E+01  0.00000000000E+00 0. -1.
</event>
<event>
 5    1  0.2111786E+001  0.1523413E+01  0.7818608E-02  0.3440928E+00
         11   -1    0    0    0    0  0.00000000000E+00  0.00000000000E+00  0.39999999674E+01  0.40000000000E+01  0.51100000000E-03 0. -1.
    9000002   -1    0    0    0    0 -0.00000000000E+00 -0.00000000000E+00  0.00000000000E+00  0.93800000000E+00  0.93800000000E+00 0.  1.
         11    1    1    2    0    0 -0.12180013854E+00  0.32531495335E+00  0.16594808680E+01  0.16954474645E+01  0.51100000000E-03 0. -1.
    9000002    1    1    2    0    0  0.10667740944E+00 -0.14265988944E-01  0.65614483112E-01  0.94643163964E+00  0.93800000000E+00 0.  1.
         22    1    1    2    0    0  0.15122729095E-01 -0.31104896441E+00  0.22749046163E+01  0.22961208958E+01  0.00000000000E+00 0. -1.
</event>
<event>
 5    1  0.2111786E+001  0.1559078E+01  0.7818608E-02  0.3399013E+00
         11   -1    0    0    0    0  0.00000000000E+00  0.00000000000E+00  0.39999999674E+01  0.40000000000E+01  0.51100000000E-03 0. -1.
    9000002   -1    0    0    0    0 -0.00000000000E+00 -0.00000000000E+00  0.00000000000E+00  0.93800000000E+00  0.93800000000E+00 0.  1.
         11    1    1    2    0    0  0.21071949773E+00 -0.51000880563E-01  0.99708447766E+00  0.10203830228E+01  0.51100000000E-03 0. -1.
    9000002    1    1    2    0    0 -0.84475804183E-01 -0.16840553011E+00  0.54425714123E-01  0.95828113955E+00  0.93800000000E+00 0.  1.
         22    1    1    2    0    0 -0.12624369354E+00  0.21940641067E+00  0.29484897756E+01  0.29593358376E+01  0.00000000000E+00 0. -1.
</event>
<event>
 5    1  0.2111786E+001  0.1523985E+01  0.7818608E-02  0.3440238E+00
         11   -1    0    0    0    0  0.00000000000E+00  0.00000000000E+00  0.39999999674E+01  0.40000000000E+01  0.51100000000E-03 0. -1.
    9000002   -1    0    0    0    0 -0.00000000000E+00 -0.00000000000E+00  0.00000000000E+00  0.93800000000E+00  0.93800000000E+00 0. -1.
         11    1    1    2    0    0  0.13415453676E+00 -0.17974938606E+00  0.44529766923E+00  0.49859558448E+00  0.51100000000E-03 0. -1.
    9000002    1    1    2    0    0 -0.20665669177E+00 -0.43885218579E-01  0.88856415829E-01  0.96559430575E+00  0.93800000000E+00 0. -1.
         22    1    1    2    0    0  0.72502155007E-01  0.22363460464E+00  0.34658458823E+01  0.34738101098E+01  0.00000000000E+00 0.  1.
</event>
<event>
 5    1  0.2111786E+001  0.1565011E+01  0.7818608E-02  0.3392237E+00
         11   -1    0    0    0    0  0.00000000000E+00  0.00000000000E+00  0.39999999674E+01  0.40000000000E+01  0.51100000000E-03 0. -1.
    9000002   -1    0    0    0    0 -0.00000000000E+00 -0.00000000000E+00  0.00000000000E+00  0.93800000000E+00  0.93800000000E+00 0. -1.
         11    1    1    2    0    0  0.14067939855E+00  0.16991413254E+00  0.17013808933E+01  0.17156219604E+01  0.51100000000E-03 0. -1.
    9000002    1    1    2    0    0  0.28003712907E-01 -0.21298396597E-01  0.26364992771E-01  0.93902978785E+00  0.93800000000E+00 0. -1.
         22    1    1    2    0    0 -0.16868311146E+00 -0.14861573594E+00  0.22722540812E+01  0.22833482518E+01  0.00000000000E+00 0. -1.
</event>
<event>
 5    1  0.2111786E+001  0.1545977E+01  0.7818608E-02  0.3414170E+00
         11   -1    0    0    0    0  0.00000000000E+00  0.00000000000E+00  0.39999999674E+01  0.40000000000E+01  0.51100000000E-03 0. -1.
    9000002   -1    0    0    0    0 -0.00000000000E+00 -0.00000000000E+00  0.00000000000E+00  0.93800000000E+00  0.93800000000E+00 0. -1.
         11    1    1    2    0    0 -0.14609528859E+00 -0.26973644267E+00  0.24774027011E+01  0.24963224925E+01  0.51100000000E-03 0. -1.
    9000002    1    1    2    0    0  0.26032123240E-01  0.52882865512E-01  0.42332559387E-01  0.94080301577E+00  0.93800000000E+00 0. -1.
         22    1    1    2    0    0  0.12006316535E+00  0.21685357716E+00  0.14802647068E+01  0.15008744917E+01  0.00000000000E+00 0. -1.
</event>
<event>
 5    1  0.2111786E+001  0.1568527E+01  0.7818608E-02  0.3388247E+00
         11   -1    0    0    0    0  0.00000000000E+00  0.00000000000E+00  0.39999999674E+01  0.40000000000E+01  0.51100000000E-03 0. -1.
    9000002   -1    0    0    0    0 -0.00000000000E+00 -0.00000000000E+00  0.00000000000E+00  0.93800000000E+00  0.93800000000E+00 0. -1.
         11    1    1    2    0    0  0.20107747531E+00  0.32994955291E-01  0.21420184330E+01  0.21516886500E+01  0.51100000000E-03 0. -1.
    9000002    1    1    2    0    0 -0.61136549337E-03  0.63674184345E-01  0.25645279518E-01  0.94050861553E+00  0.93800000000E+00 0. -1.
         22    1    1    2    0    0 -0.20046610981E+00 -0.96669139637E-01  0.18323362549E+01  0.18458027345E+01  0.00000000000E+00 0.  1.
</event>
<event>
 5    1  0.2111786E+001  0.1381852E+01  0.7818608E-02  0.3636410E+00
         11   -1    0    0    0    0  0.00000000000E+00  0.00000000000E+00  0.39999999674E+01  0.40000000000E+01  0.51100000000E-03 0.  1.
    9000002   -1    0    0    0    0 -0.00000000000E+00 -0.00000000000E+00  0.00000000000E+00  0.93800000000E+00  0.93800000000E+00 0.  1.
         11    1    1    2    0    0 -0.45191379321E+00  0.43284619247E+00  0.84860352417E+00  0.10543766429E+01  0.51100000000E-03 0.  1.
    9000002    1    1    2    0    0  0.24089341034E+00 -0.49827137881E+00  0.45850286371E+00  0.11816822238E+01  0.93800000000E+00 0.  1.
         22    1    1    2    0    0  0.21102038287E+00  0.65425186341E-01  0.26928935795E+01  0.27019411332E+01  0.00000000000E+00 0.  1.
</event>
<event>
 5    1  0.2111786E+001  0.1525089E+01  0.7818608E-02  0.3438911E+00
         11   -1    0    0    0    0  0.00000000000E+00  0.00000000000E+00  0.39999999674E+01  0.40000000000E+01  0.51100000000E-03 0. -1.
    9000002   -1    0    0    0    0 -0.00000000000E+00 -0.00000000000E+00  0.00000000000E+00  0.93800000000E+00  0.93800000000E+00 0. -1.
         11    1    1    2    0    0  0.11690732301E+00  0.39141504545E+00  0.20898255316E+01  0.21293764518E+01  0.51100000000E-03 0. -1.
    9000002    1    1    2    0    0  0.26993664632E-05 -0.15951502081E+00  0.74181740861E-01  0.95435421755E+00  0.93800000000E+00 0. -1.
         22    1    1    2    0    0 -0.11691002238E+00 -0.23190002464E+00  0.18359926949E+01  0.18542693306E+01  0.00000000000E+00 0. -1.
</event>
<event>
 5    1  0.2111786E+001  0.1565621E+01  0.7818608E-02  0.3391543E+00
         11   -1    0    0    0    0  0.00000000000E+00  0.00000000000E+00  0.39999999674E+01  0.40000000000E+01  0.51100000000E-03 0.  1.
    9000002   -1    0    0    0    0 -0.00000000000E+00 -0.00000000000E+00  0.00000000000E+00  0.93800000000E+00  0.93800000000E+00 0.  1.
         11    1    1    2    0    0 -0.13263617553E+00 -0.11613913749E+00  0.25821434189E+01  0.25881548546E+01  0.51100000000E-03 0.  1.
    9000002    1    1    2    0    0 -0.36524754878E-01 -0.41725035774E-01  0.27158190564E-01  0.94003010784E+00  0.93800000000E+00 0.  1.
         22    1    1    2    0    0  0.16916093041E+00  0.15786417327E+00  0.13906983579E+01  0.14098150376E+01  0.00000000000E+00 0.  1.
</event>
<event>
 5    1  0.2111786E+001  0.1544012E+01  0.7818608E-02  0.3416466E+00
         11   -1    0    0    0    0  0.00000000000E+00  0.00000000000E+00  0.39999999674E+01  0.40000000000E+01  0.51100000000E-03 0. -1.
    9000002   -1    0    0    0    0 -0.00000000000E+00 -0.00000000000E+00  0.00000000000E+00  0.93800000000E+00  0.93800000000E+00 0. -1.
         11    1    1    2    0    0 -0.16335929391E+00  0.27021931277E+00  0.15753503326E+01  0.16066840597E+01  0.51100000000E-03 0. -1.
    9000002    1    1    2    0    0  0.64511323802E-01 -0.70900022197E-01  0.47820947622E-01  0.94409711740E+00  0.93800000000E+00 0. -1.
         22    1    1    2    0    0  0.98847970109E-01 -0.19931929058E+00  0.23768286871E+01  0.23872188229E+01  0.00000000000E+00 0. -1.
</event>
<event>
 5    1  0.2111786E+001  0.1573471E+01  0.7818608E-02  0.3382671E+00
         11   -1    0    0    0    0  0.00000000000E+00  0.00000000000E+00  0.39999999674E+01  0.40000000000E+01  0.51100000000E-03 0.  1.
    9000002   -1    0    0    0    0 -0.00000000000E+00 -0.00000000000E+00  0.00000000000E+00  0.93800000000E+00  0.93800000000E+00 0. -1.
         11    1    1    2    0    0 -0.16743625036E+00 -0.41417761741E-01  0.11485746217E+01  0.11614535082E+01  0.51100000000E-03 0.  1.
    9000002    1    1    2    0    0  0.64015546163E-01 -0.18686834248E+00  0.45712021156E-01  0.95966210535E+00  0.93800000000E+00 0. -1.
         22    1    1    2    0    0  0.10342070420E+00  0.22828610423E+00  0.28057133245E+01  0.28168843865E+01  0.00000000000E+00 0.  1.
</event>
<event>
 5    1  0.2111786E+001  0.1459359E+01  0.7818608E-02  0.3521747E+00
         11   -1    0    0    0    0  0.00000000000E+00  0.00000000000E+00  0.39999999674E+01  0.40000000000E+01  0.51100000000E-03 0. -1.
    9000002   -1    0    0    0    0 -0.00000000000E+00 -0.00000000000E+00  0.00000000000E+00  0.93800000000E+00  0.93800000000E+00 0.  1.
         11    1    1    2    0    0 -0.15630374118E+00 -0.28525644779E+00  0.58326285327E+00  0.66783075524E+00  0.51100000000E-03 0. -1.
    9000002    1    1    2    0    0  0.19262382522E+00 -0.12899698822E+00  0.15086698280E+00  0.97793098300E+00  0.93800000000E+00 0.  1.
         22    1    1    2    0    0 -0.36320084038E-01  0.41425343601E+00  0.32658701313E+01  0.32922382618E+01  0.00000000000E+00 0. -1.
</event>
<event>
 5    1  0.2111786E+001  0.1446523E+01  0.7818608E-02  0.3538878E+00
         11   -1    0    0    0    0  0.00000000000E+00  0.00000000000E+00  0.39999999674E+01  0.40000000000E+01  0.51100000000E-03 0.  1.
    9000002   -1    0    0    0    0 -0.00000000000E+00 -0.00000000000E+00  0.00000000000E+00  0.93800000000E+00  0.93800000000E+00 0.  1.
         11    1    1    2    0    0  0.38572708815E+00 -0.32258988565E+00  0.15193181357E+01  0.16003679201E+01  0.51100000000E-03 0.  1.
    9000002    1    1    2    0    0 -0.17886461156E+00 -0.36882752117E-01  0.14636508111E+00  0.96675727235E+00  0.93800000000E+00 0.  1.
         22    1    1    2    0    0 -0.20686247659E+00  0.35947263776E+00  0.23343167505E+01  0.23708748076E+01  0.00000000000E+00 0.  1.
</event>
<event>
 5    1  0.2111786E+001  0.1559105E+01  0.7818608E-02  0.3398981E+00
         11   -1    0    0    0    0  0.00000000000E+00  0.00000000000E+00  0.39999999674E+01  0.40000000000E+01  0.51100000000E-03 0.  1.
    9000002   -1    0    0    0    0 -0.00000000000E+00 -0.00000000000E+00  0.00000000000E+00  0.93800000000E+00  0.93800000000E+00 0.  1.
         11    1    1    2    0    0  0.19464440173E+00 -0.28532564551E+00  0.19097746827E+01  0.19407567511E+01  0.51100000000E-03 0.  1.
    9000002    1    1    2    0    0 -0.29356470978E+00  0.98571520945E-01  0.96666924571E-01  0.99251452275E+00  0.93800000000E+00 0.  1.
         22    1    1    2    0    0  0.98920308058E-01  0.18675412456E+00  0.19935583601E+01  0.20047287261E+01  0.00000000000E+00 0.  1.
</event>
<event>
 5    1  0.2111786E+001  0.1561884E+01  0.7818608E-02  0.3395801E+00
         11   -1    0    0    0    0  0.00000000000E+00  0.00000000000E+00  0.39999999674E+01  0.40000000000E+01  0.51100000000E-03 0.  1.
    9000002   -1    0    0    0    0 -0.00000000000E+00 -0.00000000000E+00  0.00000000000E+00  0.93800000000E+00  0.93800000000E+00 0. -1.
         11    1    1    2    0    0  0.14833536140E+00 -0.17158562851E+00  0.12534883643E+01  0.12738439261E+01  0.51100000000E-03 0.  1.
    9000002    1    1    2    0    0  0.12591238507E-01  0.50568517675E-01  0.29723377568E-01  0.93991658856E+00  0.93800000000E+00 0. -1.
         22    1    1    2    0    0 -0.16092659990E+00  0.12101711084E+00  0.27167882255E+01  0.27242394854E+01  0.00000000000E+00 0.  1.
</event>
<event>
 5    1  0.2111786E+001  0.1495884E+01  0.7818608E-02  0.3474747E+00
         11   -1    0    0    0    0  0.00000000000E+00  0.00000000000E+00  0.39999999674E+01  0.40000000000E+01  0.51100000000E-03 0.  1.
    9000002   -1    0    0    0    0 -0.00000000000E+00 -0.00000000000E+00  0.00000000000E+00  0.93800000000E+00  0.93800000000E+00 0. -1.
         11    1    1    2    0    0  0.13518217094E+00 -0.31322632233E+00  0.84966869104E+00  0.91559930864E+00  0.51100000000E-03 0.  1.
    9000002    1    1    2    0    0 -0.95783297767E-01  0.49307795794E-01  0.87770717707E-01  0.94823699450E+00  0.93800000000E+00 0. -1.
         22    1    1    2    0    0 -0.39398873170E-01  0.26391852654E+00  0.30625605586E+01  0.30741636969E+01  0.00000000000E+00 0.  1.
</event>
<event>
 5    1  0.2111786E+001  0.1513005E+01  0.7818608E-02  0.3453558E+00
         11   -1    0    0    0    0  0.00000000000E+00  0.00000000000E+00  0.39999999674E+01  0.40000000000E+01  0.51100000000E-03 0.  1.
    9000002   -1    0    0    0    0 -0.00000000000E+00 -0.00000000000E+00  0.00000000000E+00  0.93800000000E+00  0.93800000000E+00 0.  1.
         11    1    1    2    0    0  0.16005827393E+00  0.26132353542E+00  0.21629588738E+01  0.21845594503E+01  0.51100000000E-03 0.  1.
    9000002    1    1    2    0    0 -0.13462383277E-02  0.96827708711E-01  0.72311871179E-01  0.94575389201E+00  0.93800000000E+00 0.  1.
         22    1    1    2    0    0 -0.15871203561E+00 -0.35815124413E+00  0.17647292224E+01  0.18076866577E+01  0.00000000000E+00 0.  1.
</event>
<event>
 5    1  0.2111786E+001  0.1598229E+01  0.7818608E-02  0.3355288E+00
         11   -1    0    0    0    0  0.00000000000E+00  0.00000000000E+00  0.39999999674E+01  0.40000000000E+01  0.51100000000E-03 0.  1.
    9000002   -1    0    0    0    0 -0.00000000000E+00 -0.00000000000E+00  0.00000000000E+00  0.93800000000E+00  0.93800000000E+00 0.  1.
         11    1    1    2    0    0  0.14028822166E-02  0.14016793589E+00  0.11880609017E+01  0.11963017954E+01  0.51100000000E-03 0.  1.
    9000002    1    1    2    0    0  0.12599571244E+00 -0.41321320590E+00  0.12765582024E+00  0.10405575820E+01  0.93800000000E+00 0.  1.
         22    1    1    2    0    0 -0.12739859466E+00  0.27304527002E+00  0.26842832454E+01  0.27011406226E+01  0.00000000000E+00 0.  1.
</event>
<event>
 5    1  0.2111786E+001  0.1543854E+01  0.7818608E-02  0.3416652E+00
         11   -1    0    0    0    0  0.00000000000E+00  0.00000000000E+00  0.39999999674E+01  0.40000000000E+01  0.51100000000E-03 0. -1.
    9000002   -1    0    0    0    0 -0.00000000000E+00 -0.00000000000E+00  0.00000000000E+00  0.93800000000E+00  0.93800000000E+00 0. -1.
         11    1    1    2    0    0 -0.73672888016E-01  0.18256497112E+00  0.31023163773E+01  0.31085567116E+01  0.51100000000E-03 0. -1.
    9000002    1    1    2    0    0 -0.69535276634E-01  0.18724765730E-01  0.45153358630E-01  0.94184319148E+00  0.93800000000E+00 0. -1.
         22    1    1    2    0    0  0.14320816465E+00 -0.20128973685E+00  0.85253023140E+00  0.88760009691E+00  0.00000000000E+00 0.  1.
</event>
<event>
 5    1  0.2111786E+001  0.1589282E+01  0.7818608E-02  0.3365079E+00
         11   -1    0    0    0    0  0.00000000000E+00  0.00000000000E+00  0.39999999674E+01  0.40000000000E+01  0.51100000000E-03 0. -1.
    9000002   -1    0    0    0    0 -0.00000000000E+00 -0.00000000000E+00  0.00000000000E+00  0.93800000000E+00  0.93800000000E+00 0. -1.
         11    1    1    2    0    0  0.13623114739E+00  0.74399925097E-01  0.13013831375E+01  0.13106077239E+01  0.51100000000E-03 0. -1.
    9000002    1    1    2    0    0 -0.71943796570E-01 -0.30515413133E+00  0.73898745437E-01  0.99176609052E+00  0.93800000000E+00 0. -1.
         22    1    1    2    0    0 -0.64287350822E-01  0.23075420623E+00  0.26247180844E+01  0.26356261855E+01  0.00000000000E+00 0. -1.
</event>
<event>
 5    1  0.2111786E+001  0.1585194E+01  0.7818608E-02  0.3369591E+00
         11   -1    0    0    0    0  0.00000000000E+00  0.00000000000E+00  0.39999999674E+01  0.40000000000E+01  0.51100000000E-03 0.  1.
    9000002   -1    0    0    0    0 -0.00000000000E+00 -0.00000000000E+00  0.00000000000E+00  0.93800000000E+00  0.93800000000E+00 0. -1.
         11    1    1    2    0    0  0.17628703234E+00  0.23843816875E+00  0.30158700235E+01  0.30304128659E+01  0.51100000000E-03 0.  1.
    9000002    1    1    2    0    0 -0.36913353756E+00 -0.34004890929E+00  0.18567523006E+00  0.10799130152E+01  0.93800000000E+00 0. -1.
         22    1    1    2    0    0  0.19284650522E+00  0.10161074053E+00  0.79845471380E+00  0.82767411894E+00  0.00000000000E+00 0. -1.
</event>
<event>
 5    1  0.2111786E+001  0.1548245E+01  0.7818608E-02  0.3411526E+00
         11   -1    0    0    0    0  0.00000000000E+00  0.00000000000E+00  0.39999999674E+01  0.40000000000E+01  0.51100000000E-03 0.  1.
    9000002   -1    0    0    0    0 -0.00000000000E+00 -0.00000000000E+00  0.00000000000E+00  0.93800000000E+00  0.93800000000E+00 0. -1.
         11    1    1    2    0    0  0.58089082719E-01 -0.21258032429E+00  0.22214890518E+01  0.22323930219E+01  0.51100000000E-03 0.  1.
    9000002    1    1    2    0    0  0.15354842227E+00 -0.29458793374E-01  0.55180434963E-01  0.95254071771E+00  0.93800000000E+00 0. -1.
         22    1    1    2    0    0 -0.21163750499E+00  0.24203911767E+00  0.17233304806E+01  0.17530662604E+01  0.00000000000E+00 0.  1.
</event>
<event>
 5    1  0.2111786E+001  0.1482423E+01  0.7818608E-02  0.3491776E+00
         11   -1    0    0    0    0  0.00000000000E+00  0.00000000000E+00  0.39999999674E+01  0.40000000000E+01  0.51100000000E-03 0. -1.
    9000002   -1    0    0    0    0 -0.00000000000E+00 -0.00000000000E+00  0.00000000000E+00  0.93800000000E+00  0.93800000000E+00 0. -1.
         11    1    1    2    0    0 -0.22218366466E+00  0.18833501649E+00  0.33649925095E+00  0.44504793706E+00  0.51100000000E-03 0. -1.
    9000002    1    1    2    0    0 -0.11640767044E+00  0.19201229156E+00  0.19089823727E+00  0.98321188095E+00  0.93800000000E+00 0. -1.
         22    1    1    2    0    0  0.33859133509E+00 -0.38034730804E+00  0.34726024791E+01  0.35097401820E+01  0.00000000000E+00 0. -1.
</event>
<event>
 5    1  0.2111786E+001  0.1557087E+01  0.7818608E-02  0.3401299E+00
         11   -1    0    0    0    0  0.00000000000E+00  0.00000000000E+00  0.39999999674E+01  0.40000000000E+01  0.51100000000E-03 0.  1.
    9000002   -1    0    0    0    0 -0.00000000000E+00 -0.00000000000E+00  0.00000000000E+00  0.93800000000E+00  0.93800000000E+00 0. -1.
         11    1    1    2    0    0 -0.22374425255E+00  0.12274629325E+00  0.18107619920E+01  0.18286572658E+01  0.51100000000E-03 0.  1.
    9000002    1    1    2    0    0 -0.10176906569E-02 -0.39822749867E-01  0.32571005701E-01  0.93941032436E+00  0.93800000000E+00 0. -1.
         22    1    1    2    0    0  0.22476194320E+00 -0.82923543380E-01  0.21566669697E+01  0.21699324098E+01  0.00000000000E+00 0.  1.
</event>
<event>
 5    1  0.2111786E+001  0.1424504E+01  0.7818608E-02  0.3569050E+00
         11   -1    0    0    0    0  0.00000000000E+00  0.00000000000E+00  0.39999999674E+01  0.40000000000E+01  0.51100000000E-03 0.  1.
    9000002   -1    0    0    0    0 -0.00000000000E+00 -0.00000000000E+00  0.00000000000E+00  0.93800000000E+00  0.93800000000E+00 0.  1.
         11    1    1    2    0    0  0.33988065005E+00 -0.37677782085E+00  0.34766657312E+01  0.35135004269E+01  0.51100000000E-03 0.  1.
    9000002    1    1    2    0    0 -0.81116867874E-01  0.27308336701E+00  0.20527691083E+00  0.10015673126E+01  0.93800000000E+00 0.  1.
         22    1    1    2    0    0 -0.25876378217E+00  0.10369445383E+00  0.31805732535E+00  0.42293226045E+00  0.00000000000E+00 0.  1.
</event>
<event>
 5    1  0.2111786E+001  0.1582865E+01  0.7818608E-02  0.3372174E+00
         11   -1    0    0    0    0  0.00000000000E+00  0.00000000000E+00  0.39999999674E+01  0.40000000000E+01  0.51100000000E-03 0.  1.
    9000002   -1    0    0    0    0 -0.00000000000E+00 -0.00000000000E+00  0.00000000000E+00  0.93800000000E+00  0.93800000000E+00 0.  1.
         11    1    1    2    0    0 -0.91076793036E-01 -0.80372362998E-01  0.14208857311E+01  0.14260684489E+01  0.51100000000E-03 0.  1.
    9000002    1    1    2    0    0 -0.80190408750E-02 -0.10061498497E+00  0.19092944379E-01  0.94360808641E+00  0.93800000000E+00 0.  1.
         22    1    1    2    0    0  0.99095833911E-01  0.18098734796E+00  0.25600212919E+01  0.25683234647E+01  0.00000000000E+00 0.  1.
</event>
<event>
 5    1  0.2111786E+001  0.1529391E+01  0.7818608E-02  0.3433756E+00
         11   -1    0    0    0    0  0.00000000000E+00  0.00000000000E+00  0.39999999674E+01  0.40000000000E+01  0.51100000000E-03 0.  1.
    9000002   -1    0    0    0    0 -0.00000000000E+00 -0.00000000000E+00  0.00000000000E+00  0.93800000000E+00  0.93800000000E+00 0.  1.
         11    1    1    2    0    0 -0.29824291740E+00  0.17652137999E-01  0.94182752637E+00  0.98807883608E+00  0.51100000000E-03 0.  1.
    9000002    1    1    2    0    0  0.11077287723E+00  0.82534165082E-01  0.66219438534E-01  0.95042702654E+00  0.93800000000E+00 0.  1.
         22    1    1    2    0    0  0.18747004018E+00 -0.10018630308E+00  0.29919530025E+01  0.29994941374E+01  0.00000000000E+00 0.  1.
</event>
<event>
 5    1  0.2111786E+001  0.1518815E+01  0.7818608E-02  0.3446484E+00
         11   -1    0    0    0    0  0.00000000000E+00  0.00000000000E+00  0.39999999674E+01  0.40000000000E+01  0.51100000000E-03 0.  1.
    9000002   -1    0    0    0    0 -0.00000000000E+00 -0.00000000000E+00  0.00000000000E+00  0.93800000000E+00  0.93800000000E+00 0.  1.
         11    1    1    2    0    0 -0.27650274806E+00 -0.36569985915E+00  0.54770495666E+00  0.71426265291E+00  0.51100000000E-03 0.  1.
    9000002    1    1    2    0    0  0.33142877274E+00  0.37261668867E-01  0.28019740916E+00  0.10342089013E+01  0.93800000000E+00 0.  1.
         22    1    1    2    0    0 -0.54926024686E-01  0.32843819028E+00  0.31720976015E+01  0.31895284458E+01  0.00000000000E+00 0.  1.
</event>
<event>
 5    1  0.2111786E+001  0.1563352E+01  0.7818608E-02  0.3394126E+00
         11   -1    0    0    0    0  0.00000000000E+00  0.00000000000E+00  0.39999999674E+01  0.40000000000E+01  0.51100000000E-03 0. -1.
    9000002   -1    0    0    0    0 -0.00000000000E+00 -0.00000000000E+00  0.00000000000E+00  0.93800000000E+00  0.93800000000E+00 0. -1.
         11    1    1    2    0    0 -0.28938973482E+00  0.38319935796E+00  0.20118969731E+01  0.20684094996E+01  0.51100000000E-03 0. -1.
    9000002    1    1    2    0    0  0.51857342746E+00 -0.28515281982E+00  0.28066040711E+00  0.11440475490E+01  0.93800000000E+00 0. -1.
         22    1    1    2    0    0 -0.22918369264E+00 -0.98046538137E-01  0.17074425872E+01  0.17255429514E+01  0.00000000000E+00 0.  1.
</event>
<event>
 5    1  0.2111786E+001  0.1563423E+01  0.7818608E-02  0.3394046E+00
         11   -1    0    0    0    0  0.00000000000E+00  0.00000000000E+00  0.39999999674E+01  0.40000000000E+01  0.51100000000E-03 0.  1.
    9000002   -1    0    0    0    0 -0.00000000000E+00 -0.00000000000E+00  0.00000000000E+00  0.93800000000E+00  0.93800000000E+00 0.  1.
         11    1    1    2    0    0  0.28056576415E+00 -0.18432843560E+00  0.28715527203E+01  0.28911086812E+01  0.51100000000E-03 0.  1.
    9000002    1    1    2    0    0 -0.11061190118E+00  0.29839811204E+00  0.96912500681E-01  0.99524492400E+00  0.93800000000E+00 0.  1.
         22    1    1    2    0    0 -0.16995386298E+00 -0.11406967644E+00  0.10315347464E+01  0.10516463948E+01  0.00000000000E+00 0.  1.
</event>
<event>
 5    1  0.2111786E+001  0.1559189E+01  0.7818608E-02  0.3398885E+00
         11   -1    0    0    0    0  0.00000000000E+00  0.00000000000E+00  0.39999999674E+01  0.40000000000E+01  0.51100000000E-03 0. -1.
    9000002   -1    0    0    0    0 -0.00000000000E+00 -0.00000000000E+00  0.00000000000E+00  0.93800000000E+00  0.93800000000E+00 0.  1.
         11    1    1    2    0    0 -0.15076897720E+00 -0.89028717435E-01  0.66319825886E+00  0.68592243635E+00  0.51100000000E-03 0. -1.
    9000002    1    1    2    0    0 -0.21560031867E-01 -0.38640771969E-01  0.31236810923E-01  0.93956249531E+00  0.93800000000E+00 0.  1.
         22    1    1    2    0    0  0.17232900907E+00  0.12766948940E+00  0.33055648976E+01  0.33125150683E+01  0.00000000000E+00 0. -1.
</event>
<event>
 5    1  0.2111786E+001  0.1480762E+01  0.7818608E-02  0.3493901E+00
         11   -1    0    0    0    0  0.00000000000E+00  0.00000000000E+00  0.39999999674E+01  0.40000000000E+01  0.51100000000E-03 0.  1.
    9000002   -1    0    0    0    0 -0.00000000000E+00 -0.00000000000E+00  0.00000000000E+00  0.93800000000E+00  0.93800000000E+00 0. -1.
         11    1    1    2    0    0  0.41273252827E+00  0.16854898443E+00  0.16186180091E+01  0.16788929152E+01  0.51100000000E-03 0.  1.
    9000002    1    1    2    0    0 -0.10596825211E+00  0.23312148199E-01  0.10036698042E+00  0.94957372408E+00  0.93800000000E+00 0. -1.
         22    1    1    2    0    0 -0.30676427616E+00 -0.19186113263E+00  0.22810149778E+01  0.23095333608E+01  0.00000000000E+00 0.  1.
</event>
<event>
 5    1  0.2111786E+001  0.1548257E+01  0.7818608E-02  0.3411512E+00
         11   -1    0    0    0    0  0.00000000000E+00  0.00000000000E+00  0.39999999674E+01  0.40000000000E+01  0.51100000000E-03 0. -1.
    9000002   -1    0    0    0    0 -0.00000000000E+00 -0.00000000000E+00  0.00000000000E+00  0.93800000000E+00  0.93800000000E+00 0.  1.
         11    1    1    2    0    0  0.18830444421E+00  0.28085781120E+00  0.23232461626E+01  0.23477249981E+01  0.51100000000E-03 0. -1.
    9000002    1    1    2    0    0 -0.21910696757E-01 -0.13174740622E+00  0.50564924498E-01  0.94880886867E+00  0.93800000000E+00 0.  1.
         22    1    1    2    0    0 -0.16639374745E+00 -0.14911040498E+00  0.16261888803E+01  0.16414661332E+01  0.00000000000E+00 0. -1.
</event>
<event>
 5    1  0.2111786E+001  0.1532534E+01  0.7818608E-02  0.3430009E+00
         11   -1    0    0    0    0  0.00000000000E+00  0.00000000000E+00  0.39999999674E+01  0.40000000000E+01  0.51100000000E-03 0.  1.
    9000002   -1    0    0    0    0 -0.00000000000E+00 -0.00000000000E+00  0.00000000000E+00  0.93800000000E+00  0.93800000000E+00 0.  1.
         11    1    1    2    0    0 -0.14045815537E+00  0.22239584699E+00  0.18468832187E+01  0.18655203807E+01  0.51100000000E-03 0.  1.
    9000002    1    1    2    0    0  0.72700903732E-01  0.14931376534E+00  0.69760793028E-01  0.95513904232E+00  0.93800000000E+00 0.  1.
         22    1    1    2    0    0  0.67757251637E-01 -0.37170961234E+00  0.20833559557E+01  0.21173405770E+01  0.00000000000E+00 0.  1.
</event>
<event>
 5    1  0.2111786E+001  0.1565330E+01  0.7818608E-02  0.3391874E+00
         11   -1    0    0    0    0  0.00000000000E+00  0.00000000000E+00  0.39999999674E+01  0.40000000000E+01  0.51100000000E-03 0. -1.
    9000002   -1    0    0    0    0 -0.00000000000E+00 -0.00000000000E+00  0.00000000000E+00  0.93800000000E+00  0.93800000000E+00 0. -1.
         11    1    1    2    0    0  0.18572375279E+00 -0.21095999228E-01  0.15265034772E+01  0.15379048997E+01  0.51100000000E-03 0. -1.
    9000002    1    1    2    0    0  0.52880849210E-01 -0.12188894199E+00  0.37329326548E-01  0.94809850597E+00  0.93800000000E+00 0. -1.
         22    1    1    2    0    0 -0.23860460200E+00  0.14298494122E+00  0.24361671636E+01  0.24519965943E+01  0.00000000000E+00 0. -1.
</event>
<event>
 5    1  0.2111786E+001  0.1409238E+01  0.7818608E-02  0.3592181E+00
         11   -1    0    0    0    0  0.00000000000E+00  0.00000000000E+00  0.39999999674E+01  0.40000000000E+01  0.51100000000E-03 0.  1.
    9000002   -1    0    0    0    0 -0.00000000000E+00 -0.00000000000E+00  0.00000000000E+00  0.93800000000E+00  0.93800000000E+00 0. -1.
         11    1    1    2    0    0 -0.47557118149E+00  0.28620049816E+00  0.19651004625E+01  0.20419840261E+01  0.51100000000E-03 0.  1.
    9000002    1    1    2    0    0  0.32999254583E-01 -0.60412704151E-01  0.15704160818E+00  0.95354324093E+00  0.93800000000E+00 0. -1.
         22    1    1    2    0    0  0.44257192691E+00 -0.22578779400E+00  0.18778578966E+01  0.19424727330E+01  0.00000000000E+00 0. -1.
</event>
<event>
 5    1  0.2111786E+001  0.1531508E+01  0.7818608E-02  0.3431230E+00
         11   -1    0    0    0    0  0.00000000000E+00  0.00000000000E+00  0.39999999674E+01  0.40000000000E+01  0.51100000000E-03 0.  1.
    9000002   -1    0    0    0    0 -0.00000000000E+00 -0.00000000000E+00  0.00000000000E+00  0.93800000000E+00  0.93800000000E+00 0.  1.
         11    1    1    2    0    0 -0.31408842655E+00 -0.24859725623E+00  0.13806068930E+01  0.14375422741E+01  0.51100000000E-03 0.  1.
    9000002    1    1    2    0    0  0.99719533101E-01  0.35861862773E+00  0.15106865218E+00  0.10204004327E+01  0.93800000000E+00 0.  1.
         22    1    1    2    0    0  0.21436889345E+00 -0.11002137149E+00  0.24683244221E+01  0.24800572932E+01  0.00000000000E+00 0.  1.
</event>
<event>
 5    1  0.2111786E+001  0.1450777E+01  0.7818608E-02  0.3533164E+00
         11   -1    0    0    0    0  0.00000000000E+00  0.00000000000E+00  0.39999999674E+01  0.40000000000E+01  0.51100000000E-03 0.  1.
    9000002   -1    0    0    0    0 -0.00000000000E+00 -0.00000000000E+00  0.00000000000E+00  0.93800000000E+00  0.93800000000E+00 0. -1.
         11    1    1    2    0    0  0.29932570055E+00 -0.37417167017E+00  0.10213912014E+01  0.11282023582E+01  0.51100000000E-03 0.  1.
    9000002    1    1    2    0    0 -0.25895090503E+00  0.60505348079E-01  0.17762330968E+00  0.99101488813E+00  0.93800000000E+00 0. -1.
         22    1    1    2    0    0 -0.40374795519E-01  0.31366632209E+00  0.28009854563E+01  0.28187827536E+01  0.00000000000E+00 0.  1.
</event>
<event>
 5    1  0.2111786E+001  0.1518884E+01  0.7818608E-02  0.3446401E+00
         11   -1    0    0    0    0  0.00000000000E+00  0.00000000000E+00  0.39999999674E+01  0.40000000000E+01  0.51100000000E-03 0. -1.
    9000002   -1    0    0    0    0 -0.00000000000E+00 -0.00000000000E+00  0.00000000000E+00  0.93800000000E+00  0.93800000000E+00 0.  1.
         11    1    1    2    0    0 -0.20352790858E+00  0.22701734663E+00  0.84391572101E+00  0.89730401232E+00  0.51100000000E-03 0. -1.
    9000002    1    1    2    0    0  0.15160270181E+00 -0.14586175115E-02  0.77397029158E-01  0.95332041145E+00  0.93800000000E+00 0.  1.
         22    1    1    2    0    0  0.51925206773E-01 -0.22555872912E+00  0.30786872172E+01  0.30873755762E+01  0.00000000000E+00 0. -1.
</event>
<event>
 5    1  0.2111786E+001  0.1532182E+01  0.7818608E-02  0.3430429E+00
         11   -1    0    0    0    0  0.00000000000E+00  0.00000000000E+00  0.39999999674E+01  0.40000000000E+01  0.51100000000E-03 0.  1.
    9000002   -1    0    0    0    0 -0.00000000000E+00 -0.00000000000E+00  0.00000000000E+00  0.93800000000E+00  0.93800000000E+00 0.  1.
         11    1    1    2    0    0 -0.43438489010E-01 -0.35021136539E+00  0.10023181741E+01  0.10626273505E+01  0.51100000000E-03 0.  1.
    9000002    1    1    2    0    0  0.41319503186E+00  0.29734975125E+00  0.24178753281E+00  0.10942815999E+01  0.93800000000E+00 0.  1.
         22    1    1    2    0    0 -0.36975654285E+00  0.52861614140E-01  0.27558942604E+01  0.27810910495E+01  0.00000000000E+00 0.  1.
</event>
<event>
 5    1  0.2111786E+001  0.1557891E+01  0.7818608E-02  0.3400374E+00
         11   -1    0    0    0    0  0.00000000000E+00  0.00000000000E+00  0.39999999674E+01  0.40000000000E+01  0.51100000000E-03 0.  1.
    9000002   -1    0    0    0    0 -0.00000000000E+00 -0.00000000000E+00  0.00000000000E+00  0.93800000000E+00  0.93800000000E+00 0.  1.
         11    1    1    2    0    0 -0.13134764431E-01 -0.17441132147E+00  0.86308290811E+00  0.88062716202E+00  0.51100000000E-03 0.  1.
    9000002    1    1    2    0    0  0.27752765874E-01 -0.13240735705E+00  0.43458475226E-01  0.94870151432E+00  0.93800000000E+00 0.  1.
         22    1    1    2    0    0 -0.14618001443E-01  0.30681867851E+00  0.30934585840E+01  0.31086713237E+01  0.00000000000E+00 0.  1.
</event>
<event>
 5    1  0.2111786E+001  0.1489192E+01  0.7818608E-02  0.3483171E+00
         11   -1    0    0    0    0  0.00000000000E+00  0.00000000000E+00  0.39999999674E+01  0.40000000000E+01  0.51100000000E-03 0. -1.
    9000002   -1    0    0    0    0 -0.00000000000E+00 -0.00000000000E+00  0.00000000000E+00  0.93800000000E+00  0.93800000000E+00 0. -1.
         11    1    1    2    0    0 -0.23041914465E+00 -0.50409256118E-02  0.31400917836E+00  0.38951305288E+00  0.51100000000E-03 0. -1.
    9000002    1    1    2    0    0  0.34773122114E-01 -0.16469430999E+00  0.10568641660E+00  0.95882584676E+00  0.93800000000E+00 0. -1.
         22    1    1    2    0    0  0.19564602253E+00  0.16973523560E+00  0.35803043724E+01  0.35896611004E+01  0.00000000000E+00 0. -1.
</event>
<event>
 5    1  0.2111786E+001  0.1565568E+01  0.7818608E-02  0.3391604E+00
         11   -1    0    0    0    0  0.00000000000E+00  0.00000000000E+00  0.39999999674E+01  0.40000000000E+01  0.51100000000E-03 0. -1.
    9000002   -1    0    0    0    0 -0.00000000000E+00 -0.00000000000E+00  0.00000000000E+00  0.93800000000E+00  0.93800000000E+00 0.  1.
         11    1    1    2    0    0 -0.17788544358E+00  0.44164859857E+00  0.19809573893E+01  0.20373731015E+01  0.51100000000E-03 0. -1.
    9000002    1    1    2    0    0 -0.59419572799E-02 -0.58734756092E+00  0.27434074683E+00  0.11402277446E+01  0.93800000000E+00 0.  1.
         22    1    1    2    0    0  0.18382740086E+00  0.14569896235E+00  0.17447018313E+01  0.17603991539E+01  0.00000000000E+00 0. -1.
</event>
<event>
 5    1  0.2111786E+001  0.1578155E+01  0.7818608E-02  0.3377420E+00
         11   -1    0    0    0    0  0.00000000000E+00  0.00000000000E+00  0.39999999674E+01  0.40000000000E+01  0.51100000000E-03 0.  1.
    9000002   -1    0    0    0    0 -0.00000000000E+00 -0.00000000000E+00  0.00000000000E+00  0.93800000000E+00  0.93800000000E+00 0.  1.
         11    1    1    2    0    0  0.14439644867E-01 -0.15254334998E+00  0.14027182709E+01  0.14110622898E+01  0.51100000000E-03 0.  1.
    9000002    1    1    2    0    0  0.11800967248E+00 -0.18650978971E-01  0.25353987220E-01  0.94591805485E+00  0.93800000000E+00 0.  1.
         22    1    1    2    0    0 -0.13244931735E+00  0.17119432896E+00  0.25719277092E+01  0.25810196554E+01  0.00000000000E+00 0.  1.
</event>
<event>
 5    1  0.2111786E+001  0.1496204E+01  0.7818608E-02  0.3474346E+00
         11   -1    0    0    0    0  0.00000000000E+00  0.00000000000E+00  0.39999999674E+01  0.40000000000E+01  0.51100000000E-03 0. -1.
    9000002   -1    0    0    0    0 -0.00000000000E+00 -0.00000000000E+00  0.00000000000E+00  0.93800000000E+00  0.93800000000E+00 0.  1.
         11    1    1    2    0    0  0.39243479661E+00  0.68359772106E+00  0.29125442161E+01  0.30173208291E+01  0.51100000000E-03 0. -1.
    9000002    1    1    2    0    0 -0.39414655618E+00 -0.47982555672E+00  0.38454266271E+00  0.11888234234E+01  0.93800000000E+00 0.  1.
         22    1    1    2    0    0  0.17117595646E-02 -0.20377216433E+00  0.70291308854E+00  0.73185574748E+00  0.00000000000E+00 0. -1.
</event>
<event>
 5    1  0.2111786E+001  0.1356572E+01  0.7818608E-02  0.3679117E+00
         11   -1    0    0    0    0  0.00000000000E+00  0.00000000000E+00  0.39999999674E+01  0.40000000000E+01  0.51100000000E-03 0. -1.
    9000002   -1    0    0    0    0 -0.00000000000E+00 -0.00000000000E+00  0.00000000000E+00  0.93800000000E+00  0.93800000000E+00 0. -1.
         11    1    1    2    0    0  0.50995132116E+00  0.65564536763E+00  0.17804380089E+01  0.19646579760E+01  0.51100000000E-03 0. -1.
    9000002    1    1    2    0    0 -0.23632909414E+00 -0.41254072836E+00  0.41255792094E+00  0.11296412401E+01  0.93800000000E+00 0. -1.
         22    1    1    2    0    0 -0.27362222702E+00 -0.24310463927E+00  0.18070040375E+01  0.18437007838E+01  0.00000000000E+00 0. -1.
</event>
<event>
 5    1  0.2111786E+001  0.1596382E+01  0.7818608E-02  0.3357300E+00
         11   -1    0    0    0    0  0.00000000000E+00  0.00000000000E+00  0.39999999674E+01  0.40000000000E+01  0.51100000000E-03 0.  1.
    9000002   -1    0    0    0    0 -0.00000000000E+00 -0.00000000000E+00  0.00000000000E+00  0.93800000000E+00  0.93800000000E+00 0. -1.
         11    1    1    2    0    0 -0.24270510422E+00  0.21683545722E+00  0.19564604988E+01  0.19833459929E+01  0.51100000000E-03 0.  1.
    9000002    1    1    2    0    0  0.35764280839E+00 -0.49254813268E+00  0.26230553421E+00  0.11485470102E+01  0.93800000000E+00 0. -1.
         22    1    1    2    0    0 -0.11493770416E+00  0.27571267546E+00  0.17812339344E+01  0.18061069969E+01  0.00000000000E+00 0.  1.
</event>
<event>
 5    1  0.2111786E+001  0.1563708E+01  0.7818608E-02  0.3393721E+00
         11   -1    0    0    0    0  0.00000000000E+00  0.00000000000E+00  0.39999999674E+01  0.40000000000E+01  0.51100000000E-03 0.  1.
    9000002   -1    0    0    0    0 -0.00000000000E+00 -0.00000000000E+00  0.00000000000E+00  0.93800000000E+00  0.93800000000E+00 0. -1.
         11    1    1    2    0    0 -0.24343924652E-01  0.93651554799E-01  0.26847286437E+01  0.26864719228E+01  0.51100000000E-03 0.  1.
    9000002    1    1    2    0    0 -0.17359238152E+00  0.96590758902E-01  0.53567288171E-01  0.96030075705E+00  0.93800000000E+00 0. -1.
         22    1    1    2    0    0  0.19793630617E+00 -0.19024231370E+00  0.12617040355E+01  0.12912273202E+01  0.00000000000E+00 0.  1.
</event>
<event>
 5    1  0.2111786E+001  0.1562602E+01  0.7818608E-02  0.3394982E+00
         11   -1    0    0    0    0  0.00000000000E+00  0.00000000000E+00  0.39999999674E+01  0.40000000000E+01  0.51100000000E-03 0.  1.
    9000002   -1    0    0    0    0 -0.00000000000E+00 -0.00000000000E+00  0.00000000000E+00  0.93800000000E+00  0.93800000000E+00 0.  1.
         11    1    1    2    0    0  0.16427489375E+00  0.10700091513E+00  0.17883629930E+01  0.17990769556E+01  0.51100000000E-03 0.  1.
    9000002    1    1    2    0    0  0.10013966549E+00 -0.23419220281E-01  0.34557857009E-01  0.94425349243E+00  0.93800000000E+00 0.  1.
         22    1    1    2    0    0 -0.26441455924E+00 -0.83581694851E-01  0.21770791174E+01  0.21946695519E+01  0.00000000000E+00 0.  1.
</event>
<event>
 5    1  0.2111786E+001  0.1553874E+01  0.7818608E-02  0.3405001E+00
         11   -1    0    0    0    0  0.00000000000E+00  0.00000000000E+00  0.39999999674E+01  0.40000000000E+01  0.51100000000E-03 0.  1.
    9000002   -1    0    0    0    0 -0.00000000000E+00 -0.00000000000E+00  0.00000000000E+00  0.93800000000E+00  0.93800000000E+00 0. -1.
         11    1    1    2    0    0  0.94216657044E-01 -0.20280687290E+00  0.30048518883E+01  0.30131615519E+01  0.51100000000E-03 0.  1.
    9000002    1    1    2    0    0  0.95372630495E-02  0.80347169908E-02  0.34019113646E-01  0.93869953455E+00  0.93800000000E+00 0. -1.
         22    1    1    2    0    0 -0.10375392009E+00  0.19477215591E+00  0.96112896545E+00  0.98613891358E+00  0.00000000000E+00 0.  1.
</event>
<event>
 5    1  0.2111786E+001  0.1569005E+01  0.7818608E-02  0.3387707E+00
         11   -1    0    0    0    0  0.00000000000E+00  0.00000000000E+00  0.39999999674E+01  0.40000000000E+01  0.51100000000E-03 0. -1.
    9000002   -1    0    0    0    0 -0.00000000000E+00 -0.00000000000E+00  0.00000000000E+00  0.93800000000E+00  0.93800000000E+00 0.  1.
         11    1    1    2    0    0  0.13461113361E+00 -0.65690780804E-01  0.71317100271E+00  0.72873079817E+00  0.51100000000E-03 0. -1.
    9000002    1    1    2    0    0  0.69603730763E-01 -0.13808086696E-01  0.25953312291E-01  0.94103821230E+00  0.93800000000E+00 0.  1.
         22    1    1    2    0    0 -0.20421486437E+00  0.79498867499E-01  0.32608756524E+01  0.32682309895E+01  0.00000000000E+00 0. -1.
</event>
<event>
 5    1  0.2111786E+001  0.1546935E+01  0.7818608E-02  0.3413051E+00
         11   -1    0    0    0    0  0.00000000000E+00  0.00000000000E+00  0.39999999674E+01  0.40000000000E+01  0.51100000000E-03 0.  1.
    9000002   -1    0    0    0    0 -0.00000000000E+00 -0.00000000000E+00  0.00000000000E+00  0.93800000000E+00  0.93800000000E+00 0.  1.
         11    1    1    2    0    0 -0.49441778326E-02  0.22133436789E+00  0.12782177721E+01  0.12972487353E+01  0.51100000000E-03 0.  1.
    9000002    1    1    2    0    0  0.10611613478E+00  0.11015878970E+00  0.55469239112E-01  0.95200652807E+00  0.93800000000E+00 0.  1.
         22    1    1    2    0    0 -0.10117195695E+00 -0.33149315759E+00  0.26663129562E+01  0.26887447366E+01  0.00000000000E+00 0.  1.
</event>
<event>
 5    1  0.2111786E+001  0.1531431E+01  0.7818608E-02  0.3431322E+00
         11   -1    0    0    0    0  0.00000000000E+00  0.00000000000E+00  0.39999999674E+01  0.40000000000E+01  0.51100000000E-03 0. -1.
    9000002   -1    0    0    0    0 -0.00000000000E+00 -0.00000000000E+00  0.00000000000E+00  0.93800000000E+00  0.93800000000E+00 0. -1.
         11    1    1    2    0    0 -0.28739561473E+00  0.11805645550E+00  0.15660914585E+01  0.15966140058E+01  0.51100000000E-03 0. -1.
    9000002    1    1    2    0    0  0.48902283062E-01  0.83994908696E-01  0.57784618691E-01  0.94479079173E+00  0.93800000000E+00 0. -1.
         22    1    1    2    0    0  0.23849333166E+00 -0.20205136420E+00  0.23761238901E+01  0.23965952024E+01  0.00000000000E+00 0. -1.
</event>
<event>
 5    1  0.2111786E+001  0.1540742E+01  0.7818608E-02  0.3420303E+00
         11   -1    0    0    0    0  0.00000000000E+00  0.00000000000E+00  0.39999999674E+01  0.40000000000E+01  0.51100000000E-03 0.  1.
    9000002   -1    0    0    0    0 -0.00000000000E+00 -0.00000000000E+00  0.00000000000E+00  0.93800000000E+00  0.93800000000E+00 0.  1.
         11    1    1    2    0    0  0.14203476828E+00 -0.16905673786E+00  0.28455224312E+01  0.28540764222E+01  0.51100000000E-03 0.  1.
    9000002    1    1    2    0    0 -0.19695367675E-01 -0.84778766404E-01  0.49222004990E-01  0.94331445050E+00  0.93800000000E+00 0.  1.
         22    1    1    2    0    0 -0.12233940061E+00  0.25383550426E+00  0.11052555311E+01  0.11406091273E+01  0.00000000000E+00 0.  1.
</event>
<event>
 5    1  0.2111786E+001  0.1554860E+01  0.7818608E-02  0.3403863E+00
         11   -1    0    0    0    0  0.00000000000E+00  0.00000000000E+00  0.39999999674E+01  0.40000000000E+01  0.51100000000E-03 0.  1.
    9000002   -1    0    0    0    0 -0.00000000000E+00 -0.00000000000E+00  0.00000000000E+00  0.93800000000E+00  0.93800000000E+00 0.  1.
         11    1    1    2    0    0  0.14226768932E+00 -0.11497243975E+00  0.63412637895E+00  0.65998127468E+00  0.51100000000E-03 0.  1.
    9000002    1    1    2    0    0 -0.54492512061E-01 -0.10827135758E+00  0.43292377967E-01  0.94678949653E+00  0.93800000000E+00 0.  1.
         22    1    1    2    0    0 -0.87775177255E-01  0.22324379733E+00  0.33225812104E+01  0.33312292288E+01  0.00000000000E+00 0.  1.
</event>
<event>
 5    1  0.2111786E+001  0.1556105E+01  0.7818608E-02  0.3402428E+00
         11   -1    0    0    0    0  0.00000000000E+00  0.00000000000E+00  0.39999999674E+01  0.40000000000E+01  0.51100000000E-03 0.  1.
    9000002   -1    0    0    0    0 -0.00000000000E+00 -0.00000000000E+00  0.00000000000E+00  0.93800000000E+00  0.93800000000E+00 0.  1.
         11    1    1    2    0    0 -0.24123201212E+00 -0.10327878218E+00  0.15301857755E+01  0.15525231590E+01  0.51100000000E-03 0.  1.
    9000002    1    1    2    0    0  0.39512282938E-01  0.24273740037E-01  0.33701146159E-01  0.93975007433E+00  0.93800000000E+00 0.  1.
         22    1    1    2    0    0  0.20171972918E+00  0.79005042147E-01  0.24361130457E+01  0.24457267667E+01  0.00000000000E+00 0. -1.
</event>
<event>
 5    1  0.3577855E+001  0.1569385E+01  0.7818608E-02  0.3387277E+00
         11   -1    0    0    0    0  0.00000000000E+00  0.00000000000E+00  0.39999999674E+01  0.40000000000E+01  0.51100000000E-03 0. -1.
    9000002   -1    0    0    0    0 -0.00000000000E+00 -0.00000000000E+00  0.00000000000E+00  0.93800000000E+00  0.93800000000E+00 0.  1.
         11    1    1    2    0    0 -0.10366447302E+00 -0.13742636802E+00  0.95149393781E+00  0.96694017623E+00  0.51100000000E-03 0. -1.
    9000002    1    1    2    0    0 -0.21598326259E-01 -0.19443603954E-01  0.22826013377E-01  0.93872763266E+00  0.93800000000E+00 0.  1.
         22    1    1    2    0    0  0.12526279927E+00  0.15686997198E+00  0.30256800162E+01  0.30323321911E+01  0.00000000000E+00 0. -1.
</event>
<event>
 5    1  0.2111786E+001  0.1443767E+01  0.7818608E-02  0.3542599E+00
         11   -1    0    0    0    0  0.00000000000E+00  0.00000000000E+00  0.39999999674E+01  0.40000000000E+01  0.51100000000E-03 0.  1.
    9000002   -1    0    0    0    0 -0.00000000000E+00 -0.00000000000E+00  0.00000000000E+00  0.93800000000E+00  0.93800000000E+00 0. -1.
         11    1    1    2    0    0  0.51696536997E+00  0.10956818896E+00  0.16092041189E+01  0.16937522072E+01  0.51100000000E-03 0.  1.
    9000002    1    1    2    0    0 -0.15141387530E+00 -0.57338822237E+00  0.41949644319E+00  0.11863901049E+01  0.93800000000E+00 0. -1.
         22    1    1    2    0    0 -0.36555149467E+00  0.46382003341E+00  0.19712994052E+01  0.20578576879E+01  0.00000000000E+00 0.  1.
</event>
<event>
 5    1  0.2111786E+001  0.1572215E+01  0.7818608E-02  0.3384083E+00
         11   -1    0    0    0    0  0.00000000000E+00  0.00000000000E+00  0.39999999674E+01  0.40000000000E+01  0.51100000000E-03 0.  1.
    9000002   -1    0    0    0    0 -0.00000000000E+00 -0.00000000000E+00  0.00000000000E+00  0.93800000000E+00  0.93800000000E+00 0.  1.
         11    1    1    2    0    0  0.63456270349E-01 -0.78974421343E-01  0.32684476987E+00  0.34218623904E+00  0.51100000000E-03 0.  1.
    9000002    1    1    2    0    0 -0.42901563168E-01 -0.16887936983E+00  0.40762652991E-01  0.95491694903E+00  0.93800000000E+00 0.  1.
         22    1    1    2    0    0 -0.20554707182E-01  0.24785379117E+00  0.36323925445E+01  0.36408968119E+01  0.00000000000E+00 0.  1.
</event>
<event>
 5    1  0.2111786E+001  0.1515727E+01  0.7818608E-02  0.3450236E+00
         11   -1    0    0    0    0  0.00000000000E+00  0.00000000000E+00  0.39999999674E+01  0.40000000000E+01  0.51100000000E-03 0. -1.
    9000002   -1    0    0    0    0 -0.00000000000E+00 -0.00000000000E+00  0.00000000000E+00  0.93800000000E+00  0.93800000000E+00 0.  1.
         11    1    1    2    0    0 -0.50338647982E+00 -0.25947228382E+00  0.87645202366E+00  0.10434999880E+01  0.51100000000E-03 0. -1.
    9000002    1    1    2    0    0  0.24769537696E+00  0.19099032172E+00  0.26492824344E+00  0.10236509546E+01  0.93800000000E+00 0.  1.
         22    1    1    2    0    0  0.25569110287E+00  0.68481962095E-01  0.28586197003E+01  0.28708490573E+01  0.00000000000E+00 0.  1.
</event>
<event>
 5    1  0.2111786E+001  0.1579808E+01  0.7818608E-02  0.3375575E+00
         11   -1    0    0    0    0  0.00000000000E+00  0.00000000000E+00  0.39999999674E+01  0.40000000000E+01  0.51100000000E-03 0. -1.
    9000002   -1    0    0    0    0 -0.00000000000E+00 -0.00000000000E+00  0.00000000000E+00  0.93800000000E+00  0.93800000000E+00 0.  1.
         11    1    1    2    0    0  0.93256709791E-01  0.17279304285E-01  0.21260813373E+01  0.21281958327E+01  0.51100000000E-03 0. -1.
    9000002    1    1    2    0    0  0.14097222716E+00 -0.54084616692E-02  0.27913226916E-01  0.94896025656E+00  0.93800000000E+00 0.  1.
         22    1    1    2    0    0 -0.23422893695E+00 -0.11870842615E-01  0.18460054031E+01  0.18608439108E+01  0.00000000000E+00 0.  1.
</event>
<event>
 5    1  0.2111786E+001  0.1568210E+01  0.7818608E-02  0.3388606E+00
         11   -1    0    0    0    0  0.00000000000E+00  0.00000000000E+00  0.39999999674E+01  0.40000000000E+01  0.51100000000E-03 0. -1.
    9000002   -1    0    0    0    0 -0.00000000000E+00 -0.00000000000E+00  0.00000000000E+00  0.93800000000E+00  0.93800000000E+00 0.  1.
         11    1    1    2    0    0  0.29182079049E-01 -0.16654623950E+00  0.21072043467E+01  0.21139772145E+01  0.51100000000E-03 0. -1.
    9000002    1    1    2    0    0 -0.48086648093E-02 -0.84639757171E-01  0.28011696631E-01  0.94223970777E+00  0.93800000000E+00 0.  1.
         22    1    1    2    0    0 -0.24373414239E-01  0.25118599667E+00  0.18647839241E+01  0.18817830778E+01  0.00000000000E+00 0. -1.
</event>
<event>
 5    1  0.2111786E+001  0.1500361E+01  0.7818608E-02  0.3469156E+00
         11   -1    0    0    0    0  0.00000000000E+00  0.00000000000E+00  0.39999999674E+01  0.40000000000E+01  0.51100000000E-03 0. -1.
    9000002   -1    0    0    0    0 -0.00000000000E+00 -0.00000000000E+00  0.00000000000E+00  0.93800000000E+00  0.93800000000E+00 0. -1.
         11    1    1    2    0    0  0.91655713583E-01  0.42102331394E+00  0.13906801690E+01  0.14559028107E+01  0.51100000000E-03 0. -1.
    9000002    1    1    2    0    0 -0.20298722156E-01 -0.18420164578E+00  0.10081847722E+00  0.96143156271E+00  0.93800000000E+00 0. -1.
         22    1    1    2    0    0 -0.71356991427E-01 -0.23682166817E+00  0.25085013212E+01  0.25206656266E+01  0.00000000000E+00 0. -1.
</event>
<event>
 5    1  0.2111786E+001  0.1515445E+01  0.7818608E-02  0.3450580E+00
         11   -1    0    0    0    0  0.00000000000E+00  0.00000000000E+00  0.39999999674E+01  0.40000000000E+01  0.51100000000E-03 0. -1.
    9000002   -1    0    0    0    0 -0.00000000000E+00 -0.00000000000E+00  0.00000000000E+00  0.93800000000E+00  0.93800000000E+00 0. -1.
         11    1    1    2    0    0 -0.33971336309E-01  0.19916359892E+00  0.30963246490E+00  0.36971977938E+00  0.51100000000E-03 0. -1.
    9000002    1    1    2    0    0 -0.14443723712E+00 -0.10292266236E+00  0.86296037787E-01  0.95851249133E+00  0.93800000000E+00 0. -1.
         22    1    1    2    0    0  0.17840857343E+00 -0.96240936564E-01  0.36040714647E+01  0.36097677293E+01  0.00000000000E+00 0. -1.
</event>
<event>
 5    1  0.2111786E+001  0.1539016E+01  0.7818608E-02  0.3422335E+00
         11   -1    0    0    0    0  0.00000000000E+00  0.00000000000E+00  0.39999999674E+01  0.40000000000E+01  0.51100000000E-03 0.  1.
    9000002   -1    0    0    0    0 -0.00000000000E+00 -0.00000000000E+00  0.00000000000E+00  0.93800000000E+00  0.93800000000E+00 0.  1.
         11    1    1    2    0    0  0.45740794930E-02 -0.44834466877E+00  0.27955233000E+01  0.28312514276E+01  0.51100000000E-03 0.  1.
    9000002    1    1    2    0    0 -0.76051425377E-01  0.25944990258E+00  0.96986734439E-01  0.98099362786E+00  0.93800000000E+00 0.  1.
         22    1    1    2    0    0  0.71477345884E-01  0.18889476620E+00  0.11074899329E+01  0.11257549445E+01  0.00000000000E+00 0.  1.
</event>
<event>
 5    1  0.2111786E+001  0.1458777E+01  0.7818608E-02  0.3522517E+00
         11   -1    0    0    0    0  0.00000000000E+00  0.00000000000E+00  0.39999999674E+01  0.40000000000E+01  0.51100000000E-03 0. -1.
    9000002   -1    0    0    0    0 -0.00000000000E+00 -0.00000000000E+00  0.00000000000E+00  0.93800000000E+00  0.93800000000E+00 0.  1.
         11    1    1    2    0    0 -0.14326813791E+00 -0.44363466758E+00  0.66232504946E+00  0.80994580676E+00  0.51100000000E-03 0. -1.
    9000002    1    1    2    0    0  0.34090731560E+00  0.33620838883E+00  0.31812517719E+00  0.11001370401E+01  0.93800000000E+00 0.  1.
         22    1    1    2    0    0 -0.19763917769E+00  0.10742627875E+00  0.30195497407E+01  0.30279171532E+01  0.00000000000E+00 0. -1.
</event>
<event>
 5    1  0.2111786E+001  0.1578440E+01  0.7818608E-02  0.3377102E+00
         11   -1    0    0    0    0  0.00000000000E+00  0.00000000000E+00  0.39999999674E+01  0.40000000000E+01  0.51100000000E-03 0.  1.
    9000002   -1    0    0    0    0 -0.00000000000E+00 -0.00000000000E+00  0.00000000000E+00  0.93800000000E+00  0.93800000000E+00 0. -1.
         11    1    1    2    0    0 -0.18397746643E+00 -0.23228871738E+00  0.22107285495E+01  0.22304992125E+01  0.51100000000E-03 0.  1.
    9000002    1    1    2    0    0  0.20325870580E-01  0.43916338051E+00  0.14949893846E+00  0.10466477671E+01  0.93800000000E+00 0. -1.
         22    1    1    2    0    0  0.16365159585E+00 -0.20687466313E+00  0.16397724794E+01  0.16608530204E+01  0.00000000000E+00 0.  1.
</event>
<event>
 5    1  0.2111786E+001  0.1539995E+01  0.7818608E-02  0.3421181E+00
         11   -1    0    0    0    0  0.00000000000E+00  0.00000000000E+00  0.39999999674E+01  0.40000000000E+01  0.51100000000E-03 0.  1.
    9000002   -1    0    0    0    0 -0.00000000000E+00 -0.00000000000E+00  0.00000000000E+00  0.93800000000E+00  0.93800000000E+00 0. -1.
         11    1    1    2    0    0  0.46392725713E+00 -0.53895741299E-01  0.20594615849E+01  0.21117565039E+01  0.51100000000E-03 0.  1.
    9000002    1    1    2    0    0 -0.34701069951E+00  0.28137072505E+00  0.18884807869E+00  0.10559798802E+01  0.93800000000E+00 0. -1.
         22    1    1    2    0    0 -0.11691655762E+00 -0.22747498375E+00  0.17516903038E+01  0.17702636160E+01  0.00000000000E+00 0.  1.
</event>
<event>
 5    1  0.2111786E+001  0.1596003E+01  0.7818608E-02  0.3357713E+00
         11   -1    0    0    0    0  0.00000000000E+00  0.00000000000E+00  0.39999999674E+01  0.40000000000E+01  0.51100000000E-03 0.  1.
    9000002   -1    0    0    0    0 -0.00000000000E+00 -0.00000000000E+00  0.00000000000E+00  0.93800000000E+00  0.93800000000E+00 0.  1.
         11    1    1    2    0    0  0.96256231765E-01 -0.17278080252E-01  0.20909566420E+01  0.20932423974E+01  0.51100000000E-03 0.  1.
    9000002    1    1    2    0    0 -0.31683434977E+00  0.50711379095E-01  0.71735666285E-01  0.99395455378E+00  0.93800000000E+00 0.  1.
         22    1    1    2    0    0  0.22057811801E+00 -0.33433298842E-01  0.18373076590E+01  0.18508030488E+01  0.00000000000E+00 0.  1.
</event>
<event>
 5    1  0.2111786E+001  0.1555089E+01  0.7818608E-02  0.3403599E+00
         11   -1    0    0    0    0  0.00000000000E+00  0.00000000000E+00  0.39999999674E+01  0.40000000000E+01  0.51100000000E-03 0.  1.
    9000002   -1    0    0    0    0 -0.00000000000E+00 -0.00000000000E+00  0.00000000000E+00  0.93800000000E+00  0.93800000000E+00 0.  1.
         11    1    1    2    0    0 -0.11779111117E+00 -0.21974300271E+00  0.18281021886E+01  0.18450256384E+01  0.51100000000E-03 0.  1.
    9000002    1    1    2    0    0 -0.67340759253E-01  0.32038727454E-01  0.36818980824E-01  0.94167982630E+00  0.93800000000E+00 0.  1.
         22    1    1    2    0    0  0.18513187042E+00  0.18770427525E+00  0.21350787979E+01  0.21512945353E+01  0.00000000000E+00 0.  1.
</event>
<event>
 5    1  0.2111786E+001  0.1566708E+01  0.7818608E-02  0.3390309E+00
         11   -1    0    0    0    0  0.00000000000E+00  0.00000000000E+00  0.39999999674E+01  0.40000000000E+01  0.51100000000E-03 0. -1.
    9000002   -1    0    0    0    0 -0.00000000000E+00 -0.00000000000E+00  0.00000000000E+00  0.93800000000E+00  0.93800000000E+00 0.  1.
         11    1    1    2    0    0  0.71540476857E-01  0.12495378871E+00  0.57760314623E+00  0.59527904784E+00  0.51100000000E-03 0. -1.
    9000002    1    1    2    0    0  0.11232643777E+00  0.16510755950E-01  0.33029071659E-01  0.94542305518E+00  0.93800000000E+00 0.  1.
         22    1    1    2    0    0 -0.18386691463E+00 -0.14146454466E+00  0.33893677495E+01  0.33972978970E+01  0.00000000000E+00 0. -1.
</event>
<event>
 5    1  0.2111786E+001  0.1518667E+01  0.7818608E-02  0.3446663E+00
         11   -1    0    0    0    0  0.00000000000E+00  0.00000000000E+00  0.39999999674E+01  0.40000000000E+01  0.51100000000E-03 0. -1.
    9000002   -1    0    0    0    0 -0.00000000000E+00 -0.00000000000E+00  0.00000000000E+00  0.93800000000E+00  0.93800000000E+00 0.  1.
         11    1    1    2    0    0 -0.40582460171E+00  0.34271578406E+00  0.31326066579E+01  0.31773215843E+01  0.51100000000E-03 0. -1.
    9000002    1    1    2    0    0  0.18550522189E+00 -0.32521902793E+00  0.16376175332E+00  0.10231527331E+01  0.93800000000E+00 0.  1.
         22    1    1    2    0    0  0.22031937982E+00 -0.17496756131E-01  0.70363155616E+00  0.73752568255E+00  0.00000000000E+00 0. -1.
</event>
<event>
 5    1  0.2111786E+001  0.1521549E+01  0.7818608E-02  0.3443175E+00
         11   -1    0    0    0    0  0.00000000000E+00  0.00000000000E+00  0.39999999674E+01  0.40000000000E+01  0.51100000000E-03 0.  1.
    9000002   -1    0    0    0    0 -0.00000000000E+00 -0.00000000000E+00  0.00000000000E+00  0.93800000000E+00  0.93800000000E+00 0.  1.
         11    1    1    2    0    0 -0.22689992951E+00 -0.26350993263E+00  0.29315995718E+01  0.29521513127E+01  0.51100000000E-03 0.  1.
    9000002    1    1    2    0    0  0.54118122384E-01  0.48437747119E-01  0.62587721508E-01  0.94288716684E+00  0.93800000000E+00 0.  1.
         22    1    1    2    0    0  0.17278180713E+00  0.21507218551E+00  0.10058126740E+01  0.10429615204E+01  0.00000000000E+00 0. -1.
</event>
<event>
 5    1  0.2111786E+001  0.1555793E+01  0.7818608E-02  0.3402788E+00
         11   -1    0    0    0    0  0.00000000000E+00  0.00000000000E+00  0.39999999674E+01  0.40000000000E+01  0.51100000000E-03 0. -1.
    9000002   -1    0    0    0    0 -0.00000000000E+00 -0.00000000000E+00  0.00000000000E+00  0.93800000000E+00  0.93800000000E+00 0.  1.
         11    1    1    2    0    0 -0.10877464746E+00  0.44894434253E+00  0.12431077118E+01  0.13261598662E+01  0.51100000000E-03 0. -1.
    9000002    1    1    2    0    0  0.69902790667E-02 -0.66905032826E+00  0.36633877163E+00  0.12090183213E+01  0.93800000000E+00 0.  1.
         22    1    1    2    0    0  0.10178436840E+00  0.22010598573E+00  0.23905534839E+01  0.24028218124E+01  0.00000000000E+00 0. -1.
</event>
<event>
 5    1  0.2111786E+001  0.1546684E+01  0.7818608E-02  0.3413345E+00
         11   -1    0    0    0    0  0.00000000000E+00  0.00000000000E+00  0.39999999674E+01  0.40000000000E+01  0.51100000000E-03 0. -1.
    9000002   -1    0    0    0    0 -0.00000000000E+00 -0.00000000000E+00  0.00000000000E+00  0.93800000000E+00  0.93800000000E+00 0. -1.
         11    1    1    2    0    0 -0.11558265731E+00  0.20673895514E+00  0.11676448382E+01  0.11914256483E+01  0.51100000000E-03 0. -1.
    9000002    1    1    2    0    0  0.15269025378E+00  0.12344183028E+00  0.66284236671E-01  0.96061948715E+00  0.93800000000E+00 0. -1.
         22    1    1    2    0    0 -0.37107596472E-01 -0.33018078542E+00  0.27660708925E+01  0.27859548645E+01  0.00000000000E+00 0. -1.
</event>
<event>
 5    1  0.2111786E+001  0.1521176E+01  0.7818608E-02  0.3443626E+00
         11   -1    0    0    0    0  0.00000000000E+00  0.00000000000E+00  0.39999999674E+01  0.40000000000E+01  0.51100000000E-03 0. -1.
    9000002   -1    0    0    0    0 -0.00000000000E+00 -0.00000000000E+00  0.00000000000E+00  0.93800000000E+00  0.93800000000E+00 0.  1.
         11    1    1    2    0    0 -0.39359446864E-01  0.21607956181E+00  0.39790266721E+00  0.45449569501E+00  0.51100000000E-03 0. -1.
    9000002    1    1    2    0    0 -0.14773856798E+00 -0.13143828438E+00  0.87157661142E-01  0.96257112203E+00  0.93800000000E+00 0.  1.
         22    1    1    2    0    0  0.18709801485E+00 -0.84641277432E-01  0.35149396390E+01  0.35209331830E+01  0.00000000000E+00 0. -1.
</event>
<event>
 5    1  0.2111786E+001  0.1510632E+01  0.7818608E-02  0.3456463E+00
         11   -1    0    0    0    0  0.00000000000E+00  0.00000000000E+00  0.39999999674E+01  0.40000000000E+01  0.51100000000E-03 0. -1.
    9000002   -1    0    0    0    0 -0.00000000000E+00 -0.00000000000E+00  0.00000000000E+00  0.93800000000E+00  0.93800000000E+00 0.  1.
         11    1    1    2    0    0 -0.15349552880E+00  0.34623925781E+00  0.27668617512E+01  0.27926630144E+01  0.51100000000E-03 0. -1.
    9000002    1    1    2    0    0 -0.20438606798E-01 -0.91089800950E-01  0.73732163333E-01  0.94551336341E+00  0.93800000000E+00 0.  1.
         22    1    1    2    0    0  0.17393413560E+00 -0.25514945686E+00  0.11594060529E+01  0.11998236221E+01  0.00000000000E+00 0. -1.
</event>
<event>
 5    1  0.2111786E+001  0.1582280E+01  0.7818608E-02  0.3372824E+00
         11   -1    0    0    0    0  0.00000000000E+00  0.00000000000E+00  0.39999999674E+01  0.40000000000E+01  0.51100000000E-03 0.  1.
    9000002   -1    0    0    0    0 -0.00000000000E+00 -0.00000000000E+00  0.00000000000E+00  0.93800000000E+00  0.93800000000E+00 0.  1.
         11    1    1    2    0    0 -0.91392135993E-01 -0.25389032477E-01  0.15232026878E+01  0.15261532737E+01  0.51100000000E-03 0.  1.
    9000002    1    1    2    0    0 -0.16255263073E+00  0.30327174038E-01  0.31074459480E-01  0.95297047030E+00  0.93800000000E+00 0.  1.
         22    1    1    2    0    0  0.25394476672E+00 -0.49381415613E-02  0.24457228201E+01  0.24588762560E+01  0.00000000000E+00 0.  1.
</event>
<event>
 5    1  0.2111786E+001  0.1532419E+01  0.7818608E-02  0.3430146E+00
         11   -1    0    0    0    0  0.00000000000E+00  0.00000000000E+00  0.39999999674E+01  0.40000000000E+01  0.51100000000E-03 0.  1.
    9000002   -1    0    0    0    0 -0.00000000000E+00 -0.00000000000E+00  0.00000000000E+00  0.93800000000E+00  0.93800000000E+00 0. -1.
         11    1    1    2    0    0 -0.30055245479E+00 -0.14836516339E+00  0.12720072600E+01  0.13154264443E+01  0.51100000000E-03 0.  1.
    9000002    1    1    2    0    0  0.97572157623E-01  0.99068240909E-01  0.64003643605E-01  0.95040796961E+00  0.93800000000E+00 0. -1.
         22    1    1    2    0    0  0.20298029717E+00  0.49296922476E-01  0.26639890638E+01  0.26721655861E+01  0.00000000000E+00 0.  1.
</event>
<event>
 5    1  0.2111786E+001  0.1576687E+01  0.7818608E-02  0.3379062E+00
         11   -1    0    0    0    0  0.00000000000E+00  0.00000000000E+00  0.39999999674E+01  0.40000000000E+01  0.51100000000E-03 0. -1.
    9000002   -1    0    0    0    0 -0.00000000000E+00 -0.00000000000E+00  0.00000000000E+00  0.93800000000E+00  0.93800000000E+00 0.  1.
         11    1    1    2    0    0  0.54549306968E+00 -0.45753968612E-01  0.60767434925E+00  0.81787804138E+00  0.51100000000E-03 0. -1.
    9000002    1    1    2    0    0 -0.27815244481E+00 -0.18740678875E+00  0.34799527924E+00  0.10551942008E+01  0.93800000000E+00 0.  1.
         22    1    1    2    0    0 -0.26734062488E+00  0.23316075736E+00  0.30443303389E+01  0.30649277578E+01  0.00000000000E+00 0. -1.
</event>
<event>
 5    1  0.2111786E+001  0.1532768E+01  0.7818608E-02  0.3429731E+00
         11   -1    0    0    0    0  0.00000000000E+00  0.00000000000E+00  0.39999999674E+01  0.40000000000E+01  0.51100000000E-03 0.  1.
    9000002   -1    0    0    0    0 -0.00000000000E+00 -0.00000000000E+00  0.00000000000E+00  0.93800000000E+00  0.93800000000E+00 0.  1.
         11    1    1    2    0    0 -0.16225358142E-01  0.35152346305E+00  0.21766117468E+01  0.22048743649E+01  0.51100000000E-03 0.  1.
    9000002    1    1    2    0    0 -0.49542716197E-01 -0.81628993213E-01  0.56506171404E-01  0.94453942251E+00  0.93800000000E+00 0.  1.
         22    1    1    2    0    0  0.65768074340E-01 -0.26989446983E+00  0.17668820491E+01  0.17885862126E+01  0.00000000000E+00 0.  1.
</event>
<event>
 5    1  0.2111786E+001  0.1589896E+01  0.7818608E-02  0.3364403E+00
         11   -1    0    0    0    0  0.00000000000E+00  0.00000000000E+00  0.39999999674E+01  0.40000000000E+01  0.51100000000E-03 0.  1.
    9000002   -1    0    0    0    0 -0.00000000000E+00 -0.00000000000E+00  0.00000000000E+00  0.93800000000E+00  0.93800000000E+00 0.  1.
         11    1    1    2    0    0 -0.39638166253E+00  0.58878223890E-01  0.14170422335E+01  0.14726146883E+01  0.51100000000E-03 0.  1.
    9000002    1    1    2    0    0  0.74285717832E+00 -0.11811301079E-02  0.41090972241E+00  0.12651201454E+01  0.93800000000E+00 0.  1.
         22    1    1    2    0    0 -0.34647551578E+00 -0.57697093783E-01  0.21720480114E+01  0.22002651662E+01  0.00000000000E+00 0. -1.
</event>
<event>
 5    1  0.2111786E+001  0.1568802E+01  0.7818608E-02  0.3387937E+00
         11   -1    0    0    0    0  0.00000000000E+00  0.00000000000E+00  0.39999999674E+01  0.40000000000E+01  0.51100000000E-03 0.  1.
    9000002   -1    0    0    0    0 -0.00000000000E+00 -0.00000000000E+00  0.00000000000E+00  0.93800000000E+00  0.93800000000E+00 0. -1.
         11    1    1    2    0    0  0.71184584590E-01 -0.16789909455E+00  0.17362857848E+01  0.17458367445E+01  0.51100000000E-03 0.  1.
    9000002    1    1    2    0    0 -0.27915660032E-01 -0.76368116352E-01  0.27176163208E-01  0.94190971813E+00  0.93800000000E+00 0. -1.
         22    1    1    2    0    0 -0.43268924557E-01  0.24426721090E+00  0.22365380194E+01  0.22502535374E+01  0.00000000000E+00 0.  1.
</event>
<event>
 5    1  0.2111786E+001  0.1566753E+01  0.7818608E-02  0.3390259E+00
         11   -1    0    0    0    0  0.00000000000E+00  0.00000000000E+00  0.39999999674E+01  0.40000000000E+01  0.51100000000E-03 0.  1.
    9000002   -1    0    0    0    0 -0.00000000000E+00 -0.00000000000E+00  0.00000000000E+00  0.93800000000E+00  0.93800000000E+00 0. -1.
         11    1    1    2    0    0  0.22057429530E+00  0.24150345136E-01  0.21875687048E+01  0.21987936143E+01  0.51100000000E-03 0.  1.
    9000002    1    1    2    0    0 -0.20157489111E-01 -0.14759465224E+00  0.39350497384E-01  0.95056981195E+00  0.93800000000E+00 0. -1.
         22    1    1    2    0    0 -0.20041680619E+00  0.12344430710E+00  0.17730807652E+01  0.17886365737E+01  0.00000000000E+00 0. -1.
</event>
<event>
 5    1  0.2111786E+001  0.1546124E+01  0.7818608E-02  0.3413998E+00
         11   -1    0    0    0    0  0.00000000000E+00  0.00000000000E+00  0.39999999674E+01  0.40000000000E+01  0.51100000000E-03 0. -1.
    9000002   -1    0    0    0    0 -0.00000000000E+00 -0.00000000000E+00  0.00000000000E+00  0.93800000000E+00  0.93800000000E+00 0.  1.
         11    1    1    2    0    0 -0.21431319731E+00  0.19156650077E+00  0.19183960231E+01  0.19398122160E+01  0.51100000000E-03 0. -1.
    9000002    1    1    2    0    0 -0.94605172383E-02 -0.40601083758E-01  0.41014004618E-01  0.93982131172E+00  0.93800000000E+00 0.  1.
         22    1    1    2    0    0  0.22377371455E+00 -0.15096541701E+00  0.20405899396E+01  0.20583664723E+01  0.00000000000E+00 0. -1.
</event>
<event>
 5    1  0.2111786E+001  0.1569260E+01  0.7818608E-02  0.3387418E+00
         11   -1    0    0    0    0  0.00000000000E+00  0.00000000000E+00  0.39999999674E+01  0.40000000000E+01  0.51100000000E-03 0.  1.
    9000002   -1    0    0    0    0 -0.00000000000E+00 -0.00000000000E+00  0.00000000000E+00  0.93800000000E+00  0.93800000000E+00 0.  1.
         11    1    1    2    0    0  0.10111280853E+00  0.17095127771E+00  0.15873097958E+01  0.15996877159E+01  0.51100000000E-03 0.  1.
    9000002    1    1    2    0    0  0.40652441667E-01 -0.54268919608E-02  0.23486871099E-01  0.93918991971E+00  0.93800000000E+00 0.  1.
         22    1    1    2    0    0 -0.14176525019E+00 -0.16552438575E+00  0.23892033004E+01  0.23991223644E+01  0.00000000000E+00 0.  1.
</event>
<event>
 5    1  0.2111786E+001  0.1513328E+01  0.7818608E-02  0.3453163E+00
         11   -1    0    0    0    0  0.00000000000E+00  0.00000000000E+00  0.39999999674E+01  0.40000000000E+01  0.51100000000E-03 0.  1.
    9000002   -1    0    0    0    0 -0.00000000000E+00 -0.00000000000E+00  0.00000000000E+00  0.93800000000E+00  0.93800000000E+00 0.  1.
         11    1    1    2    0    0 -0.20327471017E+00 -0.57603594049E-01  0.29213894372E+00  0.36053322371E+00  0.51100000000E-03 0.  1.
    9000002    1    1    2    0    0  0.27286664284E+00 -0.23685150542E+00  0.16132711302E+00  0.10180497423E+01  0.93800000000E+00 0.  1.
         22    1    1    2    0    0 -0.69591932672E-01  0.29445509947E+00  0.35465339106E+01  0.35594170340E+01  0.00000000000E+00 0.  1.
</event>
<event>
 5    1  0.2111786E+001  0.1568836E+01  0.7818608E-02  0.3387898E+00
         11   -1    0    0    0    0  0.00000000000E+00  0.00000000000E+00  0.39999999674E+01  0.40000000000E+01  0.51100000000E-03 0. -1.
    9000002   -1    0    0    0    0 -0.00000000000E+00 -0.00000000000E+00  0.00000000000E+00  0.93800000000E+00  0.93800000000E+00 0. -1.
         11    1    1    2    0    0  0.13964617308E+00 -0.11382936938E+00  0.11345380376E+01  0.11487536720E+01  0.51100000000E-03 0. -1.
    9000002    1    1    2    0    0  0.16373858635E-01 -0.39528439063E-01  0.23904268023E-01  0.93927951898E+00  0.93800000000E+00 0. -1.
         22    1    1    2    0    0 -0.15602003171E+00  0.15335780844E+00  0.28415576618E+01  0.28499668091E+01  0.00000000000E+00 0. -1.
</event>
<event>
 5    1  0.2111786E+001  0.1533925E+01  0.7818608E-02  0.3428357E+00
         11   -1    0    0    0    0  0.00000000000E+00  0.00000000000E+00  0.39999999674E+01  0.40000000000E+01  0.51100000000E-03 0.  1.
    9000002   -1    0    0    0    0 -0.00000000000E+00 -0.00000000000E+00  0.00000000000E+00  0.93800000000E+00  0.93800000000E+00 0. -1.
         11    1    1    2    0    0 -0.25363213914E+00 -0.15125957398E+00  0.16181945118E+01  0.16449201986E+01  0.51100000000E-03 0.  1.
    9000002    1    1    2    0    0 -0.31388038440E-01  0.14497786732E-01  0.50027350778E-01  0.93996921790E+00  0.93800000000E+00 0. -1.
         22    1    1    2    0    0  0.28502017758E+00  0.13676178725E+00  0.23317781048E+01  0.23531105835E+01  0.00000000000E+00 0.  1.
</event>
<event>
 5    1  0.2111786E+001  0.1497448E+01  0.7818608E-02  0.3472790E+00
         11   -1    0    0    0    0  0.00000000000E+00  0.00000000000E+00  0.39999999674E+01  0.40000000000E+01  0.51100000000E-03 0. -1.
    9000002   -1    0    0    0    0 -0.00000000000E+00 -0.00000000000E+00  0.00000000000E+00  0.93800000000E+00  0.93800000000E+00 0. -1.
         11    1    1    2    0    0 -0.27465498697E-01 -0.13030220070E+00  0.19482096054E+01  0.19527554749E+01  0.51100000000E-03 0. -1.
    9000002    1    1    2    0    0  0.10640361064E+00 -0.49127811059E+00  0.27203864949E+00  0.10984192902E+01  0.93800000000E+00 0. -1.
         22    1    1    2    0    0 -0.78938111944E-01  0.62158031128E+00  0.17797517124E+01  0.18868252348E+01  0.00000000000E+00 0. -1.
</event>
<event>
 5    1  0.2111786E+001  0.1573703E+01  0.7818608E-02  0.3382409E+00
         11   -1    0    0    0    0  0.00000000000E+00  0.00000000000E+00  0.39999999674E+01  0.40000000000E+01  0.51100000000E-03 0.  1.
    9000002   -1    0    0    0    0 -0.00000000000E+00 -0.00000000000E+00  0.00000000000E+00  0.93800000000E+00  0.93800000000E+00 0.  1.
         11    1    1    2    0    0  0.15844674640E+00  0.11307319681E-01  0.22566269668E+01  0.22622110325E+01  0.51100000000E-03 0.  1.
    9000002    1    1    2    0    0  0.53917044620E-01  0.41589163594E-01  0.22171559859E-01  0.94072965527E+00  0.93800000000E+00 0.  1.
         22    1    1    2    0    0 -0.21236379102E+00 -0.52896483275E-01  0.17212014407E+01  0.17350593123E+01  0.00000000000E+00 0.  1.
</event>
<event>
 5    1  0.2111786E+001  0.1556087E+01  0.7818608E-02  0.3402449E+00
         11   -1    0    0    0    0  0.00000000000E+00  0.00000000000E+00  0.39999999674E+01  0.40000000000E+01  0.51100000000E-03 0. -1.
    9000002   -1    0    0    0    0 -0.00000000000E+00 -0.00000000000E+00  0.00000000000E+00  0.93800000000E+00  0.93800000000E+00 0. -1.
         11    1    1    2    0    0 -0.18140723801E+00  0.12560724309E+00  0.11342483419E+01  0.11555108514E+01  0.51100000000E-03 0. -1.
    9000002    1    1    2    0    0 -0.46135992664E-01 -0.28075686160E-01  0.34241677170E-01  0.94017725266E+00  0.93800000000E+00 0. -1.
         22    1    1    2    0    0  0.22754323067E+00 -0.97531556925E-01  0.28315099483E+01  0.28423118959E+01  0.00000000000E+00 0. -1.
</event>
<event>
 5    1  0.2111786E+001  0.1454712E+01  0.7818608E-02  0.3527911E+00
         11   -1    0    0    0    0  0.00000000000E+00  0.00000000000E+00  0.39999999674E+01  0.40000000000E+01  0.51100000000E-03 0.  1.
    9000002   -1    0    0    0    0 -0.00000000000E+00 -0.00000000000E+00  0.00000000000E+00  0.93800000000E+00  0.93800000000E+00 0. -1.
         11    1    1    2    0    0  0.58314647465E+00 -0.13254351984E+00  0.87933170489E+00  0.10634153017E+01  0.51100000000E-03 0.  1.
    9000002    1    1    2    0    0 -0.57504921936E+00  0.37439630049E+00  0.53813196089E+00  0.12807358049E+01  0.93800000000E+00 0. -1.
         22    1    1    2    0    0 -0.80972552838E-02 -0.24185278065E+00  0.25825363016E+01  0.25938488934E+01  0.00000000000E+00 0.  1.
</event>
<event>
 5    1  0.2111786E+001  0.1508666E+01  0.7818608E-02  0.3458879E+00
         11   -1    0    0    0    0  0.00000000000E+00  0.00000000000E+00  0.39999999674E+01  0.40000000000E+01  0.51100000000E-03 0. -1.
    9000002   -1    0    0    0    0 -0.00000000000E+00 -0.00000000000E+00  0.00000000000E+00  0.93800000000E+00  0.93800000000E+00 0.  1.
         11    1    1    2    0    0  0.16467656527E+00 -0.59806255523E+00  0.15940738089E+01  0.17105171032E+01  0.51100000000E-03 0. -1.
    9000002    1    1    2    0    0 -0.43933152605E+00  0.52321983064E+00  0.44000115707E+00  0.12410544707E+01  0.93800000000E+00 0.  1.
         22    1    1    2    0    0  0.27465496077E+00  0.74842724588E-01  0.19659250014E+01  0.19864284261E+01  0.00000000000E+00 0.  1.
</event>
<event>
 5    1  0.2111786E+001  0.1447812E+01  0.7818608E-02  0.3537143E+00
         11   -1    0    0    0    0  0.00000000000E+00  0.00000000000E+00  0.39999999674E+01  0.40000000000E+01  0.51100000000E-03 0. -1.
    9000002   -1    0    0    0    0 -0.00000000000E+00 -0.00000000000E+00  0.00000000000E+00  0.93800000000E+00  0.93800000000E+00 0.  1.
         11    1    1    2    0    0  0.67348297373E+00 -0.34049091465E+00  0.22223742560E+01  0.23470110724E+01  0.51100000000E-03 0. -1.
    9000002    1    1    2    0    0 -0.39004881156E+00  0.32876032158E+00  0.33254142447E+00  0.11183242926E+01  0.93800000000E+00 0.  1.
         22    1    1    2    0    0 -0.28343416217E+00  0.11730593074E-01  0.14450842869E+01  0.14726646350E+01  0.00000000000E+00 0. -1.
</event>
<event>
 5    1  0.2111786E+001  0.1523084E+01  0.7818608E-02  0.3441324E+00
         11   -1    0    0    0    0  0.00000000000E+00  0.00000000000E+00  0.39999999674E+01  0.40000000000E+01  0.51100000000E-03 0. -1.
    9000002   -1    0    0    0    0 -0.00000000000E+00 -0.00000000000E+00  0.00000000000E+00  0.93800000000E+00  0.93800000000E+00 0. -1.
         11    1    1    2    0    0  0.25119632802E+00 -0.15376782174E+00  0.28312646151E+01  0.28465424150E+01  0.51100000000E-03 0. -1.
    9000002    1    1    2    0    0  0.40115679409E-01  0.62375999073E-01  0.61539227598E-01  0.94293748972E+00  0.93800000000E+00 0. -1.
         22    1    1    2    0    0 -0.29131200743E+00  0.91391822662E-01  0.11071961246E+01  0.11485200953E+01  0.00000000000E+00 0.  1.
</event>
<event>
 5    1  0.2111786E+001  0.1490264E+01  0.7818608E-02  0.3481816E+00
         11   -1    0    0    0    0  0.00000000000E+00  0.00000000000E+00  0.39999999674E+01  0.40000000000E+01  0.51100000000E-03 0. -1.
    9000002   -1    0    0    0    0 -0.00000000000E+00 -0.00000000000E+00  0.00000000000E+00  0.93800000000E+00  0.93800000000E+00 0. -1.
         11    1    1    2    0    0 -0.10477787558E+00 -0.27397941349E+00  0.30496750831E+01  0.30637495811E+01  0.51100000000E-03 0. -1.
    9000002    1    1    2    0    0 -0.12972215945E+00  0.16100650644E-01  0.96436897614E-01  0.95196173496E+00  0.93800000000E+00 0. -1.
         22    1    1    2    0    0  0.23450003502E+00  0.25787876285E+00  0.85388798669E+00  0.92228868397E+00  0.00000000000E+00 0.  1.
</event>
<event>
 5    1  0.2111786E+001  0.1511531E+01  0.7818608E-02  0.3455362E+00
         11   -1    0    0    0    0  0.00000000000E+00  0.00000000000E+00  0.39999999674E+01  0.40000000000E+01  0.51100000000E-03 0.  1.
    9000002   -1    0    0    0    0 -0.00000000000E+00 -0.00000000000E+00  0.00000000000E+00  0.93800000000E+00  0.93800000000E+00 0. -1.
         11    1    1    2    0    0 -0.10539854334E+00 -0.40338933281E+00  0.23654307526E+01  0.24018939846E+01  0.51100000000E-03 0.  1.
    9000002    1    1    2    0    0  0.41418318316E-01  0.10476522932E+00  0.75884381477E-01  0.94778355637E+00  0.93800000000E+00 0. -1.
         22    1    1    2    0    0  0.63980225024E-01  0.29862410350E+00  0.15586848332E+01  0.15883224590E+01  0.00000000000E+00 0. -1.
</event>
<event>
 5    1  0.2111786E+001  0.1477684E+01  0.7818608E-02  0.3497852E+00
         11   -1    0    0    0    0  0.00000000000E+00  0.00000000000E+00  0.39999999674E+01  0.40000000000E+01  0.51100000000E-03 0. -1.
    9000002   -1    0    0    0    0 -0.00000000000E+00 -0.00000000000E+00  0.00000000000E+00  0.93800000000E+00  0.93800000000E+00 0.  1.
         11    1    1    2    0    0  0.38202007950E+00  0.10081170663E+00  0.10668127301E+01  0.11376255990E+01  0.51100000000E-03 0. -1.
    9000002    1    1    2    0    0 -0.34119859479E-01 -0.14268782984E+00  0.11026367603E+00  0.95578557211E+00  0.93800000000E+00 0.  1.
         22    1    1    2    0    0 -0.34790022002E+00  0.41876123208E-01  0.28229235612E+01  0.28445888289E+01  0.00000000000E+00 0. -1.
</event>
<event>
 5    1  0.2111786E+001  0.1345877E+01  0.7818608E-02  0.3697761E+00
         11   -1    0    0    0    0  0.00000000000E+00  0.00000000000E+00  0.39999999674E+01  0.40000000000E+01  0.51100000000E-03 0.  1.
    9000002   -1    0    0    0    0 -0.00000000000E+00 -0.00000000000E+00  0.00000000000E+00  0.93800000000E+00  0.93800000000E+00 0. -1.
         11    1    1    2    0    0 -0.48449542244E+00  0.51798013546E+00  0.28503897041E+01  0.29373050508E+01  0.51100000000E-03 0.  1.
    9000002    1    1    2    0    0  0.12391963654E+00 -0.23046881861E+00  0.27492134268E+00  0.10118783016E+01  0.93800000000E+00 0. -1.
         22    1    1    2    0    0  0.36057578590E+00 -0.28751131684E+00  0.87468892053E+00  0.98881664751E+00  0.00000000000E+00 0.  1.
</event>
<event>
 5    1  0.2111786E+001  0.1590373E+01  0.7818608E-02  0.3363879E+00
         11   -1    0    0    0    0  0.00000000000E+00  0.00000000000E+00  0.39999999674E+01  0.40000000000E+01  0.51100000000E-03 0. -1.
    9000002   -1    0    0    0    0 -0.00000000000E+00 -0.00000000000E+00  0.00000000000E+00  0.93800000000E+00  0.93800000000E+00 0.  1.
         11    1    1    2    0    0 -0.11281512285E-01  0.11052713139E+00  0.45659992523E+00  0.46992262356E+00  0.51100000000E-03 0. -1.
    9000002    1    1    2    0    0  0.12262558292E+00 -0.30341919951E+00  0.79066737710E-01  0.99659208969E+00  0.93800000000E+00 0.  1.
         22    1    1    2    0    0 -0.11134407063E+00  0.19289206812E+00  0.34643333044E+01  0.34714852868E+01  0.00000000000E+00 0. -1.
</event>
<event>
 5    1  0.2111786E+001  0.1569667E+01  0.7818608E-02  0.3386958E+00
         11   -1    0    0    0    0  0.00000000000E+00  0.00000000000E+00  0.39999999674E+01  0.40000000000E+01  0.51100000000E-03 0. -1.
    9000002   -1    0    0    0    0 -0.00000000000E+00 -0.00000000000E+00  0.00000000000E+00  0.93800000000E+00  0.93800000000E+00 0.  1.
         11    1    1    2    0    0 -0.19073186251E+00  0.10801864130E+00  0.11836017183E+01  0.12037275269E+01  0.51100000000E-03 0. -1.
    9000002    1    1    2    0    0  0.13273147339E-01 -0.22019148853E+00  0.55268574467E-01  0.96517308468E+00  0.93800000000E+00 0.  1.
         22    1    1    2    0    0  0.17745871517E+00  0.11217284723E+00  0.27611296746E+01  0.27690993884E+01  0.00000000000E+00 0. -1.
</event>
<event>
 5    1  0.2111786E+001  0.1587003E+01  0.7818608E-02  0.3367591E+00
         11   -1    0    0    0    0  0.00000000000E+00  0.00000000000E+00  0.39999999674E+01  0.40000000000E+01  0.51100000000E-03 0.  1.
    9000002   -1    0    0    0    0 -0.00000000000E+00 -0.00000000000E+00  0.00000000000E+00  0.93800000000E+00  0.93800000000E+00 0. -1.
         11    1    1    2    0    0 -0.37861170511E-01 -0.69640280113E-01  0.27236907286E+00  0.28366954334E+00  0.51100000000E-03 0.  1.
    9000002    1    1    2    0    0  0.25636953637E+00  0.46611655888E-01  0.54936091690E-01  0.97506920770E+00  0.93800000000E+00 0. -1.
         22    1    1    2    0    0 -0.21850836586E+00  0.23028624225E-01  0.36726948028E+01  0.36792612490E+01  0.00000000000E+00 0.  1.
</event>
<event>
 5    1  0.2111786E+001  0.1593081E+01  0.7818608E-02  0.3360907E+00
         11   -1    0    0    0    0  0.00000000000E+00  0.00000000000E+00  0.39999999674E+01  0.40000000000E+01  0.51100000000E-03 0.  1.
    9000002   -1    0    0    0    0 -0.00000000000E+00 -0.00000000000E+00  0.00000000000E+00  0.93800000000E+00  0.93800000000E+00 0. -1.
         11    1    1    2    0    0 -0.74448935494E-01 -0.10706207996E+00  0.72466960271E+00  0.73630919264E+00  0.51100000000E-03 0.  1.
    9000002    1    1    2    0    0  0.29041176215E+00  0.18163984487E+00  0.83914158578E-01  0.10021065866E+01  0.93800000000E+00 0. -1.
         22    1    1    2    0    0 -0.21596282666E+00 -0.74577764909E-01  0.31914162061E+01  0.31995842208E+01  0.00000000000E+00 0.  1.
</event>
<event>
 5    1  0.2111786E+001  0.1508249E+01  0.7818608E-02  0.3459392E+00
         11   -1    0    0    0    0  0.00000000000E+00  0.00000000000E+00  0.39999999674E+01  0.40000000000E+01  0.51100000000E-03 0.  1.
    9000002   -1    0    0    0    0 -0.00000000000E+00 -0.00000000000E+00  0.00000000000E+00  0.93800000000E+00  0.93800000000E+00 0. -1.
         11    1    1    2    0    0  0.34051586486E-01  0.39318741595E+00  0.26852731761E+01  0.27141201421E+01  0.51100000000E-03 0.  1.
    9000002    1    1    2    0    0  0.11167794241E+00 -0.10727711067E+00  0.86729972981E-01  0.95464466138E+00  0.93800000000E+00 0. -1.
         22    1    1    2    0    0 -0.14572952890E+00 -0.28591030528E+00  0.12279968183E+01  0.12692351965E+01  0.00000000000E+00 0.  1.
</event>
<event>
 5    1  0.2111786E+001  0.1565222E+01  0.7818608E-02  0.3391998E+00
         11   -1    0    0    0    0  0.00000000000E+00  0.00000000000E+00  0.39999999674E+01  0.40000000000E+01  0.51100000000E-03 0. -1.
    9000002   -1    0    0    0    0 -0.00000000000E+00 -0.00000000000E+00  0.00000000000E+00  0.93800000000E+00  0.93800000000E+00 0.  1.
         11    1    1    2    0    0 -0.21867711330E+00 -0.10710753518E+00  0.13605135229E+01  0.13821320527E+01  0.51100000000E-03 0. -1.
    9000002    1    1    2    0    0  0.26949232412E-01  0.20374398682E+00  0.54304251686E-01  0.96178522813E+00  0.93800000000E+00 0.  1.
         22    1    1    2    0    0  0.19172788089E+00 -0.96636451641E-01  0.25851821928E+01  0.25940827192E+01  0.00000000000E+00 0. -1.
</event>
<event>
 5    1  0.2111786E+001  0.1567196E+01  0.7818608E-02  0.3389756E+00
         11   -1    0    0    0    0  0.00000000000E+00  0.00000000000E+00  0.39999999674E+01  0.40000000000E+01  0.51100000000E-03 0. -1.
    9000002   -1    0    0    0    0 -0.00000000000E+00 -0.00000000000E+00  0.00000000000E+00  0.93800000000E+00  0.93800000000E+00 0.  1.
         11    1    1    2    0    0 -0.10591537045E+00 -0.20617719573E+00  0.18939680059E+01  0.19080990986E+01  0.51100000000E-03 0. -1.
    9000002    1    1    2    0    0  0.54473567926E-01  0.10161084365E-01  0.25974013673E-01  0.93999429074E+00  0.93800000000E+00 0.  1.
         22    1    1    2    0    0  0.51441802522E-01  0.19601611137E+00  0.20800579478E+01  0.20899066106E+01  0.00000000000E+00 0. -1.
</event>
<event>
 5    1  0.2111786E+001  0.1511604E+01  0.7818608E-02  0.3455273E+00
         11   -1    0    0    0    0  0.00000000000E+00  0.00000000000E+00  0.39999999674E+01  0.40000000000E+01  0.51100000000E-03 0. -1.
    9000002   -1    0    0    0    0 -0.00000000000E+00 -0.00000000000E+00  0.00000000000E+00  0.93800000000E+00  0.93800000000E+00 0. -1.
         11    1    1    2    0    0 -0.20266983540E+00 -0.24641999888E+00  0.97913800549E+00  0.10298103578E+01  0.51100000000E-03 0. -1.
    9000002    1    1    2    0    0  0.93572906261E-01 -0.30167075144E-01  0.73640909539E-01  0.94600894539E+00  0.93800000000E+00 0. -1.
         22    1    1    2    0    0  0.10909692914E+00  0.27658707403E+00  0.29472210523E+01  0.29621806968E+01  0.00000000000E+00 0. -1.
</event>
<event>
 5    1  0.2111786E+001  0.1543734E+01  0.7818608E-02  0.3416792E+00
         11   -1    0    0    0    0  0.00000000000E+00  0.00000000000E+00  0.39999999674E+01  0.40000000000E+01  0.51100000000E-03 0.  1.
    9000002   -1    0    0    0    0 -0.00000000000E+00 -0.00000000000E+00  0.00000000000E+00  0.93800000000E+00  0.93800000000E+00 0.  1.
         11    1    1    2    0    0 -0.23824119510E+00  0.88988952596E-01  0.22749437820E+01  0.22891149759E+01  0.51100000000E-03 0.  1.
    9000002    1    1    2    0    0  0.17144746335E-01  0.13099032488E+00  0.53808843165E-01  0.94878437969E+00  0.93800000000E+00 0.  1.
         22    1    1    2    0    0  0.22109644876E+00 -0.21997927747E+00  0.16712473422E+01  0.17001006444E+01  0.00000000000E+00 0.  1.
</event>
<event>
 5    1  0.2111786E+001  0.1593428E+01  0.7818608E-02  0.3360528E+00
         11   -1    0    0    0    0  0.00000000000E+00  0.00000000000E+00  0.39999999674E+01  0.40000000000E+01  0.51100000000E-03 0. -1.
    9000002   -1    0    0    0    0 -0.00000000000E+00 -0.00000000000E+00  0.00000000000E+00  0.93800000000E+00  0.93800000000E+00 0. -1.
         11    1    1    2    0    0 -0.82344815657E-01  0.15383185450E-01  0.49327512001E+00  0.50033780209E+00  0.51100000000E-03 0. -1.
    9000002    1    1    2    0    0  0.16128771194E+00 -0.20957703740E+00  0.51333154771E-01  0.97591769807E+00  0.93800000000E+00 0. -1.
         22    1    1    2    0    0 -0.78942896280E-01  0.19419385195E+00  0.34553916926E+01  0.34617444998E+01  0.00000000000E+00 0. -1.
</event>
<event>
 5    1  0.2111786E+001  0.1239979E+01  0.7818608E-02  0.3903629E+00
         11   -1    0    0    0    0  0.00000000000E+00  0.00000000000E+00  0.39999999674E+01  0.40000000000E+01  0.51100000000E-03 0. -1.
    9000002   -1    0    0    0    0 -0.00000000000E+00 -0.00000000000E+00  0.00000000000E+00  0.93800000000E+00  0.93800000000E+00 0. -1.
         11    1    1    2    0    0  0.23606029656E+00  0.88615564988E+00  0.15283819449E+01  0.17823994866E+01  0.51100000000E-03 0. -1.
    9000002    1    1    2    0    0 -0.18248436077E-01 -0.44369669819E+00  0.55568127025E+00  0.11772108730E+01  0.93800000000E+00 0. -1.
         22    1    1    2    0    0 -0.21781186049E+00 -0.44245895169E+00  0.19159367523E+01  0.19783896404E+01  0.00000000000E+00 0.  1.
</event>
<event>
 5    1  0.2111786E+001  0.1550765E+01  0.7818608E-02  0.3408599E+00
         11   -1    0    0    0    0  0.00000000000E+00  0.00000000000E+00  0.39999999674E+01  0.40000000000E+01  0.51100000000E-03 0.  1.
    9000002   -1    0    0    0    0 -0.00000000000E+00 -0.00000000000E+00  0.00000000000E+00  0.93800000000E+00  0.93800000000E+00 0. -1.
         11    1    1    2    0    0  0.78968996015E-01 -0.14092354975E+00  0.33404490772E+01  0.33443528294E+01  0.51100000000E-03 0.  1.
    9000002    1    1    2    0    0 -0.66261624032E-02 -0.47594395915E-01  0.37866770377E-01  0.93999309830E+00  0.93800000000E+00 0. -1.
         22    1    1    2    0    0 -0.72342833612E-01  0.18851794567E+00  0.62168411982E+00  0.65365407231E+00  0.00000000000E+00 0.  1.
</event>
<event>
 5    1  0.2111786E+001  0.1449310E+01  0.7818608E-02  0.3535130E+00
         11   -1    0    0    0    0  0.00000000000E+00  0.00000000000E+00  0.39999999674E+01  0.40000000000E+01  0.51100000000E-03 0.  1.
    9000002   -1    0    0    0    0 -0.00000000000E+00 -0.00000000000E+00  0.00000000000E+00  0.93800000000E+00  0.93800000000E+00 0. -1.
         11    1    1    2    0    0  0.27357221159E+00  0.10539562418E+00  0.37751200971E+00  0.47798072257E+00  0.51100000000E-03 0.  1.
    9000002    1    1    2    0    0  0.67683947779E-04 -0.70889483584E-01  0.12185110037E+00  0.94853413967E+00  0.93800000000E+00 0. -1.
         22    1    1    2    0    0 -0.27363989554E+00 -0.34506140599E-01  0.35006368573E+01  0.35114851378E+01  0.00000000000E+00 0.  1.
</event>
<event>
 5    1  0.2111786E+001  0.1586961E+01  0.7818608E-02  0.3367638E+00
         11   -1    0    0    0    0  0.00000000000E+00  0.00000000000E+00  0.39999999674E+01  0.40000000000E+01  0.51100000000E-03 0. -1.
    9000002   -1    0    0    0    0 -0.00000000000E+00 -0.00000000000E+00  0.00000000000E+00  0.93800000000E+00  0.93800000000E+00 0. -1.
         11    1    1    2    0    0  0.54829166866E-01  0.33740347573E-01  0.15495646649E+01  0.15509015315E+01  0.51100000000E-03 0. -1.
    9000002    1    1    2    0    0  0.15598334792E+00  0.78586399434E-01  0.29678111938E-01  0.95458442127E+00  0.93800000000E+00 0. -1.
         22    1    1    2    0    0 -0.21081251479E+00 -0.11232674701E+00  0.24207571905E+01  0.24325140472E+01  0.00000000000E+00 0. -1.
</event>
<event>
 5    1  0.2111786E+001  0.1543835E+01  0.7818608E-02  0.3416673E+00
         11   -1    0    0    0    0  0.00000000000E+00  0.00000000000E+00  0.39999999674E+01  0.40000000000E+01  0.51100000000E-03 0. -1.
    9000002   -1    0    0    0    0 -0.00000000000E+00 -0.00000000000E+00  0.00000000000E+00  0.93800000000E+00  0.93800000000E+00 0. -1.
         11    1    1    2    0    0 -0.27032310338E+00 -0.45150260269E-02  0.84072037433E+00  0.88312285364E+00  0.51100000000E-03 0. -1.
    9000002    1    1    2    0    0  0.17907615618E+00  0.22686952885E+00  0.10048088260E+00  0.98665012066E+00  0.93800000000E+00 0. -1.
         22    1    1    2    0    0  0.91246947198E-01 -0.22235450282E+00  0.30587987104E+01  0.30682270257E+01  0.00000000000E+00 0. -1.
</event>
<event>
 5    1  0.2111786E+001  0.1543726E+01  0.7818608E-02  0.3416801E+00
         11   -1    0    0    0    0  0.00000000000E+00  0.00000000000E+00  0.39999999674E+01  0.40000000000E+01  0.51100000000E-03 0. -1.
    9000002   -1    0    0    0    0 -0.00000000000E+00 -0.00000000000E+00  0.00000000000E+00  0.93800000000E+00  0.93800000000E+00 0.  1.
         11    1    1    2    0    0  0.15187650322E-01 -0.31098710234E+00  0.11221799226E+01  0.11645736054E+01  0.51100000000E-03 0. -1.
    9000002    1    1    2    0    0 -0.21391015254E+00  0.19461933285E+00  0.10064022797E+00  0.98671510253E+00  0.93800000000E+00 0.  1.
         22    1    1    2    0    0  0.19872250222E+00  0.11636776949E+00  0.27771798168E+01  0.27867112921E+01  0.00000000000E+00 0. -1.
</event>
<event>
 5    1  0.2111786E+001  0.1592451E+01  0.7818608E-02  0.3361598E+00
         11   -1    0    0    0    0  0.00000000000E+00  0.00000000000E+00  0.39999999674E+01  0.40000000000E+01  0.51100000000E-03 0.  1.
    9000002   -1    0    0    0    0 -0.00000000000E+00 -0.00000000000E+00  0.00000000000E+00  0.93800000000E+00  0.93800000000E+00 0.  1.
         11    1    1    2    0    0 -0.45730100361E-01 -0.11592121285E+00  0.19890166759E+01  0.19929165983E+01  0.51100000000E-03 0.  1.
    9000002    1    1    2    0    0  0.24857307427E+00  0.10227701213E+00  0.53656479211E-01  0.97722677932E+00  0.93800000000E+00 0.  1.
         22    1    1    2    0    0 -0.20284297391E+00  0.13644200724E-01  0.19573268122E+01  0.19678566223E+01  0.00000000000E+00 0. -1.
</event>
<event>
 5    1  0.2111786E+001  0.1534071E+01  0.7818608E-02  0.3428183E+00
         11   -1    0    0    0    0  0.00000000000E+00  0.00000000000E+00  0.39999999674E+01  0.40000000000E+01  0.51100000000E-03 0. -1.
    9000002   -1    0    0    0    0 -0.00000000000E+00 -0.00000000000E+00  0.00000000000E+00  0.93800000000E+00  0.93800000000E+00 0. -1.
         11    1    1    2    0    0  0.25559239051E+00  0.11306784600E+00  0.15602824492E+01  0.15851162072E+01  0.51100000000E-03 0. -1.
    9000002    1    1    2    0    0  0.98826145028E-01 -0.12475687656E+00  0.66944888403E-01  0.95375914322E+00  0.93800000000E+00 0. -1.
         22    1    1    2    0    0 -0.35441853554E+00  0.11689030564E-01  0.23727726297E+01  0.23991246495E+01  0.00000000000E+00 0. -1.
</event>
<event>
 5    1  0.2111786E+001  0.1586413E+01  0.7818608E-02  0.3368243E+00
         11   -1    0    0    0    0  0.00000000000E+00  0.00000000000E+00  0.39999999674E+01  0.40000000000E+01  0.51100000000E-03 0. -1.
    9000002   -1    0    0    0    0 -0.00000000000E+00 -0.00000000000E+00  0.00000000000E+00  0.93800000000E+00  0.93800000000E+00 0.  1.
         11    1    1    2    0    0  0.18231174257E+00 -0.52182450822E-02  0.74665513493E+00  0.76860845246E+00  0.51100000000E-03 0. -1.
    9000002    1    1    2    0    0 -0.38844169035E+00  0.16263268134E+00  0.13124287790E+00  0.10365351074E+01  0.93800000000E+00 0.  1.
         22    1    1    2    0    0  0.20612994778E+00 -0.15741443626E+00  0.31221019545E+01  0.31328564402E+01  0.00000000000E+00 0. -1.
</event>
<event>
 5    1  0.2111786E+001  0.1561521E+01  0.7818608E-02  0.3396216E+00
         11   -1    0    0    0    0  0.00000000000E+00  0.00000000000E+00  0.39999999674E+01  0.40000000000E+01  0.51100000000E-03 0.  1.
    9000002   -1    0    0    0    0 -0.00000000000E+00 -0.00000000000E+00  0.00000000000E+00  0.93800000000E+00  0.93800000000E+00 0. -1.
         11    1    1    2    0    0 -0.17922312756E+00 -0.18051962928E+00  0.19282753010E+01  0.19449817900E+01  0.51100000000E-03 0.  1.
    9000002    1    1    2    0    0  0.23107467059E+00 -0.91831907259E-01  0.70799743442E-01  0.97297749524E+00  0.93800000000E+00 0. -1.
         22    1    1    2    0    0 -0.51851543032E-01  0.27235153654E+00  0.20009249230E+01  0.20200407148E+01  0.00000000000E+00 0.  1.
</event>
<event>
 5    1  0.2111786E+001  0.1569248E+01  0.7818608E-02  0.3387433E+00
         11   -1    0    0    0    0  0.00000000000E+00  0.00000000000E+00  0.39999999674E+01  0.40000000000E+01  0.51100000000E-03 0. -1.
    9000002   -1    0    0    0    0 -0.00000000000E+00 -0.00000000000E+00  0.00000000000E+00  0.93800000000E+00  0.93800000000E+00 0.  1.
         11    1    1    2    0    0 -0.15444909754E+00 -0.19266804858E+00  0.18106040978E+01  0.18273650321E+01  0.51100000000E-03 0. -1.
    9000002    1    1    2    0    0 -0.91171871132E-01  0.26165499765E+00  0.75041265308E-01  0.98094385129E+00  0.93800000000E+00 0.  1.
         22    1    1    2    0    0  0.24562096867E+00 -0.68986949075E-01  0.21143546043E+01  0.21296911166E+01  0.00000000000E+00 0. -1.
</event>
<event>
 5    1  0.2111786E+001  0.1492462E+01  0.7818608E-02  0.3479045E+00
         11   -1    0    0    0    0  0.00000000000E+00  0.00000000000E+00  0.39999999674E+01  0.40000000000E+01  0.51100000000E-03 0.  1.
    9000002   -1    0    0    0    0 -0.00000000000E+00 -0.00000000000E+00  0.00000000000E+00  0.93800000000E+00  0.93800000000E+00 0.  1.
         11    1    1    2    0    0  0.38906928373E+00 -0.58109129253E-01  0.34936986098E+01  0.35157761327E+01  0.51100000000E-03 0.  1.
    9000002    1    1    2    0    0 -0.16223425187E+00  0.29447168757E-01  0.10210147608E+00  0.95783913036E+00  0.93800000000E+00 0.  1.
         22    1    1    2    0    0 -0.22683503187E+00  0.28661960496E-01  0.40419988151E+00  0.46438473690E+00  0.00000000000E+00 0.  1.
</event>
<event>
 5    1  0.2111786E+001  0.1579697E+01  0.7818608E-02  0.3375699E+00
         11   -1    0    0    0    0  0.00000000000E+00  0.00000000000E+00  0.39999999674E+01  0.40000000000E+01  0.51100000000E-03 0.  1.
    9000002   -1    0    0    0    0 -0.00000000000E+00 -0.00000000000E+00  0.00000000000E+00  0.93800000000E+00  0.93800000000E+00 0.  1.
         11    1    1    2    0    0  0.10771787610E+00  0.25649948679E-01  0.65305194012E+00  0.66237312621E+00  0.51100000000E-03 0.  1.
    9000002    1    1    2    0    0  0.10679589564E+00 -0.62120239246E-01  0.24867911817E-01  0.94642839163E+00  0.93800000000E+00 0.  1.
         22    1    1    2    0    0 -0.21451377175E+00  0.36470290567E-01  0.33220801154E+01  0.33291984822E+01  0.00000000000E+00 0.  1.
</event>
<event>
 5    1  0.2111786E+001  0.1560310E+01  0.7818608E-02  0.3397601E+00
         11   -1    0    0    0    0  0.00000000000E+00  0.00000000000E+00  0.39999999674E+01  0.40000000000E+01  0.51100000000E-03 0.  1.
    9000002   -1    0    0    0    0 -0.00000000000E+00 -0.00000000000E+00  0.00000000000E+00  0.93800000000E+00  0.93800000000E+00 0. -1.
         11    1    1    2    0    0 -0.15681054471E+00 -0.20681792738E+00  0.22151855591E+01  0.22303386569E+01  0.51100000000E-03 0.  1.
    9000002    1    1    2    0    0 -0.87335243751E-02  0.59804307399E-01  0.31551325407E-01  0.94047451628E+00  0.93800000000E+00 0. -1.
         22    1    1    2    0    0  0.16554406908E+00  0.14701361998E+00  0.17532630828E+01  0.17671868268E+01  0.00000000000E+00 0. -1.
</event>
<event>
 5    1  0.2111786E+001  0.1452090E+01  0.7818608E-02  0.3531408E+00
         11   -1    0    0    0    0  0.00000000000E+00  0.00000000000E+00  0.39999999674E+01  0.40000000000E+01  0.51100000000E-03 0.  1.
    9000002   -1    0    0    0    0 -0.00000000000E+00 -0.00000000000E+00  0.00000000000E+00  0.93800000000E+00  0.93800000000E+00 0. -1.
         11    1    1    2    0    0  0.33703664326E+00  0.18416531257E+00  0.75445700510E+00  0.84659092537E+00  0.51100000000E-03 0.  1.
    9000002    1    1    2    0    0  0.23624688473E-01 -0.55475316872E-01  0.12587521370E+00  0.94832705651E+00  0.93800000000E+00 0. -1.
         22    1    1    2    0    0 -0.36066133174E+00 -0.12868999570E+00  0.31196677486E+01  0.31430820181E+01  0.00000000000E+00 0. -1.
</event>
<event>
 5    1  0.2111786E+001  0.1570849E+01  0.7818608E-02  0.3385624E+00
         11   -1    0    0    0    0  0.00000000000E+00  0.00000000000E+00  0.39999999674E+01  0.40000000000E+01  0.51100000000E-03 0.  1.
    9000002   -1    0    0    0    0 -0.00000000000E+00 -0.00000000000E+00  0.00000000000E+00  0.93800000000E+00  0.93800000000E+00 0. -1.
         11    1    1    2    0    0 -0.10815941918E+00  0.19678038118E+00  0.10245095396E+01  0.10488284112E+01  0.51100000000E-03 0.  1.
    9000002    1    1    2    0    0 -0.13140801435E+00 -0.32786421414E+00  0.10732011535E+00  0.10080300672E+01  0.93800000000E+00 0. -1.
         22    1    1    2    0    0  0.23956743353E+00  0.13108383296E+00  0.28681703124E+01  0.28811415216E+01  0.00000000000E+00 0. -1.
</event>
<event>
 5    1  0.2111786E+001  0.1576899E+01  0.7818608E-02  0.3378824E+00
         11   -1    0    0    0    0  0.00000000000E+00  0.00000000000E+00  0.39999999674E+01  0.40000000000E+01  0.51100000000E-03 0. -1.
    9000002   -1    0    0    0    0 -0.00000000000E+00 -0.00000000000E+00  0.00000000000E+00  0.93800000000E+00  0.93800000000E+00 0. -1.
         11    1    1    2    0    0  0.65755790252E-01  0.13819749010E+00  0.12602069634E+01  0.12694661169E+01  0.51100000000E-03 0. -1.
    9000002    1    1    2    0    0 -0.41002211844E-01  0.70564972060E-01  0.21156464113E-01  0.94178139323E+00  0.93800000000E+00 0. -1.
         22    1    1    2    0    0 -0.24753578408E-01 -0.20876246216E+00  0.27186365398E+01  0.27267524899E+01  0.00000000000E+00 0. -1.
</event>
<event>
 5    1  0.2111786E+001  0.1569068E+01  0.7818608E-02  0.3387636E+00
         11   -1    0    0    0    0  0.00000000000E+00  0.00000000000E+00  0.39999999674E+01  0.40000000000E+01  0.51100000000E-03 0.  1.
    9000002   -1    0    0    0    0 -0.00000000000E+00 -0.00000000000E+00  0.00000000000E+00  0.93800000000E+00  0.93800000000E+00 0.  1.
         11    1    1    2    0    0 -0.14646321568E+00  0.26935020502E+00  0.24941382554E+01  0.25129120368E+01  0.51100000000E-03 0.  1.
    9000002    1    1    2    0    0 -0.77734538061E-01 -0.34548014974E+00  0.10925515332E+00  0.10085533604E+01  0.93800000000E+00 0.  1.
         22    1    1    2    0    0  0.22419775374E+00  0.76129944719E-01  0.13966065586E+01  0.14165346027E+01  0.00000000000E+00 0.  1.
</event>
<event>
 5    1  0.2111786E+001  0.1561831E+01  0.7818608E-02  0.3395862E+00
         11   -1    0    0    0    0  0.00000000000E+00  0.00000000000E+00  0.39999999674E+01  0.40000000000E+01  0.51100000000E-03 0.  1.
    9000002   -1    0    0    0    0 -0.00000000000E+00 -0.00000000000E+00  0.00000000000E+00  0.93800000000E+00  0.93800000000E+00 0. -1.
         11    1    1    2    0    0  0.10601655142E+00 -0.16905216608E+00  0.12323726609E+01  0.12484233178E+01  0.51100000000E-03 0.  1.
    9000002    1    1    2    0    0 -0.96073595614E-02 -0.69666998790E-01  0.31288177532E-01  0.94115287926E+00  0.93800000000E+00 0. -1.
         22    1    1    2    0    0 -0.96409191860E-01  0.23871916487E+00  0.27363391290E+01  0.27484238030E+01  0.00000000000E+00 0.  1.
</event>
<event>
 5    1  0.2111786E+001  0.1581524E+01  0.7818608E-02  0.3373664E+00
         11   -1    0    0    0    0  0.00000000000E+00  0.00000000000E+00  0.39999999674E+01  0.40000000000E+01  0.51100000000E-03 0. -1.
    9000002   -1    0    0    0    0 -0.00000000000E+00 -0.00000000000E+00  0.00000000000E+00  0.93800000000E+00  0.93800000000E+00 0.  1.
         11    1    1    2    0    0  0.12467676398E-01 -0.10972986831E+00  0.17768157885E+01  0.17802445603E+01  0.51100000000E-03 0. -1.
    9000002    1    1    2    0    0  0.34821689310E-01 -0.10977987496E+00  0.22156719889E-01  0.94530370317E+00  0.93800000000E+00 0.  1.
         22    1    1    2    0    0 -0.47289365709E-01  0.21950974327E+00  0.22010274589E+01  0.22124517365E+01  0.00000000000E+00 0.  1.
</event>
<event>
 5    1  0.2111786E+001  0.1569660E+01  0.7818608E-02  0.3386966E+00
         11   -1    0    0    0    0  0.00000000000E+00  0.00000000000E+00  0.39999999674E+01  0.40000000000E+01  0.51100000000E-03 0.  1.
    9000002   -1    0    0    0    0 -0.00000000000E+00 -0.00000000000E+00  0.00000000000E+00  0.93800000000E+00  0.93800000000E+00 0. -1.
         11    1    1    2    0    0  0.15504946570E+00  0.13737481781E+00  0.89897293952E+00  0.92253172547E+00  0.51100000000E-03 0.  1.
    9000002    1    1    2    0    0  0.25674840695E-01 -0.28836973108E+00  0.79607360594E-01  0.98488457756E+00  0.93800000000E+00 0. -1.
         22    1    1    2    0    0 -0.18072430639E+00  0.15099491327E+00  0.30214196672E+01  0.30305836970E+01  0.00000000000E+00 0.  1.
</event>
<event>
 5    1  0.2111786E+001  0.1551136E+01  0.7818608E-02  0.3408169E+00
         11   -1    0    0    0    0  0.00000000000E+00  0.00000000000E+00  0.39999999674E+01  0.40000000000E+01  0.51100000000E-03 0.  1.
    9000002   -1    0    0    0    0 -0.00000000000E+00 -0.00000000000E+00  0.00000000000E+00  0.93800000000E+00  0.93800000000E+00 0. -1.
         11    1    1    2    0    0 -0.90270999563E-01  0.24101483064E+00  0.14424855879E+01  0.14652651414E+01  0.51100000000E-03 0.  1.
    9000002    1    1    2    0    0  0.14786995916E+00  0.32445011268E-01  0.51868443393E-01  0.95155269901E+00  0.93800000000E+00 0. -1.
         22    1    1    2    0    0 -0.57598959600E-01 -0.27345984191E+00  0.25056459360E+01  0.25211821596E+01  0.00000000000E+00 0.  1.
</event>
<event>
 5    1  0.2111786E+001  0.1509866E+01  0.7818608E-02  0.3457403E+00
         11   -1    0    0    0    0  0.00000000000E+00  0.00000000000E+00  0.39999999674E+01  0.40000000000E+01  0.51100000000E-03 0. -1.
    9000002   -1    0    0    0    0 -0.00000000000E+00 -0.00000000000E+00  0.00000000000E+00  0.93800000000E+00  0.93800000000E+00 0. -1.
         11    1    1    2    0    0 -0.26922822735E+00 -0.18867678302E+00  0.96467250344E+00  0.10191545844E+01  0.51100000000E-03 0. -1.
    9000002    1    1    2    0    0  0.48562112964E-01  0.44420323386E-01  0.71179221578E-01  0.94299624895E+00  0.93800000000E+00 0. -1.
         22    1    1    2    0    0  0.22066611439E+00  0.14425645964E+00  0.29641482423E+01  0.29758491667E+01  0.00000000000E+00 0. -1.
</event>
<event>
 5    1  0.2111786E+001  0.1527470E+01  0.7818608E-02  0.3436054E+00
         11   -1    0    0    0    0  0.00000000000E+00  0.00000000000E+00  0.39999999674E+01  0.40000000000E+01  0.51100000000E-03 0.  1.
    9000002   -1    0    0    0    0 -0.00000000000E+00 -0.00000000000E+00  0.00000000000E+00  0.93800000000E+00  0.93800000000E+00 0. -1.
         11    1    1    2    0    0 -0.27994305049E+00 -0.55643791741E-01  0.16770364974E+01  0.17011513801E+01  0.51100000000E-03 0.  1.
    9000002    1    1    2    0    0 -0.87042773492E-01  0.32630467962E-01  0.60321636000E-01  0.94452310275E+00  0.93800000000E+00 0. -1.
         22    1    1    2    0    0  0.36698582398E+00  0.23013323779E-01  0.22626418339E+01  0.22923255172E+01  0.00000000000E+00 0. -1.
</event>
<event>
 5    1  0.2111786E+001  0.1571980E+01  0.7818608E-02  0.3384349E+00
         11   -1    0    0    0    0  0.00000000000E+00  0.00000000000E+00  0.39999999674E+01  0.40000000000E+01  0.51100000000E-03 0.  1.
    9000002   -1    0    0    0    0 -0.00000000000E+00 -0.00000000000E+00  0.00000000000E+00  0.93800000000E+00  0.93800000000E+00 0. -1.
         11    1    1    2    0    0 -0.13967849658E+00  0.44059709085E-01  0.28727577774E+01  0.28764889795E+01  0.51100000000E-03 0.  1.
    9000002    1    1    2    0    0 -0.46749269438E-01 -0.12404096318E+00  0.32231907735E-01  0.94786842474E+00  0.93800000000E+00 0. -1.
         22    1    1    2    0    0  0.18642776601E+00  0.79981254097E-01  0.10950102822E+01  0.11136425958E+01  0.00000000000E+00 0. -1.
</event>
<event>
 5    1  0.2111786E+001  0.1546867E+01  0.7818608E-02  0.3413131E+00
         11   -1    0    0    0    0  0.00000000000E+00  0.00000000000E+00  0.39999999674E+01  0.40000000000E+01  0.51100000000E-03 0. -1.
    9000002   -1    0    0    0    0 -0.00000000000E+00 -0.00000000000E+00  0.00000000000E+00  0.93800000000E+00  0.93800000000E+00 0.  1.
         11    1    1    2    0    0 -0.63396876720E+00  0.12887786076E+00  0.14676275615E+01  0.16038880326E+01  0.51100000000E-03 0. -1.
    9000002    1    1    2    0    0  0.87104189930E+00 -0.24182571814E-03  0.65583594213E+00  0.14382902460E+01  0.93800000000E+00 0.  1.
         22    1    1    2    0    0 -0.23707313210E+00 -0.12863603505E+00  0.18765364637E+01  0.18958217213E+01  0.00000000000E+00 0. -1.
</event>
<event>
 5    1  0.2111786E+001  0.1541613E+01  0.7818608E-02  0.3419279E+00
         11   -1    0    0    0    0  0.00000000000E+00  0.00000000000E+00  0.39999999674E+01  0.40000000000E+01  0.51100000000E-03 0. -1.
    9000002   -1    0    0    0    0 -0.00000000000E+00 -0.00000000000E+00  0.00000000000E+00  0.93800000000E+00  0.93800000000E+00 0.  1.
         11    1    1    2    0    0  0.22097609990E+00  0.16310250605E+00  0.24309137699E+01  0.24463799545E+01  0.51100000000E-03 0. -1.
    9000002    1    1    2    0    0  0.49527765721E-01 -0.56232333225E-01  0.47179233921E-01  0.94217034287E+00  0.93800000000E+00 0.  1.
         22    1    1    2    0    0 -0.27050386562E+00 -0.10687017282E+00  0.15219069636E+01  0.15494497026E+01  0.00000000000E+00 0.  1.
</event>
<event>
 5    1  0.2111786E+001  0.1540531E+01  0.7818608E-02  0.3420551E+00
         11   -1    0    0    0    0  0.00000000000E+00  0.00000000000E+00  0.39999999674E+01  0.40000000000E+01  0.51100000000E-03 0. -1.
    9000002   -1    0    0    0    0 -0.00000000000E+00 -0.00000000000E+00  0.00000000000E+00  0.93800000000E+00  0.93800000000E+00 0.  1.
         11    1    1    2    0    0 -0.10047661968E+00 -0.30302075864E+00  0.16219297623E+01  0.16530497713E+01  0.51100000000E-03 0. -1.
    9000002    1    1    2    0    0  0.34180295595E-02  0.78927873632E-01  0.48452141326E-01  0.94256718708E+00  0.93800000000E+00 0.  1.
         22    1    1    2    0    0  0.97058590125E-01  0.22409288501E+00  0.23296180637E+01  0.23423830416E+01  0.00000000000E+00 0. -1.
</event>
<event>
 5    1  0.2111786E+001  0.1512839E+01  0.7818608E-02  0.3453761E+00
         11   -1    0    0    0    0  0.00000000000E+00  0.00000000000E+00  0.39999999674E+01  0.40000000000E+01  0.51100000000E-03 0. -1.
    9000002   -1    0    0    0    0 -0.00000000000E+00 -0.00000000000E+00  0.00000000000E+00  0.93800000000E+00  0.93800000000E+00 0. -1.
         11    1    1    2    0    0  0.12691165167E+00  0.35061160873E+00  0.58438093118E+00  0.69320732927E+00  0.51100000000E-03 0. -1.
    9000002    1    1    2    0    0 -0.12366632251E+00 -0.60379170066E+00  0.35997902637E+00  0.11786800569E+01  0.93800000000E+00 0. -1.
         22    1    1    2    0    0 -0.32453291574E-02  0.25318009193E+00  0.30556400098E+01  0.30661126138E+01  0.00000000000E+00 0. -1.
</event>
<event>
 5    1  0.2111786E+001  0.1542526E+01  0.7818608E-02  0.3418208E+00
         11   -1    0    0    0    0  0.00000000000E+00  0.00000000000E+00  0.39999999674E+01  0.40000000000E+01  0.51100000000E-03 0.  1.
    9000002   -1    0    0    0    0 -0.00000000000E+00 -0.00000000000E+00  0.00000000000E+00  0.93800000000E+00  0.93800000000E+00 0. -1.
         11    1    1    2    0    0 -0.71546151965E-01  0.60807657376E-01  0.31681737554E+01  0.31695648958E+01  0.51100000000E-03 0.  1.
    9000002    1    1    2    0    0 -0.18960598678E+00 -0.13326220248E+00  0.80302205827E-01  0.96953684257E+00  0.93800000000E+00 0. -1.
         22    1    1    2    0    0  0.26115213874E+00  0.72454545105E-01  0.75152400613E+00  0.79889826165E+00  0.00000000000E+00 0.  1.
</event>
<event>
 5    1  0.2111786E+001  0.1571746E+01  0.7818608E-02  0.3384612E+00
         11   -1    0    0    0    0  0.00000000000E+00  0.00000000000E+00  0.39999999674E+01  0.40000000000E+01  0.51100000000E-03 0. -1.
    9000002   -1    0    0    0    0 -0.00000000000E+00 -0.00000000000E+00  0.00000000000E+00  0.93800000000E+00  0.93800000000E+00 0. -1.
         11    1    1    2    0    0  0.72166175451E-01  0.11844301163E+00  0.27475255108E+01  0.27510240634E+01  0.51100000000E-03 0. -1.
    9000002    1    1    2    0    0  0.21980317671E-01  0.66501207259E-01  0.23814324979E-01  0.94091267767E+00  0.93800000000E+00 0. -1.
         22    1    1    2    0    0 -0.94146493123E-01 -0.18494421889E+00  0.12286601316E+01  0.12460632589E+01  0.00000000000E+00 0. -1.
</event>
<event>
 5    1  0.2111786E+001  0.1559223E+01  0.7818608E-02  0.3398846E+00
         11   -1    0    0    0    0  0.00000000000E+00  0.00000000000E+00  0.39999999674E+01  0.40000000000E+01  0.51100000000E-03 0. -1.
    9000002   -1    0    0    0    0 -0.00000000000E+00 -0.00000000000E+00  0.00000000000E+00  0.93800000000E+00  0.93800000000E+00 0.  1.
         11    1    1    2    0    0 -0.17154720588E+00 -0.62166713210E-01  0.46340168525E+00  0.49803064874E+00  0.51100000000E-03 0. -1.
    9000002    1    1    2    0    0  0.32395240444E+00 -0.22551527450E+00  0.13935680548E+00  0.10271643581E+01  0.93800000000E+00 0.  1.
         22    1    1    2    0    0 -0.15240519856E+00  0.28768198771E+00  0.33972414766E+01  0.34128049931E+01  0.00000000000E+00 0. -1.
</event>
<event>
 5    1  0.2111786E+001  0.1535351E+01  0.7818608E-02  0.3426666E+00
         11   -1    0    0    0    0  0.00000000000E+00  0.00000000000E+00  0.39999999674E+01  0.40000000000E+01  0.51100000000E-03 0. -1.
    9000002   -1    0    0    0    0 -0.00000000000E+00 -0.00000000000E+00  0.00000000000E+00  0.93800000000E+00  0.93800000000E+00 0. -1.
         11    1    1    2    0    0 -0.96935129921E-01 -0.24841903209E+00  0.11156676968E+01  0.11470933292E+01  0.51100000000E-03 0. -1.
    9000002    1    1    2    0    0  0.30560966511E-01 -0.43908865089E-01  0.50093087577E-01  0.94085879840E+00  0.93800000000E+00 0. -1.
         22    1    1    2    0    0  0.66374163410E-01  0.29232789718E+00  0.28342391829E+01  0.28500478724E+01  0.00000000000E+00 0. -1.
</event>
<event>
 5    1  0.2111786E+001  0.1572786E+01  0.7818608E-02  0.3383440E+00
         11   -1    0    0    0    0  0.00000000000E+00  0.00000000000E+00  0.39999999674E+01  0.40000000000E+01  0.51100000000E-03 0.  1.
    9000002   -1    0    0    0    0 -0.00000000000E+00 -0.00000000000E+00  0.00000000000E+00  0.93800000000E+00  0.93800000000E+00 0. -1.
         11    1    1    2    0    0  0.22242176681E+00 -0.62695129984E-01  0.96741589685E+00  0.99463355075E+00  0.51100000000E-03 0.  1.
    9000002    1    1    2    0    0 -0.20579888362E+00  0.27638896219E+00  0.10147702335E+00  0.10044329869E+01  0.93800000000E+00 0. -1.
         22    1    1    2    0    0 -0.16622883192E-01 -0.21369383221E+00  0.29311070472E+01  0.29389334623E+01  0.00000000000E+00 0.  1.
</event>
<event>
 5    1  0.2111786E+001  0.1545434E+01  0.7818608E-02  0.3414804E+00
         11   -1    0    0    0    0  0.00000000000E+00  0.00000000000E+00  0.39999999674E+01  0.40000000000E+01  0.51100000000E-03 0. -1.
    9000002   -1    0    0    0    0 -0.00000000000E+00 -0.00000000000E+00  0.00000000000E+00  0.93800000000E+00  0.93800000000E+00 0. -1.
         11    1    1    2    0    0 -0.62870000108E-01 -0.23413912019E+00  0.17569965229E+01  0.17736433709E+01  0.51100000000E-03 0. -1.
    9000002    1    1    2    0    0  0.21246571415E+00 -0.95368064104E-01  0.78334267499E-01  0.96964787671E+00  0.93800000000E+00 0. -1.
         22    1    1    2    0    0 -0.14959571405E+00  0.32950718429E+00  0.21646691770E+01  0.21947087524E+01  0.00000000000E+00 0. -1.
</event>
<event>
 5    1  0.2111786E+001  0.1195882E+01  0.7818608E-02  0.4002802E+00
         11   -1    0    0    0    0  0.00000000000E+00  0.00000000000E+00  0.39999999674E+01  0.40000000000E+01  0.51100000000E-03 0.  1.
    9000002   -1    0    0    0    0 -0.00000000000E+00 -0.00000000000E+00  0.00000000000E+00  0.93800000000E+00  0.93800000000E+00 0.  1.
         11    1    1    2    0    0 -0.49464443529E+00 -0.49032903763E+00  0.61170901687E+00  0.92697565499E+00  0.51100000000E-03 0.  1.
    9000002    1    1    2    0    0  0.27563998121E+00  0.20611568353E+00  0.53137354479E+00  0.11316637833E+01  0.93800000000E+00 0.  1.
         22    1    1    2    0    0  0.21900445408E+00  0.28421335410E+00  0.28569174057E+01  0.28793605618E+01  0.00000000000E+00 0.  1.
</event>
<event>
 5    1  0.2111786E+001  0.1480446E+01  0.7818608E-02  0.3494306E+00
         11   -1    0    0    0    0  0.00000000000E+00  0.00000000000E+00  0.39999999674E+01  0.40000000000E+01  0.51100000000E-03 0. -1.
    9000002   -1    0    0    0    0 -0.00000000000E+00 -0.00000000000E+00  0.00000000000E+00  0.93800000000E+00  0.93800000000E+00 0. -1.
         11    1    1    2    0    0 -0.20003395983E+00 -0.53236379408E-02  0.36825762367E+01  0.36880089379E+01  0.51100000000E-03 0. -1.
    9000002    1    1    2    0    0  0.19166430242E-01  0.10785292812E+00  0.10079968389E+00  0.94973900753E+00  0.93800000000E+00 0. -1.
         22    1    1    2    0    0  0.18086752959E+00 -0.10252929018E+00  0.21662404678E+00  0.30025205453E+00  0.00000000000E+00 0. -1.
</event>
<event>
 5    1  0.2111786E+001  0.1545755E+01  0.7818608E-02  0.3414428E+00
         11   -1    0    0    0    0  0.00000000000E+00  0.00000000000E+00  0.39999999674E+01  0.40000000000E+01  0.51100000000E-03 0. -1.
    9000002   -1    0    0    0    0 -0.00000000000E+00 -0.00000000000E+00  0.00000000000E+00  0.93800000000E+00  0.93800000000E+00 0. -1.
         11    1    1    2    0    0  0.29709721176E+00  0.30376814311E+00  0.13856124871E+01  0.14492977829E+01  0.51100000000E-03 0. -1.
    9000002    1    1    2    0    0 -0.48463521335E+00 -0.16157804955E+00  0.22980649012E+00  0.10925354818E+01  0.93800000000E+00 0. -1.
         22    1    1    2    0    0  0.18753800159E+00 -0.14219009356E+00  0.23845809902E+01  0.23961667353E+01  0.00000000000E+00 0. -1.
</event>
<event>
 5    1  0.2111786E+001  0.1533378E+01  0.7818608E-02  0.3429006E+00
         11   -1    0    0    0    0  0.00000000000E+00  0.00000000000E+00  0.39999999674E+01  0.40000000000E+01  0.51100000000E-03 0.  1.
    9000002   -1    0    0    0    0 -0.00000000000E+00 -0.00000000000E+00  0.00000000000E+00  0.93800000000E+00  0.93800000000E+00 0.  1.
         11    1    1    2    0    0  0.27452554389E+00  0.43887310221E+00  0.21256213098E+01  0.21877477203E+01  0.51100000000E-03 0.  1.
    9000002    1    1    2    0    0 -0.44324030971E+00 -0.23426541134E+00  0.23456301512E+00  0.10891308751E+01  0.93800000000E+00 0.  1.
         22    1    1    2    0    0  0.16871476582E+00 -0.20460769087E+00  0.16398156425E+01  0.16611214045E+01  0.00000000000E+00 0. -1.
</event>
<event>
 5    1  0.2111786E+001  0.1568065E+01  0.7818608E-02  0.3388771E+00
         11   -1    0    0    0    0  0.00000000000E+00  0.00000000000E+00  0.39999999674E+01  0.40000000000E+01  0.51100000000E-03 0.  1.
    9000002   -1    0    0    0    0 -0.00000000000E+00 -0.00000000000E+00  0.00000000000E+00  0.93800000000E+00  0.93800000000E+00 0.  1.
         11    1    1    2    0    0 -0.12905881065E-02  0.10306736027E+00  0.26380093010E+00  0.28322383059E+00  0.51100000000E-03 0.  1.
    9000002    1    1    2    0    0 -0.10943426676E+00  0.70397060509E-01  0.34759264579E-01  0.94762007753E+00  0.93800000000E+00 0.  1.
         22    1    1    2    0    0  0.11072485486E+00 -0.17346442078E+00  0.37014397727E+01  0.37071560919E+01  0.00000000000E+00 0.  1.
</event>
<event>
 5    1  0.2111786E+001  0.1548583E+01  0.7818608E-02  0.3411133E+00
         11   -1    0    0    0    0  0.00000000000E+00  0.00000000000E+00  0.39999999674E+01  0.40000000000E+01  0.51100000000E-03 0.  1.
    9000002   -1    0    0    0    0 -0.00000000000E+00 -0.00000000000E+00  0.00000000000E+00  0.93800000000E+00  0.93800000000E+00 0. -1.
         11    1    1    2    0    0 -0.27052494079E+00  0.11725343958E+00  0.16676560076E+01  0.16935196880E+01  0.51100000000E-03 0.  1.
    9000002    1    1    2    0    0  0.42526772017E-01 -0.60425841279E-01  0.41713995710E-01  0.94183006220E+00  0.93800000000E+00 0. -1.
         22    1    1    2    0    0  0.22799816878E+00 -0.56827598306E-01  0.22906299641E+01  0.23026502498E+01  0.00000000000E+00 0.  1.
</event>
<event>
 5    1  0.2111786E+001  0.1585634E+01  0.7818608E-02  0.3369105E+00
         11   -1    0    0    0    0  0.00000000000E+00  0.00000000000E+00  0.39999999674E+01  0.40000000000E+01  0.51100000000E-03 0.  1.
    9000002   -1    0    0    0    0 -0.00000000000E+00 -0.00000000000E+00  0.00000000000E+00  0.93800000000E+00  0.93800000000E+00 0. -1.
         11    1    1    2    0    0 -0.65914657517E-01 -0.11008643486E+00  0.65446370047E+00  0.66692335510E+00  0.51100000000E-03 0.  1.
    9000002    1    1    2    0    0  0.30570102198E+00  0.26974661362E-01  0.73984173834E-01  0.98969611759E+00  0.93800000000E+00 0. -1.
         22    1    1    2    0    0 -0.23978636446E+00  0.83111773501E-01  0.32715520931E+01  0.32813805273E+01  0.00000000000E+00 0.  1.
</event>
<event>
 5    1  0.2111786E+001  0.1568698E+01  0.7818608E-02  0.3388055E+00
         11   -1    0    0    0    0  0.00000000000E+00  0.00000000000E+00  0.39999999674E+01  0.40000000000E+01  0.51100000000E-03 0. -1.
    9000002   -1    0    0    0    0 -0.00000000000E+00 -0.00000000000E+00  0.00000000000E+00  0.93800000000E+00  0.93800000000E+00 0.  1.
         11    1    1    2    0    0  0.16930726254E-02  0.23428251516E-03  0.28175614111E+01  0.28175619758E+01  0.51100000000E-03 0. -1.
    9000002    1    1    2    0    0 -0.26291331740E+00  0.61241855185E-01  0.72770136810E-01  0.97878162534E+00  0.93800000000E+00 0.  1.
         22    1    1    2    0    0  0.26122024478E+00 -0.61476137700E-01  0.11096684195E+01  0.11416563988E+01  0.00000000000E+00 0.  1.
</event>
<event>
 5    1  0.2111786E+001  0.1570164E+01  0.7818608E-02  0.3386397E+00
         11   -1    0    0    0    0  0.00000000000E+00  0.00000000000E+00  0.39999999674E+01  0.40000000000E+01  0.51100000000E-03 0. -1.
    9000002   -1    0    0    0    0 -0.00000000000E+00 -0.00000000000E+00  0.00000000000E+00  0.93800000000E+00  0.93800000000E+00 0. -1.
         11    1    1    2    0    0  0.10116642837E+00  0.14205765753E+00  0.11352980891E+01  0.11486152692E+01  0.51100000000E-03 0. -1.
    9000002    1    1    2    0    0  0.77862815172E-01 -0.60156298732E-02  0.25806974321E-01  0.94159906845E+00  0.93800000000E+00 0. -1.
         22    1    1    2    0    0 -0.17902924354E+00 -0.13604202766E+00  0.28388949039E+01  0.28477856624E+01  0.00000000000E+00 0. -1.
</event>
<event>
 5    1  0.2111786E+001  0.1555482E+01  0.7818608E-02  0.3403145E+00
         11   -1    0    0    0    0  0.00000000000E+00  0.00000000000E+00  0.39999999674E+01  0.40000000000E+01  0.51100000000E-03 0. -1.
    9000002   -1    0    0    0    0 -0.00000000000E+00 -0.00000000000E+00  0.00000000000E+00  0.93800000000E+00  0.93800000000E+00 0. -1.
         11    1    1    2    0    0 -0.13105773178E+00 -0.13369347824E+00  0.77759611722E+00  0.79981626504E+00  0.51100000000E-03 0. -1.
    9000002    1    1    2    0    0 -0.73776153145E-01 -0.29075515605E-01  0.37020220161E-01  0.94207367179E+00  0.93800000000E+00 0. -1.
         22    1    1    2    0    0  0.20483388492E+00  0.16276899384E+00  0.31853836300E+01  0.31961100632E+01  0.00000000000E+00 0. -1.
</event>
<event>
 5    1  0.2111786E+001  0.1585189E+01  0.7818608E-02  0.3369598E+00
         11   -1    0    0    0    0  0.00000000000E+00  0.00000000000E+00  0.39999999674E+01  0.40000000000E+01  0.51100000000E-03 0.  1.
    9000002   -1    0    0    0    0 -0.00000000000E+00 -0.00000000000E+00  0.00000000000E+00  0.93800000000E+00  0.93800000000E+00 0. -1.
         11    1    1    2    0    0  0.10111335516E+00  0.13217878723E-01  0.12715046738E+01  0.12755873234E+01  0.51100000000E-03 0.  1.
    9000002    1    1    2    0    0  0.74196335520E-01  0.12010727055E+00  0.23901410377E-01  0.94886570707E+00  0.93800000000E+00 0. -1.
         22    1    1    2    0    0 -0.17530969068E+00 -0.13332514927E+00  0.27045938832E+01  0.27135469695E+01  0.00000000000E+00 0.  1.
</event>
<event>
 5    1  0.2111786E+001  0.1497016E+01  0.7818608E-02  0.3473330E+00
         11   -1    0    0    0    0  0.00000000000E+00  0.00000000000E+00  0.39999999674E+01  0.40000000000E+01  0.51100000000E-03 0.  1.
    9000002   -1    0    0    0    0 -0.00000000000E+00 -0.00000000000E+00  0.00000000000E+00  0.93800000000E+00  0.93800000000E+00 0.  1.
         11    1    1    2    0    0 -0.69506961785E-01 -0.15838376627E+00  0.23804161140E+01  0.23866918050E+01  0.51100000000E-03 0.  1.
    9000002    1    1    2    0    0 -0.31553342231E+00 -0.17569669615E+00  0.17607294381E+00  0.10204294935E+01  0.93800000000E+00 0.  1.
         22    1    1    2    0    0  0.38504038410E+00  0.33408046242E+00  0.14435109095E+01  0.15308787015E+01  0.00000000000E+00 0.  1.
</event>
<event>
 5    1  0.2111786E+001  0.1524634E+01  0.7818608E-02  0.3439458E+00
         11   -1    0    0    0    0  0.00000000000E+00  0.00000000000E+00  0.39999999674E+01  0.40000000000E+01  0.51100000000E-03 0.  1.
    9000002   -1    0    0    0    0 -0.00000000000E+00 -0.00000000000E+00  0.00000000000E+00  0.93800000000E+00  0.93800000000E+00 0.  1.
         11    1    1    2    0    0 -0.31196591758E+00  0.36071072234E+00  0.24752068729E+01  0.25207309026E+01  0.51100000000E-03 0.  1.
    9000002    1    1    2    0    0  0.43858835968E-03 -0.50956454954E+00  0.24974188870E+00  0.10962988796E+01  0.93800000000E+00 0.  1.
         22    1    1    2    0    0  0.31152732922E+00  0.14885382720E+00  0.12750512058E+01  0.13209702177E+01  0.00000000000E+00 0.  1.
</event>
<event>
 5    1  0.2111786E+001  0.1578610E+01  0.7818608E-02  0.3376911E+00
         11   -1    0    0    0    0  0.00000000000E+00  0.00000000000E+00  0.39999999674E+01  0.40000000000E+01  0.51100000000E-03 0.  1.
    9000002   -1    0    0    0    0 -0.00000000000E+00 -0.00000000000E+00  0.00000000000E+00  0.93800000000E+00  0.93800000000E+00 0.  1.
         11    1    1    2    0    0  0.47589634832E-01  0.95159653277E-01  0.23459617174E+01  0.23483732186E+01  0.51100000000E-03 0.  1.
    9000002    1    1    2    0    0  0.91959816082E-01  0.73495115655E-01  0.24732564442E-01  0.94568167982E+00  0.93800000000E+00 0.  1.
         22    1    1    2    0    0 -0.13954945091E+00 -0.16865476893E+00  0.16293056855E+01  0.16439451016E+01  0.00000000000E+00 0. -1.
</event>
<event>
 5    1  0.2111786E+001  0.1510619E+01  0.7818608E-02  0.3456480E+00
         11   -1    0    0    0    0  0.00000000000E+00  0.00000000000E+00  0.39999999674E+01  0.40000000000E+01  0.51100000000E-03 0. -1.
    9000002   -1    0    0    0    0 -0.00000000000E+00 -0.00000000000E+00  0.00000000000E+00  0.93800000000E+00  0.93800000000E+00 0.  1.
         11    1    1    2    0    0 -0.33010361948E+00 -0.73623182800E-01  0.10318791472E+01  0.10858930003E+01  0.51100000000E-03 0. -1.
    9000002    1    1    2    0    0  0.40552055309E-01  0.28728393117E+00  0.12901310608E+00  0.99028526589E+00  0.93800000000E+00 0.  1.
         22    1    1    2    0    0  0.28955156418E+00 -0.21366074837E+00  0.28391077141E+01  0.28618217338E+01  0.00000000000E+00 0. -1.
</event>
<event>
 5    1  0.2111786E+001  0.1572524E+01  0.7818608E-02  0.3383736E+00
         11   -1    0    0    0    0  0.00000000000E+00  0.00000000000E+00  0.39999999674E+01  0.40000000000E+01  0.51100000000E-03 0. -1.
    9000002   -1    0    0    0    0 -0.00000000000E+00 -0.00000000000E+00  0.00000000000E+00  0.93800000000E+00  0.93800000000E+00 0. -1.
         11    1    1    2    0    0 -0.11080147850E-02  0.18713853553E+00  0.10677488267E+01  0.10840248509E+01  0.51100000000E-03 0. -1.
    9000002    1    1    2    0    0 -0.17543307678E+00 -0.65345237332E-01  0.43725801792E-01  0.95749815154E+00  0.93800000000E+00 0. -1.
         22    1    1    2    0    0  0.17654109156E+00 -0.12179329820E+00  0.28885253388E+01  0.28964769976E+01  0.00000000000E+00 0. -1.
</event>
<event>
 5    1  0.2111786E+001  0.1550633E+01  0.7818608E-02  0.3408751E+00
         11   -1    0    0    0    0  0.00000000000E+00  0.00000000000E+00  0.39999999674E+01  0.40000000000E+01  0.51100000000E-03 0.  1.
    9000002   -1    0    0    0    0 -0.00000000000E+00 -0.00000000000E+00  0.00000000000E+00  0.93800000000E+00  0.93800000000E+00 0. -1.
         11    1    1    2    0    0 -0.24740791104E+00 -0.20075764331E+00  0.16594556846E+01  0.16897655861E+01  0.51100000000E-03 0.  1.
    9000002    1    1    2    0    0  0.20870359719E+00 -0.21587113089E-01  0.66996277947E-01  0.96351216712E+00  0.93800000000E+00 0. -1.
         22    1    1    2    0    0  0.38704313848E-01  0.22234475640E+00  0.22735480048E+01  0.22847222467E+01  0.00000000000E+00 0.  1.
</event>
<event>
 5    1  0.2111786E+001  0.1556859E+01  0.7818608E-02  0.3401560E+00
         11   -1    0    0    0    0  0.00000000000E+00  0.00000000000E+00  0.39999999674E+01  0.40000000000E+01  0.51100000000E-03 0. -1.
    9000002   -1    0    0    0    0 -0.00000000000E+00 -0.00000000000E+00  0.00000000000E+00  0.93800000000E+00  0.93800000000E+00 0.  1.
         11    1    1    2    0    0  0.20613727070E+00  0.10640355624E+00  0.10266499662E+01  0.10525325199E+01  0.51100000000E-03 0. -1.
    9000002    1    1    2    0    0  0.31642673739E-01 -0.23064660288E+00  0.69179836979E-01  0.96893186761E+00  0.93800000000E+00 0.  1.
         22    1    1    2    0    0 -0.23777994444E+00  0.12424304664E+00  0.29041701642E+01  0.29165356125E+01  0.00000000000E+00 0. -1.
</event>
<event>
 5    1  0.2111786E+001  0.1539768E+01  0.7818608E-02  0.3421449E+00
         11   -1    0    0    0    0  0.00000000000E+00  0.00000000000E+00  0.39999999674E+01  0.40000000000E+01  0.51100000000E-03 0. -1.
    9000002   -1    0    0    0    0 -0.00000000000E+00 -0.00000000000E+00  0.00000000000E+00  0.93800000000E+00  0.93800000000E+00 0. -1.
         11    1    1    2    0    0 -0.20111595120E+00  0.27729966981E+00  0.28397947715E+01  0.28603806282E+01  0.51100000000E-03 0. -1.
    9000002    1    1    2    0    0  0.18758537987E+00 -0.29704840493E-01  0.70022769141E-01  0.95959253878E+00  0.93800000000E+00 0. -1.
         22    1    1    2    0    0  0.13530571323E-01 -0.24759482932E+00  0.10901824267E+01  0.11180268330E+01  0.00000000000E+00 0. -1.
</event>
<event>
 5    1  0.2111786E+001  0.1419864E+01  0.7818608E-02  0.3575559E+00
         11   -1    0    0    0    0  0.00000000000E+00  0.00000000000E+00  0.39999999674E+01  0.40000000000E+01  0.51100000000E-03 0.  1.
    9000002   -1    0    0    0    0 -0.00000000000E+00 -0.00000000000E+00  0.00000000000E+00  0.93800000000E+00  0.93800000000E+00 0.  1.
         11    1    1    2    0    0 -0.28594173353E+00 -0.58724138045E+00  0.22698283908E+01  0.23619348634E+01  0.51100000000E-03 0.  1.
    9000002    1    1    2    0    0  0.63095018839E-01  0.25555190312E+00  0.19996566522E+00  0.99454412866E+00  0.93800000000E+00 0.  1.
         22    1    1    2    0    0  0.22284671469E+00  0.33168947733E+00  0.15302059113E+01  0.15815210080E+01  0.00000000000E+00 0. -1.
</event>
<event>
 5    1  0.2111786E+001  0.1445416E+01  0.7818608E-02  0.3540370E+00
         11   -1    0    0    0    0  0.00000000000E+00  0.00000000000E+00  0.39999999674E+01  0.40000000000E+01  0.51100000000E-03 0. -1.
    9000002   -1    0    0    0    0 -0.00000000000E+00 -0.00000000000E+00  0.00000000000E+00  0.93800000000E+00  0.93800000000E+00 0. -1.
         11    1    1    2    0    0 -0.57299975669E+00  0.90670940876E+00  0.26188088362E+01  0.28299488785E+01  0.51100000000E-03 0. -1.
    9000002    1    1    2    0    0  0.37897670573E+00 -0.79962634735E+00  0.88321644440E+00  0.15629910193E+01  0.93800000000E+00 0. -1.
         22    1    1    2    0    0  0.19402305095E+00 -0.10708306141E+00  0.49797468676E+00  0.54506010219E+00  0.00000000000E+00 0. -1.
</event>
<event>
 5    1  0.2111786E+001  0.1592312E+01  0.7818608E-02  0.3361750E+00
         11   -1    0    0    0    0  0.00000000000E+00  0.00000000000E+00  0.39999999674E+01  0.40000000000E+01  0.51100000000E-03 0. -1.
    9000002   -1    0    0    0    0 -0.00000000000E+00 -0.00000000000E+00  0.00000000000E+00  0.93800000000E+00  0.93800000000E+00 0.  1.
         11    1    1    2    0    0  0.39459725838E-01 -0.29366439562E-01  0.86716730285E+00  0.86856136800E+00  0.51100000000E-03 0. -1.
    9000002    1    1    2    0    0  0.19224964912E+00  0.17966466384E-01  0.30198432447E-01  0.95814334357E+00  0.93800000000E+00 0.  1.
         22    1    1    2    0    0 -0.23170937495E+00  0.11399973178E-01  0.31026342321E+01  0.31112952884E+01  0.00000000000E+00 0. -1.
</event>
<event>
 5    1  0.2111786E+001  0.1535701E+01  0.7818608E-02  0.3426252E+00
         11   -1    0    0    0    0  0.00000000000E+00  0.00000000000E+00  0.39999999674E+01  0.40000000000E+01  0.51100000000E-03 0.  1.
    9000002   -1    0    0    0    0 -0.00000000000E+00 -0.00000000000E+00  0.00000000000E+00  0.93800000000E+00  0.93800000000E+00 0. -1.
         11    1    1    2    0    0  0.73465078045E-01 -0.26653013464E+00  0.16430335285E+01  0.16661317077E+01  0.51100000000E-03 0.  1.
    9000002    1    1    2    0    0  0.72515653647E-01 -0.36165764356E-01  0.52424146778E-01  0.94295215875E+00  0.93800000000E+00 0. -1.
         22    1    1    2    0    0 -0.14598073169E+00  0.30269589900E+00  0.23045422921E+01  0.23289161336E+01  0.00000000000E+00 0.  1.
</event>
<event>
 5    1  0.2111786E+001  0.1598622E+01  0.7818608E-02  0.3354860E+00
         11   -1    0    0    0    0  0.00000000000E+00  0.00000000000E+00  0.39999999674E+01  0.40000000000E+01  0.51100000000E-03 0. -1.
    9000002   -1    0    0    0    0 -0.00000000000E+00 -0.00000000000E+00  0.00000000000E+00  0.93800000000E+00  0.93800000000E+00 0.  1.
         11    1    1    2    0    0 -0.12864366453E+00  0.64776355982E-01  0.19899015452E+01  0.19951074130E+01  0.51100000000E-03 0. -1.
    9000002    1    1    2    0    0  0.32817443603E+00 -0.10862783859E+00  0.80934792722E-01  0.10029421262E+01  0.93800000000E+00 0.  1.
         22    1    1    2    0    0 -0.19953077149E+00  0.43851482607E-01  0.19291636294E+01  0.19399504608E+01  0.00000000000E+00 0.  1.
</event>
<event>
 5    1  0.2111786E+001  0.1527494E+01  0.7818608E-02  0.3436025E+00
         11   -1    0    0    0    0  0.00000000000E+00  0.00000000000E+00  0.39999999674E+01  0.40000000000E+01  0.51100000000E-03 0. -1.
    9000002   -1    0    0    0    0 -0.00000000000E+00 -0.00000000000E+00  0.00000000000E+00  0.93800000000E+00  0.93800000000E+00 0.  1.
         11    1    1    2    0    0 -0.14595759290E+00  0.54257710754E-01  0.23314366591E+00  0.28036359995E+00  0.51100000000E-03 0. -1.
    9000002    1    1    2    0    0 -0.61327570820E-01 -0.19125455657E-01  0.57102264761E-01  0.94192968030E+00  0.93800000000E+00 0.  1.
         22    1    1    2    0    0  0.20728516372E+00 -0.35132255097E-01  0.37097540367E+01  0.37157067197E+01  0.00000000000E+00 0. -1.
</event>
<event>
 5    1  0.2111786E+001  0.1533951E+01  0.7818608E-02  0.3428325E+00
         11   -1    0    0    0    0  0.00000000000E+00  0.00000000000E+00  0.39999999674E+01  0.40000000000E+01  0.51100000000E-03 0.  1.
    9000002   -1    0    0    0    0 -0.00000000000E+00 -0.00000000000E+00  0.00000000000E+00  0.93800000000E+00  0.93800000000E+00 0. -1.
         11    1    1    2    0    0 -0.27726935241E+00 -0.33943967311E-03  0.21707034262E+01  0.21883400181E+01  0.51100000000E-03 0.  1.
    9000002    1    1    2    0    0 -0.53838170203E-01 -0.19651954240E-01  0.51475578539E-01  0.94115805424E+00  0.93800000000E+00 0. -1.
         22    1    1    2    0    0  0.33110752261E+00  0.19991393913E-01  0.17778209626E+01  0.18085019277E+01  0.00000000000E+00 0. -1.
</event>
<event>
 5    1  0.2111786E+001  0.1567238E+01  0.7818608E-02  0.3389709E+00
         11   -1    0    0    0    0  0.00000000000E+00  0.00000000000E+00  0.39999999674E+01  0.40000000000E+01  0.51100000000E-03 0.  1.
    9000002   -1    0    0    0    0 -0.00000000000E+00 -0.00000000000E+00  0.00000000000E+00  0.93800000000E+00  0.93800000000E+00 0.  1.
         11    1    1    2    0    0  0.71557908377E-01  0.34646797461E+00  0.19523337288E+01  0.19841289881E+01  0.51100000000E-03 0.  1.
    9000002    1    1    2    0    0  0.16296119382E+00 -0.38285123709E+00  0.14485814659E+00  0.10363200775E+01  0.93800000000E+00 0.  1.
         22    1    1    2    0    0 -0.23451910220E+00  0.36383262476E-01  0.19028080920E+01  0.19175509344E+01  0.00000000000E+00 0.  1.
</event>
<event>
 5    1  0.2111786E+001  0.1568373E+01  0.7818608E-02  0.3388423E+00
         11   -1    0    0    0    0  0.00000000000E+00  0.00000000000E+00  0.39999999674E+01  0.40000000000E+01  0.51100000000E-03 0.  1.
    9000002   -1    0    0    0    0 -0.00000000000E+00 -0.00000000000E+00  0.00000000000E+00  0.93800000000E+00  0.93800000000E+00 0.  1.
         11    1    1    2    0    0 -0.14095627612E+00 -0.83515087483E-01  0.10879906105E+01  0.11002578203E+01  0.51100000000E-03 0.  1.
    9000002    1    1    2    0    0 -0.10781592997E+00 -0.11796268964E-02  0.30910037561E-01  0.94468253752E+00  0.93800000000E+00 0.  1.
         22    1    1    2    0    0  0.24877220609E+00  0.84694714380E-01  0.28810993193E+01  0.28930596421E+01  0.00000000000E+00 0. -1.
</event>
<event>
 5    1  0.2111786E+001  0.1596629E+01  0.7818608E-02  0.3357030E+00
         11   -1    0    0    0    0  0.00000000000E+00  0.00000000000E+00  0.39999999674E+01  0.40000000000E+01  0.51100000000E-03 0.  1.
    9000002   -1    0    0    0    0 -0.00000000000E+00 -0.00000000000E+00  0.00000000000E+00  0.93800000000E+00  0.93800000000E+00 0. -1.
         11    1    1    2    0    0 -0.14861873344E+00 -0.17398962281E+00  0.13859409852E+01  0.14047037383E+01  0.51100000000E-03 0.  1.
    9000002    1    1    2    0    0  0.42779031580E+00  0.30302293195E+00  0.19173712292E+00  0.10915285502E+01  0.93800000000E+00 0. -1.
         22    1    1    2    0    0 -0.27917158236E+00 -0.12903330913E+00  0.24223218593E+01  0.24417677116E+01  0.00000000000E+00 0.  1.
</event>
<event>
 5    1  0.2111786E+001  0.1470311E+01  0.7818608E-02  0.3507388E+00
         11   -1    0    0    0    0  0.00000000000E+00  0.00000000000E+00  0.39999999674E+01  0.40000000000E+01  0.51100000000E-03 0. -1.
    9000002   -1    0    0    0    0 -0.00000000000E+00 -0.00000000000E+00  0.00000000000E+00  0.93800000000E+00  0.93800000000E+00 0. -1.
         11    1    1    2    0    0 -0.85665185021E+00 -0.51051342603E-01  0.26263301366E+01  0.27629818819E+01  0.51100000000E-03 0. -1.
    9000002    1    1    2    0    0  0.64423837420E+00  0.79084291885E-01  0.44902251267E+00  0.12258721895E+01  0.93800000000E+00 0. -1.
         22    1    1    2    0    0  0.21241347601E+00 -0.28032949282E-01  0.92464731808E+00  0.94914592865E+00  0.00000000000E+00 0. -1.
</event>
<event>
 5    1  0.2111786E+001  0.1557983E+01  0.7818608E-02  0.3400269E+00
         11   -1    0    0    0    0  0.00000000000E+00  0.00000000000E+00  0.39999999674E+01  0.40000000000E+01  0.51100000000E-03 0. -1.
    9000002   -1    0    0    0    0 -0.00000000000E+00 -0.00000000000E+00  0.00000000000E+00  0.93800000000E+00  0.93800000000E+00 0. -1.
         11    1    1    2    0    0  0.46332604241E-01 -0.19854799291E+00  0.16527570892E+01  0.16652850425E+01  0.51100000000E-03 0. -1.
    9000002    1    1    2    0    0  0.30803683483E+00  0.75735476074E-01  0.10093867250E+00  0.99531661774E+00  0.93800000000E+00 0. -1.
         22    1    1    2    0    0 -0.35436943907E+00  0.12281251684E+00  0.22463042057E+01  0.22773983398E+01  0.00000000000E+00 0. -1.
</event>
<event>
 5    1  0.2111786E+001  0.1514003E+01  0.7818608E-02  0.3452338E+00
         11   -1    0    0    0    0  0.00000000000E+00  0.00000000000E+00  0.39999999674E+01  0.40000000000E+01  0.51100000000E-03 0. -1.
    9000002   -1    0    0    0    0 -0.00000000000E+00 -0.00000000000E+00  0.00000000000E+00  0.93800000000E+00  0.93800000000E+00 0. -1.
         11    1    1    2    0    0  0.67779900774E-02  0.37946698311E+00  0.32433445485E+01  0.32654747363E+01  0.51100000000E-03 0. -1.
    9000002    1    1    2    0    0  0.15116509610E+00 -0.17961664653E+00  0.10471205016E+00  0.97258502941E+00  0.93800000000E+00 0. -1.
         22    1    1    2    0    0 -0.15794308617E+00 -0.19985033658E+00  0.65194336872E+00  0.69994023425E+00  0.00000000000E+00 0.  1.
</event>
<event>
 5    1  0.2111786E+001  0.1379893E+01  0.7818608E-02  0.3639654E+00
         11   -1    0    0    0    0  0.00000000000E+00  0.00000000000E+00  0.39999999674E+01  0.40000000000E+01  0.51100000000E-03 0. -1.
    9000002   -1    0    0    0    0 -0.00000000000E+00 -0.00000000000E+00  0.00000000000E+00  0.93800000000E+00  0.93800000000E+00 0. -1.
         11    1    1    2    0    0 -0.31857267656E+00 -0.45859004291E+00  0.32395452787E+01  0.32873161168E+01  0.51100000000E-03 0. -1.
    9000002    1    1    2    0    0  0.96671858738E-02  0.22937229236E+00  0.22528447486E+00  0.99161595267E+00  0.93800000000E+00 0. -1.
         22    1    1    2    0    0  0.30890549069E+00  0.22921775054E+00  0.53517021379E+00  0.65906793054E+00  0.00000000000E+00 0. -1.
</event>
<event>
 5    1  0.2111786E+001  0.1536652E+01  0.7818608E-02  0.3425126E+00
         11   -1    0    0    0    0  0.00000000000E+00  0.00000000000E+00  0.39999999674E+01  0.40000000000E+01  0.51100000000E-03 0. -1.
    9000002   -1    0    0    0    0 -0.00000000000E+00 -0.00000000000E+00  0.00000000000E+00  0.93800000000E+00  0.93800000000E+00 0. -1.
         11    1    1    2    0    0 -0.36651944685E+00 -0.42545455876E-01  0.20058141631E+01  0.20394698671E+01  0.51100000000E-03 0. -1.
    9000002    1    1    2    0    0  0.13117137966E+00  0.89117755664E-02  0.59224825046E-01  0.94901893052E+00  0.93800000000E+00 0. -1.
         22    1    1    2    0    0  0.23534806719E+00  0.33633680310E-01  0.19349609792E+01  0.19495112024E+01  0.00000000000E+00 0. -1.
</event>
<event>
 5    1  0.2111786E+001  0.1469584E+01  0.7818608E-02  0.3508335E+00
         11   -1    0    0    0    0  0.00000000000E+00  0.00000000000E+00  0.39999999674E+01  0.40000000000E+01  0.51100000000E-03 0. -1.
    9000002   -1    0    0    0    0 -0.00000000000E+00 -0.00000000000E+00  0.00000000000E+00  0.93800000000E+00  0.93800000000E+00 0. -1.
         11    1    1    2    0    0 -0.17080527284E+00 -0.17258735164E+00  0.30544013736E+00  0.39019837751E+00  0.51100000000E-03 0. -1.
    9000002    1    1    2    0    0  0.87874708028E-01 -0.14015412746E+00  0.12158153630E+00  0.96020373553E+00  0.93800000000E+00 0. -1.
         22    1    1    2    0    0  0.82930564810E-01  0.31274147910E+00  0.35729782937E+01  0.35875978870E+01  0.00000000000E+00 0. -1.
</event>
<event>
 5    1  0.2111786E+001  0.1591820E+01  0.7818608E-02  0.3362290E+00
         11   -1    0    0    0    0  0.00000000000E+00  0.00000000000E+00  0.39999999674E+01  0.40000000000E+01  0.51100000000E-03 0. -1.
    9000002   -1    0    0    0    0 -0.00000000000E+00 -0.00000000000E+00  0.00000000000E+00  0.93800000000E+00  0.93800000000E+00 0.  1.
         11    1    1    2    0    0  0.27062481960E-01 -0.46401740638E-01  0.10339036260E+01  0.10352982510E+01  0.51100000000E-03 0. -1.
    9000002    1    1    2    0    0  0.10995765968E-01 -0.16251634440E+00  0.23371687780E-01  0.95232489459E+00  0.93800000000E+00 0.  1.
         22    1    1    2    0    0 -0.38058247928E-01  0.20891808503E+00  0.29427246536E+01  0.29503768544E+01  0.00000000000E+00 0. -1.
</event>
<event>
 5    1  0.2111786E+001  0.1562211E+01  0.7818608E-02  0.3395428E+00
         11   -1    0    0    0    0  0.00000000000E+00  0.00000000000E+00  0.39999999674E+01  0.40000000000E+01  0.51100000000E-03 0. -1.
    9000002   -1    0    0    0    0 -0.00000000000E+00 -0.00000000000E+00  0.00000000000E+00  0.93800000000E+00  0.93800000000E+00 0. -1.
         11    1    1    2    0    0 -0.33807256716E-01 -0.25734463572E+00  0.20819049357E+01  0.20980223103E+01  0.51100000000E-03 0. -1.
    9000002    1    1    2    0    0  0.59410653369E-01  0.47158798541E-01  0.31553423397E-01  0.94159077977E+00  0.93800000000E+00 0. -1.
         22    1    1    2    0    0 -0.25603396653E-01  0.21018583717E+00  0.18865416082E+01  0.18983869099E+01  0.00000000000E+00 0. -1.
</event>
<event>
 5    1  0.2111786E+001  0.1534088E+01  0.7818608E-02  0.3428163E+00
         11   -1    0    0    0    0  0.00000000000E+00  0.00000000000E+00  0.39999999674E+01  0.40000000000E+01  0.51100000000E-03 0.  1.
    9000002   -1    0    0    0    0 -0.00000000000E+00 -0.00000000000E+00  0.00000000000E+00  0.93800000000E+00  0.93800000000E+00 0. -1.
         11    1    1    2    0    0  0.23157670593E+00 -0.97342894979E-02  0.66568845725E+00  0.70488574277E+00  0.51100000000E-03 0.  1.
    9000002    1    1    2    0    0  0.73038906245E-02  0.52175607315E-01  0.51011664869E-01  0.94086228045E+00  0.93800000000E+00 0. -1.
         22    1    1    2    0    0 -0.23888059656E+00 -0.42441317818E-01  0.32832998452E+01  0.32922519768E+01  0.00000000000E+00 0.  1.
</event>
<event>
 5    1  0.2111786E+001  0.1563924E+01  0.7818608E-02  0.3393475E+00
         11   -1    0    0    0    0  0.00000000000E+00  0.00000000000E+00  0.39999999674E+01  0.40000000000E+01  0.51100000000E-03 0. -1.
    9000002   -1    0    0    0    0 -0.00000000000E+00 -0.00000000000E+00  0.00000000000E+00  0.93800000000E+00  0.93800000000E+00 0. -1.
         11    1    1    2    0    0 -0.16211672691E+00 -0.17927007583E-01  0.78673440170E+00  0.80346405687E+00  0.51100000000E-03 0. -1.
    9000002    1    1    2    0    0 -0.99188575338E-01  0.11983025360E+00  0.42889561771E-01  0.95177790354E+00  0.93800000000E+00 0. -1.
         22    1    1    2    0    0  0.26130530225E+00 -0.10190324602E+00  0.31703760039E+01  0.31827580396E+01  0.00000000000E+00 0. -1.
</event>
<event>
 5    1  0.2111786E+001  0.1544349E+01  0.7818608E-02  0.3416073E+00
         11   -1    0    0    0    0  0.00000000000E+00  0.00000000000E+00  0.39999999674E+01  0.40000000000E+01  0.51100000000E-03 0. -1.
    9000002   -1    0    0    0    0 -0.00000000000E+00 -0.00000000000E+00  0.00000000000E+00  0.93800000000E+00  0.93800000000E+00 0. -1.
         11    1    1    2    0    0 -0.95854395751E-02  0.27669504763E+00  0.10410720090E+01  0.10772572669E+01  0.51100000000E-03 0. -1.
    9000002    1    1    2    0    0  0.21956607047E+00 -0.11405344991E+00  0.84155309851E-01  0.97372663767E+00  0.93800000000E+00 0. -1.
         22    1    1    2    0    0 -0.20998063090E+00 -0.16264159772E+00  0.28747726485E+01  0.28870160954E+01  0.00000000000E+00 0. -1.
</event>
<event>
 5    1  0.2111786E+001  0.1526097E+01  0.7818608E-02  0.3437700E+00
         11   -1    0    0    0    0  0.00000000000E+00  0.00000000000E+00  0.39999999674E+01  0.40000000000E+01  0.51100000000E-03 0. -1.
    9000002   -1    0    0    0    0 -0.00000000000E+00 -0.00000000000E+00  0.00000000000E+00  0.93800000000E+00  0.93800000000E+00 0. -1.
         11    1    1    2    0    0 -0.66448270080E+00  0.16292661341E+00  0.25401952845E+01  0.26307175229E+01  0.51100000000E-03 0. -1.
    9000002    1    1    2    0    0  0.60623938164E+00 -0.47826155469E+00  0.53327971046E+00  0.13268351639E+01  0.93800000000E+00 0. -1.
         22    1    1    2    0    0  0.58243319166E-01  0.31533494127E+00  0.92652497242E+00  0.98044731319E+00  0.00000000000E+00 0.  1.
</event>
<event>
 5    1  0.2111786E+001  0.1562502E+01  0.7818608E-02  0.3395096E+00
         11   -1    0    0    0    0  0.00000000000E+00  0.00000000000E+00  0.39999999674E+01  0.40000000000E+01  0.51100000000E-03 0. -1.
    9000002   -1    0    0    0    0 -0.00000000000E+00 -0.00000000000E+00  0.00000000000E+00  0.93800000000E+00  0.93800000000E+00 0.  1.
         11    1    1    2    0    0 -0.14715072309E-01  0.20491357778E+00  0.16165937754E+01  0.16295955951E+01  0.51100000000E-03 0. -1.
    9000002    1    1    2    0    0 -0.19852175029E+00  0.50327360499E-02  0.54486109894E-01  0.96033793528E+00  0.93800000000E+00 0.  1.
         22    1    1    2    0    0  0.21323682260E+00 -0.20994631383E+00  0.23289200821E+01  0.23480664696E+01  0.00000000000E+00 0. -1.
</event>
<event>
 5    1  0.2111786E+001  0.1542396E+01  0.7818608E-02  0.3418360E+00
         11   -1    0    0    0    0  0.00000000000E+00  0.00000000000E+00  0.39999999674E+01  0.40000000000E+01  0.51100000000E-03 0.  1.
    9000002   -1    0    0    0    0 -0.00000000000E+00 -0.00000000000E+00  0.00000000000E+00  0.93800000000E+00  0.93800000000E+00 0.  1.
         11    1    1    2    0    0 -0.19618692579E+00 -0.25216686440E+00  0.26149434584E+01  0.26343893010E+01  0.51100000000E-03 0.  1.
    9000002    1    1    2    0    0  0.29189754695E-01  0.67470395575E-01  0.46428408010E-01  0.94202117446E+00  0.93800000000E+00 0.  1.
         22    1    1    2    0    0  0.16699717110E+00  0.18469646882E+00  0.13386281010E+01  0.13615895246E+01  0.00000000000E+00 0.  1.
</event>
<event>
 5    1  0.2111786E+001  0.1554708E+01  0.7818608E-02  0.3404038E+00
         11   -1    0    0    0    0  0.00000000000E+00  0.00000000000E+00  0.39999999674E+01  0.40000000000E+01  0.51100000000E-03 0. -1.
    9000002   -1    0    0    0    0 -0.00000000000E+00 -0.00000000000E+00  0.00000000000E+00  0.93800000000E+00  0.93800000000E+00 0. -1.
         11    1    1    2    0    0  0.13172210409E+00 -0.15324357612E+00  0.79877622055E+00  0.82394054274E+00  0.51100000000E-03 0. -1.
    9000002    1    1    2    0    0 -0.38743894541E-01 -0.53276904721E-01  0.36267100614E-01  0.94100946888E+00  0.93800000000E+00 0. -1.
         22    1    1    2    0    0 -0.92978209549E-01  0.20652048084E+00  0.31649566462E+01  0.31730499884E+01  0.00000000000E+00 0. -1.
</event>
<event>
 5    1  0.2111786E+001  0.1542890E+01  0.7818608E-02  0.3417781E+00
         11   -1    0    0    0    0  0.00000000000E+00  0.00000000000E+00  0.39999999674E+01  0.40000000000E+01  0.51100000000E-03 0. -1.
    9000002   -1    0    0    0    0 -0.00000000000E+00 -0.00000000000E+00  0.00000000000E+00  0.93800000000E+00  0.93800000000E+00 0. -1.
         11    1    1    2    0    0  0.20161297450E+00  0.47716294042E+00  0.21810401215E+01  0.22417110733E+01  0.51100000000E-03 0. -1.
    9000002    1    1    2    0    0  0.39725386513E-01 -0.52440847801E+00  0.24460204612E+00  0.11028402056E+01  0.93800000000E+00 0. -1.
         22    1    1    2    0    0 -0.24133836101E+00  0.47245537588E-01  0.15743577997E+01  0.15934487211E+01  0.00000000000E+00 0.  1.
</event>
<event>
 5    1  0.2111786E+001  0.1593298E+01  0.7818608E-02  0.3360669E+00
         11   -1    0    0    0    0  0.00000000000E+00  0.00000000000E+00  0.39999999674E+01  0.40000000000E+01  0.51100000000E-03 0.  1.
    9000002   -1    0    0    0    0 -0.00000000000E+00 -0.00000000000E+00  0.00000000000E+00  0.93800000000E+00  0.93800000000E+00 0. -1.
         11    1    1    2    0    0  0.15973656159E+00 -0.27622204001E-02  0.20107714788E+01  0.20171082271E+01  0.51100000000E-03 0.  1.
    9000002    1    1    2    0    0 -0.29519470850E+00  0.19177792386E+00  0.88267522752E-01  0.10057603311E+01  0.93800000000E+00 0. -1.
         22    1    1    2    0    0  0.13545814691E+00 -0.18901570346E+00  0.19009609658E+01  0.19151314418E+01  0.00000000000E+00 0. -1.
</event>
<event>
 5    1  0.2111786E+001  0.1569872E+01  0.7818608E-02  0.3386726E+00
         11   -1    0    0    0    0  0.00000000000E+00  0.00000000000E+00  0.39999999674E+01  0.40000000000E+01  0.51100000000E-03 0.  1.
    9000002   -1    0    0    0    0 -0.00000000000E+00 -0.00000000000E+00  0.00000000000E+00  0.93800000000E+00  0.93800000000E+00 0. -1.
         11    1    1    2    0    0 -0.44913555222E-01 -0.17529537346E+00  0.15602246503E+01  0.15706835823E+01  0.51100000000E-03 0.  1.
    9000002    1    1    2    0    0 -0.63530109087E-01 -0.38668216621E-01  0.25640144129E-01  0.94129311202E+00  0.93800000000E+00 0. -1.
         22    1    1    2    0    0  0.10844366431E+00  0.21396359008E+00  0.24141351730E+01  0.24260233057E+01  0.00000000000E+00 0.  1.
</event>
<event>
 5    1  0.2111786E+001  0.1548103E+01  0.7818608E-02  0.3411691E+00
         11   -1    0    0    0    0  0.00000000000E+00  0.00000000000E+00  0.39999999674E+01  0.40000000000E+01  0.51100000000E-03 0.  1.
    9000002   -1    0    0    0    0 -0.00000000000E+00 -0.00000000000E+00  0.00000000000E+00  0.93800000000E+00  0.93800000000E+00 0. -1.
         11    1    1    2    0    0 -0.73864571145E-01 -0.27700960815E+00  0.19029397666E+01  0.19244142783E+01  0.51100000000E-03 0.  1.
    9000002    1    1    2    0    0 -0.29936115180E-01  0.38707451686E-01  0.39956156657E-01  0.94012495566E+00  0.93800000000E+00 0. -1.
         22    1    1    2    0    0  0.10380068633E+00  0.23830215647E+00  0.20571040441E+01  0.20734607660E+01  0.00000000000E+00 0. -1.
</event>
<event>
 5    1  0.2111786E+001  0.1557150E+01  0.7818608E-02  0.3401227E+00
         11   -1    0    0    0    0  0.00000000000E+00  0.00000000000E+00  0.39999999674E+01  0.40000000000E+01  0.51100000000E-03 0.  1.
    9000002   -1    0    0    0    0 -0.00000000000E+00 -0.00000000000E+00  0.00000000000E+00  0.93800000000E+00  0.93800000000E+00 0.  1.
         11    1    1    2    0    0  0.12008888854E+00  0.99688573925E-01  0.51714537956E+00  0.54018400351E+00  0.51100000000E-03 0.  1.
    9000002    1    1    2    0    0  0.12869448706E+00 -0.13639705163E-01  0.42955950344E-01  0.94785944434E+00  0.93800000000E+00 0.  1.
         22    1    1    2    0    0 -0.24878337559E+00 -0.86048868763E-01  0.34398986375E+01  0.34499565522E+01  0.00000000000E+00 0.  1.
</event>
<event>
 5    1  0.2111786E+001  0.1530424E+01  0.7818608E-02  0.3432523E+00
         11   -1    0    0    0    0  0.00000000000E+00  0.00000000000E+00  0.39999999674E+01  0.40000000000E+01  0.51100000000E-03 0.  1.
    9000002   -1    0    0    0    0 -0.00000000000E+00 -0.00000000000E+00  0.00000000000E+00  0.93800000000E+00  0.93800000000E+00 0.  1.
         11    1    1    2    0    0  0.30238225771E+00  0.11130756756E+00  0.26151864334E+01  0.26349620010E+01  0.51100000000E-03 0.  1.
    9000002    1    1    2    0    0 -0.69134268891E-01  0.65514862125E-01  0.58308268630E-01  0.94462458071E+00  0.93800000000E+00 0.  1.
         22    1    1    2    0    0 -0.23324798882E+00 -0.17682242968E+00  0.13265052654E+01  0.13584134183E+01  0.00000000000E+00 0.  1.
</event>
<event>
 5    1  0.2111786E+001  0.1547292E+01  0.7818608E-02  0.3412635E+00
         11   -1    0    0    0    0  0.00000000000E+00  0.00000000000E+00  0.39999999674E+01  0.40000000000E+01  0.51100000000E-03 0.  1.
    9000002   -1    0    0    0    0 -0.00000000000E+00 -0.00000000000E+00  0.00000000000E+00  0.93800000000E+00  0.93800000000E+00 0. -1.
         11    1    1    2    0    0 -0.26158337457E+00 -0.14161379027E+00  0.13810408248E+01  0.14127117003E+01  0.51100000000E-03 0.  1.
    9000002    1    1    2    0    0  0.20381012077E+00 -0.11696601965E+00  0.77535297025E-01  0.97009037588E+00  0.93800000000E+00 0. -1.
         22    1    1    2    0    0  0.57773253794E-01  0.25857980993E+00  0.25414238455E+01  0.25551979238E+01  0.00000000000E+00 0.  1.
</event>
<event>
 5    1  0.2111786E+001  0.1588485E+01  0.7818608E-02  0.3365957E+00
         11   -1    0    0    0    0  0.00000000000E+00  0.00000000000E+00  0.39999999674E+01  0.40000000000E+01  0.51100000000E-03 0.  1.
    9000002   -1    0    0    0    0 -0.00000000000E+00 -0.00000000000E+00  0.00000000000E+00  0.93800000000E+00  0.93800000000E+00 0.  1.
         11    1    1    2    0    0 -0.51816227432E-01 -0.17538556553E-01  0.13781664060E+01  0.13792517632E+01  0.51100000000E-03 0.  1.
    9000002    1    1    2    0    0 -0.19385623680E+00 -0.14153760399E-01  0.33421073577E-01  0.95851006131E+00  0.93800000000E+00 0.  1.
         22    1    1    2    0    0  0.24567246423E+00  0.31692316952E-01  0.25884124877E+01  0.26002381755E+01  0.00000000000E+00 0.  1.
</event>
<event>
 5    1  0.2111786E+001  0.1530871E+01  0.7818608E-02  0.3431989E+00
         11   -1    0    0    0    0  0.00000000000E+00  0.00000000000E+00  0.39999999674E+01  0.40000000000E+01  0.51100000000E-03 0. -1.
    9000002   -1    0    0    0    0 -0.00000000000E+00 -0.00000000000E+00  0.00000000000E+00  0.93800000000E+00  0.93800000000E+00 0.  1.
         11    1    1    2    0    0  0.23107141498E+00  0.21592686063E+00  0.23717501501E+01  0.23927426613E+01  0.51100000000E-03 0. -1.
    9000002    1    1    2    0    0  0.29193733853E-01 -0.60541857467E+00  0.32916489469E+00  0.11642926834E+01  0.93800000000E+00 0.  1.
         22    1    1    2    0    0 -0.26026514884E+00  0.38949171405E+00  0.12990849226E+01  0.13809646553E+01  0.00000000000E+00 0. -1.
</event>
<event>
 5    1  0.2111786E+001  0.1515562E+01  0.7818608E-02  0.3450438E+00
         11   -1    0    0    0    0  0.00000000000E+00  0.00000000000E+00  0.39999999674E+01  0.40000000000E+01  0.51100000000E-03 0. -1.
    9000002   -1    0    0    0    0 -0.00000000000E+00 -0.00000000000E+00  0.00000000000E+00  0.93800000000E+00  0.93800000000E+00 0.  1.
         11    1    1    2    0    0 -0.11569952766E+00 -0.27649958518E+00  0.81949788188E+00  0.87259122207E+00  0.51100000000E-03 0. -1.
    9000002    1    1    2    0    0  0.56336928481E-01  0.46766546856E-01  0.67386200135E-01  0.94326340933E+00  0.93800000000E+00 0.  1.
         22    1    1    2    0    0  0.59362599175E-01  0.22973303833E+00  0.31131158853E+01  0.31221453686E+01  0.00000000000E+00 0. -1.
</event>
<event>
 5    1  0.2111786E+001  0.1575441E+01  0.7818608E-02  0.3380458E+00
         11   -1    0    0    0    0  0.00000000000E+00  0.00000000000E+00  0.39999999674E+01  0.40000000000E+01  0.51100000000E-03 0.  1.
    9000002   -1    0    0    0    0 -0.00000000000E+00 -0.00000000000E+00  0.00000000000E+00  0.93800000000E+00  0.93800000000E+00 0.  1.
         11    1    1    2    0    0 -0.11050909773E+00  0.80350832600E-01  0.81990339151E+00  0.83121017169E+00  0.51100000000E-03 0.  1.
    9000002    1    1    2    0    0 -0.55772803680E-01  0.47769455125E-01  0.21387279902E-01  0.94111313997E+00  0.93800000000E+00 0.  1.
         22    1    1    2    0    0  0.16628190141E+00 -0.12812028772E+00  0.31587092959E+01  0.31656766883E+01  0.00000000000E+00 0.  1.
</event>
<event>
 5    1  0.2111786E+001  0.1596453E+01  0.7818608E-02  0.3357222E+00
         11   -1    0    0    0    0  0.00000000000E+00  0.00000000000E+00  0.39999999674E+01  0.40000000000E+01  0.51100000000E-03 0.  1.
    9000002   -1    0    0    0    0 -0.00000000000E+00 -0.00000000000E+00  0.00000000000E+00  0.93800000000E+00  0.93800000000E+00 0.  1.
         11    1    1    2    0    0 -0.18306191382E+00  0.18792427981E-01  0.18308537554E+01  0.18400789533E+01  0.51100000000E-03 0.  1.
    9000002    1    1    2    0    0  0.41942123876E+00  0.10098992706E+00  0.12881669522E+00  0.10404570543E+01  0.93800000000E+00 0.  1.
         22    1    1    2    0    0 -0.23635932493E+00 -0.11978235505E+00  0.20403295167E+01  0.20574639924E+01  0.00000000000E+00 0.  1.
</event>
<event>
 5    1  0.2111786E+001  0.1560294E+01  0.7818608E-02  0.3397620E+00
         11   -1    0    0    0    0  0.00000000000E+00  0.00000000000E+00  0.39999999674E+01  0.40000000000E+01  0.51100000000E-03 0.  1.
    9000002   -1    0    0    0    0 -0.00000000000E+00 -0.00000000000E+00  0.00000000000E+00  0.93800000000E+00  0.93800000000E+00 0. -1.
         11    1    1    2    0    0  0.61028722887E-01  0.11172335829E+00  0.23687876829E+01  0.23722061381E+01  0.51100000000E-03 0.  1.
    9000002    1    1    2    0    0  0.24858796808E+00 -0.15733234726E-01  0.71926419169E-01  0.97317055151E+00  0.93800000000E+00 0. -1.
         22    1    1    2    0    0 -0.30961669096E+00 -0.95990123562E-01  0.15592858653E+01  0.15926233104E+01  0.00000000000E+00 0.  1.
</event>
<event>
 5    1  0.2111786E+001  0.1582378E+01  0.7818608E-02  0.3372715E+00
         11   -1    0    0    0    0  0.00000000000E+00  0.00000000000E+00  0.39999999674E+01  0.40000000000E+01  0.51100000000E-03 0. -1.
    9000002   -1    0    0    0    0 -0.00000000000E+00 -0.00000000000E+00  0.00000000000E+00  0.93800000000E+00  0.93800000000E+00 0.  1.
         11    1    1    2    0    0  0.70451244624E-01  0.13833941998E+00  0.82171412827E+00  0.83625088503E+00  0.51100000000E-03 0. -1.
    9000002    1    1    2    0    0 -0.27077213676E+00 -0.48264312026E-01  0.63847149158E-01  0.97957513868E+00  0.93800000000E+00 0.  1.
         22    1    1    2    0    0  0.20032089214E+00 -0.90075107951E-01  0.31144386899E+01  0.31221739763E+01  0.00000000000E+00 0. -1.
</event>
<event>
 5    1  0.2111786E+001  0.1519933E+01  0.7818608E-02  0.3445130E+00
         11   -1    0    0    0    0  0.00000000000E+00  0.00000000000E+00  0.39999999674E+01  0.40000000000E+01  0.51100000000E-03 0. -1.
    9000002   -1    0    0    0    0 -0.00000000000E+00 -0.00000000000E+00  0.00000000000E+00  0.93800000000E+00  0.93800000000E+00 0. -1.
         11    1    1    2    0    0  0.27749022088E+00  0.25856424084E+00  0.24217359693E+01  0.24512571581E+01  0.51100000000E-03 0. -1.
    9000002    1    1    2    0    0 -0.13685044508E+00  0.15625354505E-01  0.73670752963E-01  0.95091722871E+00  0.93800000000E+00 0. -1.
         22    1    1    2    0    0 -0.14063977580E+00 -0.27418959535E+00  0.15045932451E+01  0.15358256132E+01  0.00000000000E+00 0. -1.
</event>
<event>
 5    1  0.2111786E+001  0.1485050E+01  0.7818608E-02  0.3488426E+00
         11   -1    0    0    0    0  0.00000000000E+00  0.00000000000E+00  0.39999999674E+01  0.40000000000E+01  0.51100000000E-03 0.  1.
    9000002   -1    0    0    0    0 -0.00000000000E+00 -0.00000000000E+00  0.00000000000E+00  0.93800000000E+00  0.93800000000E+00 0. -1.
         11    1    1    2    0    0 -0.19558299576E+00  0.39045805870E+00  0.15767827783E+01  0.16361400902E+01  0.51100000000E-03 0.  1.
    9000002    1    1    2    0    0  0.10454182863E-01 -0.95587640407E-01  0.94927820451E-01  0.94768221363E+00  0.93800000000E+00 0. -1.
         22    1    1    2    0    0  0.18512881290E+00 -0.29487041830E+00  0.23282893686E+01  0.23541776961E+01  0.00000000000E+00 0. -1.
</event>
<event>
 5    1  0.2111786E+001  0.1485388E+01  0.7818608E-02  0.3487997E+00
         11   -1    0    0    0    0  0.00000000000E+00  0.00000000000E+00  0.39999999674E+01  0.40000000000E+01  0.51100000000E-03 0. -1.
    9000002   -1    0    0    0    0 -0.00000000000E+00 -0.00000000000E+00  0.00000000000E+00  0.93800000000E+00  0.93800000000E+00 0. -1.
         11    1    1    2    0    0 -0.35142682780E+00 -0.40461253890E+00  0.86060954756E+00  0.10138348862E+01  0.51100000000E-03 0. -1.
    9000002    1    1    2    0    0  0.19586348243E+00  0.75351515973E+00  0.60452668825E+00  0.13606778151E+01  0.93800000000E+00 0. -1.
         22    1    1    2    0    0  0.15556334538E+00 -0.34890262083E+00  0.25348637316E+01  0.25634872987E+01  0.00000000000E+00 0. -1.
</event>
<event>
 5    1  0.2111786E+001  0.1570229E+01  0.7818608E-02  0.3386324E+00
         11   -1    0    0    0    0  0.00000000000E+00  0.00000000000E+00  0.39999999674E+01  0.40000000000E+01  0.51100000000E-03 0.  1.
    9000002   -1    0    0    0    0 -0.00000000000E+00 -0.00000000000E+00  0.00000000000E+00  0.93800000000E+00  0.93800000000E+00 0.  1.
         11    1    1    2    0    0  0.12362022869E+00 -0.93602782042E-01  0.14860816819E+01  0.14941494129E+01  0.51100000000E-03 0.  1.
    9000002    1    1    2    0    0  0.19779579308E+00  0.30951719030E+00  0.11501790450E+00  0.10139019604E+01  0.93800000000E+00 0.  1.
         22    1    1    2    0    0 -0.32141602177E+00 -0.21591440826E+00  0.23989003810E+01  0.24299486268E+01  0.00000000000E+00 0.  1.
</event>
<event>
 5    1  0.2111786E+001  0.1530862E+01  0.7818608E-02  0.3432001E+00
         11   -1    0    0    0    0  0.00000000000E+00  0.00000000000E+00  0.39999999674E+01  0.40000000000E+01  0.51100000000E-03 0. -1.
    9000002   -1    0    0    0    0 -0.00000000000E+00 -0.00000000000E+00  0.00000000000E+00  0.93800000000E+00  0.93800000000E+00 0.  1.
         11    1    1    2    0    0 -0.30528575393E+00 -0.27401260149E+00  0.28994433534E+01  0.29283193675E+01  0.51100000000E-03 0. -1.
    9000002    1    1    2    0    0  0.16688369288E+00  0.87302537171E-01  0.76715922744E-01  0.95979228625E+00  0.93800000000E+00 0.  1.
         22    1    1    2    0    0  0.13840206105E+00  0.18671006432E+00  0.10238406912E+01  0.10498883463E+01  0.00000000000E+00 0.  1.
</event>
<event>
 5    1  0.2111786E+001  0.1503932E+01  0.7818608E-02  0.3464722E+00
         11   -1    0    0    0    0  0.00000000000E+00  0.00000000000E+00  0.39999999674E+01  0.40000000000E+01  0.51100000000E-03 0. -1.
    9000002   -1    0    0    0    0 -0.00000000000E+00 -0.00000000000E+00  0.00000000000E+00  0.93800000000E+00  0.93800000000E+00 0.  1.
         11    1    1    2    0    0 -0.14559116080E+00 -0.34797414304E+00  0.10004967265E+01  0.10692412035E+01  0.51100000000E-03 0. -1.
    9000002    1    1    2    0    0 -0.36808792992E-02  0.20788941506E+00  0.10439614299E+00  0.96642336087E+00  0.93800000000E+00 0.  1.
         22    1    1    2    0    0  0.14927204010E+00  0.14008472797E+00  0.28951070979E+01  0.29023354357E+01  0.00000000000E+00 0. -1.
</event>
<event>
 5    1  0.2111786E+001  0.1547748E+01  0.7818608E-02  0.3412105E+00
         11   -1    0    0    0    0  0.00000000000E+00  0.00000000000E+00  0.39999999674E+01  0.40000000000E+01  0.51100000000E-03 0.  1.
    9000002   -1    0    0    0    0 -0.00000000000E+00 -0.00000000000E+00  0.00000000000E+00  0.93800000000E+00  0.93800000000E+00 0. -1.
         11    1    1    2    0    0  0.15683067415E+00 -0.20545947470E+00  0.25447321203E+01  0.25578254986E+01  0.51100000000E-03 0.  1.
    9000002    1    1    2    0    0  0.52578349758E-01  0.37722434383E-01  0.41470812620E-01  0.94114360924E+00  0.93800000000E+00 0. -1.
         22    1    1    2    0    0 -0.20940902391E+00  0.16773704031E+00  0.14137970345E+01  0.14390308922E+01  0.00000000000E+00 0.  1.
</event>
<event>
 5    1  0.2111786E+001  0.1501582E+01  0.7818608E-02  0.3467637E+00
         11   -1    0    0    0    0  0.00000000000E+00  0.00000000000E+00  0.39999999674E+01  0.40000000000E+01  0.51100000000E-03 0. -1.
    9000002   -1    0    0    0    0 -0.00000000000E+00 -0.00000000000E+00  0.00000000000E+00  0.93800000000E+00  0.93800000000E+00 0.  1.
         11    1    1    2    0    0  0.32480782402E+00  0.19621817161E+00  0.13730010788E+01  0.14244767169E+01  0.51100000000E-03 0. -1.
    9000002    1    1    2    0    0 -0.49735104052E-01 -0.22886092481E-01  0.76852243785E-01  0.94273412009E+00  0.93800000000E+00 0.  1.
         22    1    1    2    0    0 -0.27507271997E+00 -0.17333207913E+00  0.25501466447E+01  0.25707891630E+01  0.00000000000E+00 0.  1.
</event>
<event>
 5    1  0.2111786E+001  0.1575728E+01  0.7818608E-02  0.3380137E+00
         11   -1    0    0    0    0  0.00000000000E+00  0.00000000000E+00  0.39999999674E+01  0.40000000000E+01  0.51100000000E-03 0.  1.
    9000002   -1    0    0    0    0 -0.00000000000E+00 -0.00000000000E+00  0.00000000000E+00  0.93800000000E+00  0.93800000000E+00 0. -1.
         11    1    1    2    0    0 -0.52162626157E-01  0.12375045886E+00  0.19452033125E+01  0.19498336605E+01  0.51100000000E-03 0.  1.
    9000002    1    1    2    0    0 -0.38230486981E-01  0.99015775525E-01  0.25139273026E-01  0.94432074900E+00  0.93800000000E+00 0. -1.
         22    1    1    2    0    0  0.90393113138E-01 -0.22276623438E+00  0.20296573818E+01  0.20438455905E+01  0.00000000000E+00 0. -1.
</event>
<event>
 5    1  0.2111786E+001  0.1558074E+01  0.7818608E-02  0.3400164E+00
         11   -1    0    0    0    0  0.00000000000E+00  0.00000000000E+00  0.39999999674E+01  0.40000000000E+01  0.51100000000E-03 0. -1.
    9000002   -1    0    0    0    0 -0.00000000000E+00 -0.00000000000E+00  0.00000000000E+00  0.93800000000E+00  0.93800000000E+00 0.  1.
         11    1    1    2    0    0  0.18997864603E+00 -0.20602129094E+00  0.88588645242E+00  0.92915645936E+00  0.51100000000E-03 0. -1.
    9000002    1    1    2    0    0 -0.25489163741E-01  0.45882937952E+00  0.18078263544E+00  0.10600473849E+01  0.93800000000E+00 0.  1.
         22    1    1    2    0    0 -0.16448948229E+00 -0.25280808858E+00  0.29333308795E+01  0.29487961557E+01  0.00000000000E+00 0. -1.
</event>
<event>
 5    1  0.2111786E+001  0.1602442E+01  0.7818608E-02  0.3350718E+00
         11   -1    0    0    0    0  0.00000000000E+00  0.00000000000E+00  0.39999999674E+01  0.40000000000E+01  0.51100000000E-03 0.  1.
    9000002   -1    0    0    0    0 -0.00000000000E+00 -0.00000000000E+00  0.00000000000E+00  0.93800000000E+00  0.93800000000E+00 0.  1.
         11    1    1    2    0    0 -0.30059045886E+00 -0.29131259435E+00  0.33988935725E+00  0.53920560817E+00  0.51100000000E-03 0.  1.
    9000002    1    1    2    0    0 -0.13171945256E+00  0.61689295720E-01  0.28885819372E+00  0.99218881241E+00  0.93800000000E+00 0.  1.
         22    1    1    2    0    0  0.43230991142E+00  0.22962329863E+00  0.33712524164E+01  0.34066055794E+01  0.00000000000E+00 0.  1.
</event>
<event>
 5    1  0.2111786E+001  0.1594412E+01  0.7818608E-02  0.3359451E+00
         11   -1    0    0    0    0  0.00000000000E+00  0.00000000000E+00  0.39999999674E+01  0.40000000000E+01  0.51100000000E-03 0. -1.
    9000002   -1    0    0    0    0 -0.00000000000E+00 -0.00000000000E+00  0.00000000000E+00  0.93800000000E+00  0.93800000000E+00 0.  1.
         11    1    1    2    0    0  0.94649133284E-01  0.14319131275E+00  0.64908148589E+00  0.67139351124E+00  0.51100000000E-03 0. -1.
    9000002    1    1    2    0    0 -0.33232394082E+00 -0.50065253140E+00  0.25723980679E+00  0.11432884487E+01  0.93800000000E+00 0.  1.
         22    1    1    2    0    0  0.23767480753E+00  0.35746121865E+00  0.30936786747E+01  0.31233180400E+01  0.00000000000E+00 0. -1.
</event>
<event>
 5    1  0.2111786E+001  0.1512696E+01  0.7818608E-02  0.3453936E+00
         11   -1    0    0    0    0  0.00000000000E+00  0.00000000000E+00  0.39999999674E+01  0.40000000000E+01  0.51100000000E-03 0. -1.
    9000002   -1    0    0    0    0 -0.00000000000E+00 -0.00000000000E+00  0.00000000000E+00  0.93800000000E+00  0.93800000000E+00 0.  1.
         11    1    1    2    0    0  0.59585371093E+00  0.29934041178E+00  0.23874626860E+01  0.24788353445E+01  0.51100000000E-03 0. -1.
    9000002    1    1    2    0    0 -0.79302186825E+00  0.34701678910E-01  0.58517487675E+00  0.13610148884E+01  0.93800000000E+00 0.  1.
         22    1    1    2    0    0  0.19716815732E+00 -0.33404209069E+00  0.10273624046E+01  0.10981497672E+01  0.00000000000E+00 0. -1.
</event>
<event>
 5    1  0.2111786E+001  0.1508824E+01  0.7818608E-02  0.3458684E+00
         11   -1    0    0    0    0  0.00000000000E+00  0.00000000000E+00  0.39999999674E+01  0.40000000000E+01  0.51100000000E-03 0.  1.
    9000002   -1    0    0    0    0 -0.00000000000E+00 -0.00000000000E+00  0.00000000000E+00  0.93800000000E+00  0.93800000000E+00 0. -1.
         11    1    1    2    0    0  0.27981485283E+00  0.24336473600E+00  0.56305694382E+00  0.67420777932E+00  0.51100000000E-03 0.  1.
    9000002    1    1    2    0    0 -0.57785492726E+00 -0.25563917318E+00  0.38115317183E+00  0.11934778776E+01  0.93800000000E+00 0. -1.
         22    1    1    2    0    0  0.29804007443E+00  0.12274437174E-01  0.30557898517E+01  0.30703143431E+01  0.00000000000E+00 0.  1.
</event>
<event>
 5    1  0.2165225E+001  0.1543407E+01  0.7818608E-02  0.3417176E+00
         11   -1    0    0    0    0  0.00000000000E+00  0.00000000000E+00  0.39999999674E+01  0.40000000000E+01  0.51100000000E-03 0.  1.
    9000002   -1    0    0    0    0 -0.00000000000E+00 -0.00000000000E+00  0.00000000000E+00  0.93800000000E+00  0.93800000000E+00 0. -1.
         11    1    1    2    0    0  0.10800418333E+00 -0.52562421456E-01  0.18071380758E+00  0.21699182735E+00  0.51100000000E-03 0.  1.
    9000002    1    1    2    0    0  0.67681781534E-01 -0.59251045686E-01  0.47523549634E-01  0.94350092620E+00  0.93800000000E+00 0. -1.
         22    1    1    2    0    0 -0.17568596486E+00  0.11181346714E+00  0.37717626102E+01  0.37775072465E+01  0.00000000000E+00 0.  1.
</event>
<event>
 5    1  0.2111786E+001  0.1590225E+01  0.7818608E-02  0.3364042E+00
         11   -1    0    0    0    0  0.00000000000E+00  0.00000000000E+00  0.39999999674E+01  0.40000000000E+01  0.51100000000E-03 0.  1.
    9000002   -1    0    0    0    0 -0.00000000000E+00 -0.00000000000E+00  0.00000000000E+00  0.93800000000E+00  0.93800000000E+00 0.  1.
         11    1    1    2    0    0 -0.40455689635E-01 -0.19298234723E-01  0.11545334148E+01  0.11554032853E+01  0.51100000000E-03 0.  1.
    9000002    1    1    2    0    0 -0.28483619286E-01 -0.25768234093E+00  0.51968586497E-01  0.97455437990E+00  0.93800000000E+00 0.  1.
         22    1    1    2    0    0  0.68939308921E-01  0.27698057565E+00  0.27934979661E+01  0.28080423348E+01  0.00000000000E+00 0.  1.
</event>
<event>
 5    1  0.2111786E+001  0.1552544E+01  0.7818608E-02  0.3406537E+00
         11   -1    0    0    0    0  0.00000000000E+00  0.00000000000E+00  0.39999999674E+01  0.40000000000E+01  0.51100000000E-03 0. -1.
    9000002   -1    0    0    0    0 -0.00000000000E+00 -0.00000000000E+00  0.00000000000E+00  0.93800000000E+00  0.93800000000E+00 0.  1.
         11    1    1    2    0    0  0.32468796842E-01  0.29525733116E+00  0.18491760126E+01  0.18728810163E+01  0.51100000000E-03 0. -1.
    9000002    1    1    2    0    0 -0.13588109525E+00 -0.77627291350E-01  0.51867697999E-01  0.95237803760E+00  0.93800000000E+00 0.  1.
         22    1    1    2    0    0  0.10341229841E+00 -0.21763003981E+00  0.20989562567E+01  0.21127409461E+01  0.00000000000E+00 0. -1.
</event>
<event>
 5    1  0.2111786E+001  0.1558205E+01  0.7818608E-02  0.3400014E+00
         11   -1    0    0    0    0  0.00000000000E+00  0.00000000000E+00  0.39999999674E+01  0.40000000000E+01  0.51100000000E-03 0. -1.
    9000002   -1    0    0    0    0 -0.00000000000E+00 -0.00000000000E+00  0.00000000000E+00  0.93800000000E+00  0.93800000000E+00 0. -1.
         11    1    1    2    0    0  0.26643884282E+00  0.65114952032E-01  0.26252711762E+01  0.26395603088E+01  0.51100000000E-03 0. -1.
    9000002    1    1    2    0    0 -0.15444515410E+00  0.14761553087E+00  0.62152350113E-01  0.96402830104E+00  0.93800000000E+00 0. -1.
         22    1    1    2    0    0 -0.11199368872E+00 -0.21273048291E+00  0.13125764410E+01  0.13344113902E+01  0.00000000000E+00 0. -1.
</event>
<event>
 5    1  0.2111786E+001  0.1595967E+01  0.7818608E-02  0.3357753E+00
         11   -1    0    0    0    0  0.00000000000E+00  0.00000000000E+00  0.39999999674E+01  0.40000000000E+01  0.51100000000E-03 0.  1.
    9000002   -1    0    0    0    0 -0.00000000000E+00 -0.00000000000E+00  0.00000000000E+00  0.93800000000E+00  0.93800000000E+00 0.  1.
         11    1    1    2    0    0 -0.19073208856E-01 -0.82814785513E-01  0.62664723396E+00  0.63238365961E+00  0.51100000000E-03 0.  1.
    9000002    1    1    2    0    0 -0.12228437439E+00  0.28472479630E+00  0.67042047204E-01  0.99013146296E+00  0.93800000000E+00 0.  1.
         22    1    1    2    0    0  0.14135758324E+00 -0.20191001079E+00  0.33063106862E+01  0.33154848774E+01  0.00000000000E+00 0.  1.
</event>
<event>
 5    1  0.2111786E+001  0.1597640E+01  0.7818608E-02  0.3355929E+00
         11   -1    0    0    0    0  0.00000000000E+00  0.00000000000E+00  0.39999999674E+01  0.40000000000E+01  0.51100000000E-03 0. -1.
    9000002   -1    0    0    0    0 -0.00000000000E+00 -0.00000000000E+00  0.00000000000E+00  0.93800000000E+00  0.93800000000E+00 0.  1.
         11    1    1    2    0    0  0.24029383033E+00 -0.10779009482E+00  0.20968478274E+01  0.21133222428E+01  0.51100000000E-03 0. -1.
    9000002    1    1    2    0    0 -0.47250881798E+00  0.10384044286E+00  0.16160330567E+00  0.10677111262E+01  0.93800000000E+00 0.  1.
         22    1    1    2    0    0  0.23221498765E+00  0.39496519618E-02  0.17415488343E+01  0.17569666310E+01  0.00000000000E+00 0. -1.
</event>
<event>
 5    1  0.2111786E+001  0.1429850E+01  0.7818608E-02  0.3561631E+00
         11   -1    0    0    0    0  0.00000000000E+00  0.00000000000E+00  0.39999999674E+01  0.40000000000E+01  0.51100000000E-03 0. -1.
    9000002   -1    0    0    0    0 -0.00000000000E+00 -0.00000000000E+00  0.00000000000E+00  0.93800000000E+00  0.93800000000E+00 0.  1.
         11    1    1    2    0    0  0.64271061755E-01  0.73855994993E+00  0.20885155107E+01  0.22161901698E+01  0.51100000000E-03 0. -1.
    9000002    1    1    2    0    0 -0.36676315975E+00 -0.46655900703E+00  0.43810525727E+00  0.11933032887E+01  0.93800000000E+00 0.  1.
         22    1    1    2    0    0  0.30249209799E+00 -0.27200094290E+00  0.14733791994E+01  0.15285065415E+01  0.00000000000E+00 0.  1.
</event>
<event>
 5    1  0.2111786E+001  0.1566847E+01  0.7818608E-02  0.3390151E+00
         11   -1    0    0    0    0  0.00000000000E+00  0.00000000000E+00  0.39999999674E+01  0.40000000000E+01  0.51100000000E-03 0.  1.
    9000002   -1    0    0    0    0 -0.00000000000E+00 -0.00000000000E+00  0.00000000000E+00  0.93800000000E+00  0.93800000000E+00 0.  1.
         11    1    1    2    0    0 -0.12891345688E+00 -0.11583692115E+00  0.26245364108E+01  0.26302525552E+01  0.51100000000E-03 0.  1.
    9000002    1    1    2    0    0 -0.13515620966E-01 -0.57881120708E-01  0.26549843885E-01  0.94025623654E+00  0.93800000000E+00 0.  1.
         22    1    1    2    0    0  0.14242907784E+00  0.17371804186E+00  0.13489137127E+01  0.13674912082E+01  0.00000000000E+00 0.  1.
</event>
<event>
 5    1  0.2111786E+001  0.1585090E+01  0.7818608E-02  0.3369707E+00
         11   -1    0    0    0    0  0.00000000000E+00  0.00000000000E+00  0.39999999674E+01  0.40000000000E+01  0.51100000000E-03 0. -1.
    9000002   -1    0    0    0    0 -0.00000000000E+00 -0.00000000000E+00  0.00000000000E+00  0.93800000000E+00  0.93800000000E+00 0. -1.
         11    1    1    2    0    0 -0.39405730171E-01  0.85953218207E-01  0.13460771900E+01  0.13493942455E+01  0.51100000000E-03 0. -1.
    9000002    1    1    2    0    0 -0.65683439587E-01  0.10930561115E+00  0.21513008475E-01  0.94687319130E+00  0.93800000000E+00 0. -1.
         22    1    1    2    0    0  0.10508916976E+00 -0.19525882936E+00  0.26324097689E+01  0.26417325632E+01  0.00000000000E+00 0. -1.
</event>
<event>
 5    1  0.2111786E+001  0.1541022E+01  0.7818608E-02  0.3419974E+00
         11   -1    0    0    0    0  0.00000000000E+00  0.00000000000E+00  0.39999999674E+01  0.40000000000E+01  0.51100000000E-03 0.  1.
    9000002   -1    0    0    0    0 -0.00000000000E+00 -0.00000000000E+00  0.00000000000E+00  0.93800000000E+00  0.93800000000E+00 0. -1.
         11    1    1    2    0    0 -0.42966829838E+00 -0.31851676167E+00  0.11370686096E+01  0.12565799052E+01  0.51100000000E-03 0.  1.
    9000002    1    1    2    0    0  0.65461089467E+00  0.41282904745E+00  0.51459866119E+00  0.13204540991E+01  0.93800000000E+00 0. -1.
         22    1    1    2    0    0 -0.22494259629E+00 -0.94312285777E-01  0.23483326965E+01  0.23609659956E+01  0.00000000000E+00 0. -1.
</event>
<event>
 5    1  0.2111786E+001  0.1572448E+01  0.7818608E-02  0.3383821E+00
         11   -1    0    0    0    0  0.00000000000E+00  0.00000000000E+00  0.39999999674E+01  0.40000000000E+01  0.51100000000E-03 0.  1.
    9000002   -1    0    0    0    0 -0.00000000000E+00 -0.00000000000E+00  0.00000000000E+00  0.93800000000E+00  0.93800000000E+00 0.  1.
         11    1    1    2    0    0 -0.66100607524E-01 -0.12587311447E+00  0.26469873799E+01  0.26508028561E+01  0.51100000000E-03 0.  1.
    9000002    1    1    2    0    0 -0.92673075831E-01 -0.17059826567E-01  0.25980478503E-01  0.94307917055E+00  0.93800000000E+00 0.  1.
         22    1    1    2    0    0  0.15877368335E+00  0.14293294104E+00  0.13270321089E+01  0.13441179733E+01  0.00000000000E+00 0.  1.
</event>
<event>
 5    1  0.2111786E+001  0.1556258E+01  0.7818608E-02  0.3402252E+00
         11   -1    0    0    0    0  0.00000000000E+00  0.00000000000E+00  0.39999999674E+01  0.40000000000E+01  0.51100000000E-03 0.  1.
    9000002   -1    0    0    0    0 -0.00000000000E+00 -0.00000000000E+00  0.00000000000E+00  0.93800000000E+00  0.93800000000E+00 0.  1.
         11    1    1    2    0    0  0.18888812083E+00 -0.19846243130E+00  0.20328244052E+01  0.20512048612E+01  0.51100000000E-03 0.  1.
    9000002    1    1    2    0    0 -0.93843293281E-01 -0.17405507065E-01  0.38372248099E-01  0.94362383649E+00  0.93800000000E+00 0.  1.
         22    1    1    2    0    0 -0.95044827545E-01  0.21586793836E+00  0.19288033140E+01  0.19431713023E+01  0.00000000000E+00 0.  1.
</event>
<event>
 5    1  0.2111786E+001  0.1467246E+01  0.7818608E-02  0.3511383E+00
         11   -1    0    0    0    0  0.00000000000E+00  0.00000000000E+00  0.39999999674E+01  0.40000000000E+01  0.51100000000E-03 0. -1.
    9000002   -1    0    0    0    0 -0.00000000000E+00 -0.00000000000E+00  0.00000000000E+00  0.93800000000E+00  0.93800000000E+00 0. -1.
         11    1    1    2    0    0  0.27585174284E+00  0.36860600662E-01  0.20066242227E+00  0.34310137968E+00  0.51100000000E-03 0. -1.
    9000002    1    1    2    0    0 -0.62370205512E+00 -0.16779134128E+00  0.44926571213E+00  0.12242719746E+01  0.93800000000E+00 0. -1.
         22    1    1    2    0    0  0.34785031228E+00  0.13093074062E+00  0.33500718330E+01  0.33706266457E+01  0.00000000000E+00 0. -1.
</event>
<event>
 5    1  0.2111786E+001  0.1471689E+01  0.7818608E-02  0.3505598E+00
         11   -1    0    0    0    0  0.00000000000E+00  0.00000000000E+00  0.39999999674E+01  0.40000000000E+01  0.51100000000E-03 0. -1.
    9000002   -1    0    0    0    0 -0.00000000000E+00 -0.00000000000E+00  0.00000000000E+00  0.93800000000E+00  0.93800000000E+00 0.  1.
         11    1    1    2    0    0  0.36816298737E+00  0.27910473274E+00  0.24436057266E+01  0.24868961871E+01  0.51100000000E-03 0. -1.
    9000002    1    1    2    0    0 -0.25592622849E+00  0.12775599632E+00  0.16162354509E+00  0.99387423719E+00  0.93800000000E+00 0.  1.
         22    1    1    2    0    0 -0.11223675887E+00 -0.40686072906E+00  0.13947706957E+01  0.14572295757E+01  0.00000000000E+00 0.  1.
</event>
<event>
 5    1  0.2111786E+001  0.1539715E+01  0.7818608E-02  0.3421512E+00
         11   -1    0    0    0    0  0.00000000000E+00  0.00000000000E+00  0.39999999674E+01  0.40000000000E+01  0.51100000000E-03 0.  1.
    9000002   -1    0    0    0    0 -0.00000000000E+00 -0.00000000000E+00  0.00000000000E+00  0.93800000000E+00  0.93800000000E+00 0. -1.
         11    1    1    2    0    0  0.25394104336E+00 -0.86461996673E-01  0.16386894461E+01  0.16605014580E+01  0.51100000000E-03 0.  1.
    9000002    1    1    2    0    0  0.55832055715E-01 -0.47860626798E-03  0.46898669079E-01  0.94082991697E+00  0.93800000000E+00 0. -1.
         22    1    1    2    0    0 -0.30977309907E+00  0.86940602941E-01  0.23144118522E+01  0.23366686250E+01  0.00000000000E+00 0.  1.
</event>
<event>
 5    1  0.2111786E+001  0.1544388E+01  0.7818608E-02  0.3416026E+00
         11   -1    0    0    0    0  0.00000000000E+00  0.00000000000E+00  0.39999999674E+01  0.40000000000E+01  0.51100000000E-03 0.  1.
    9000002   -1    0    0    0    0 -0.00000000000E+00 -0.00000000000E+00  0.00000000000E+00  0.93800000000E+00  0.93800000000E+00 0. -1.
         11    1    1    2    0    0 -0.43378506990E+00  0.86897957428E-01  0.14910797896E+01  0.15553263137E+01  0.51100000000E-03 0.  1.
    9000002    1    1    2    0    0  0.41892189199E+00 -0.43538446799E+00  0.31243998006E+00  0.11586707590E+01  0.93800000000E+00 0. -1.
         22    1    1    2    0    0  0.14863177912E-01  0.34848651056E+00  0.21964801977E+01  0.22240029273E+01  0.00000000000E+00 0.  1.
</event>
<event>
 5    1  0.2111786E+001  0.1536911E+01  0.7818608E-02  0.3424820E+00
         11   -1    0    0    0    0  0.00000000000E+00  0.00000000000E+00  0.39999999674E+01  0.40000000000E+01  0.51100000000E-03 0. -1.
    9000002   -1    0    0    0    0 -0.00000000000E+00 -0.00000000000E+00  0.00000000000E+00  0.93800000000E+00  0.93800000000E+00 0. -1.
         11    1    1    2    0    0 -0.52464803459E-01 -0.45262971745E+00  0.26465997446E+01  0.26855384350E+01  0.51100000000E-03 0. -1.
    9000002    1    1    2    0    0 -0.45202167678E-01  0.27059040453E+00  0.10027965282E+00  0.98242679715E+00  0.93800000000E+00 0. -1.
         22    1    1    2    0    0  0.97666971137E-01  0.18203931292E+00  0.12531205699E+01  0.12700347678E+01  0.00000000000E+00 0. -1.
</event>
<event>
 5    1  0.2111786E+001  0.1549718E+01  0.7818608E-02  0.3409813E+00
         11   -1    0    0    0    0  0.00000000000E+00  0.00000000000E+00  0.39999999674E+01  0.40000000000E+01  0.51100000000E-03 0. -1.
    9000002   -1    0    0    0    0 -0.00000000000E+00 -0.00000000000E+00  0.00000000000E+00  0.93800000000E+00  0.93800000000E+00 0.  1.
         11    1    1    2    0    0  0.27829086009E+00  0.26739762729E-01  0.15694202443E+01  0.15941270282E+01  0.51100000000E-03 0. -1.
    9000002    1    1    2    0    0 -0.37887638839E-01 -0.60020522799E-01  0.40552805730E-01  0.94155534430E+00  0.93800000000E+00 0.  1.
         22    1    1    2    0    0 -0.24040322126E+00  0.33280760070E-01  0.23900269173E+01  0.24023176275E+01  0.00000000000E+00 0. -1.
</event>
<event>
 5    1  0.2111786E+001  0.1526529E+01  0.7818608E-02  0.3437181E+00
         11   -1    0    0    0    0  0.00000000000E+00  0.00000000000E+00  0.39999999674E+01  0.40000000000E+01  0.51100000000E-03 0.  1.
    9000002   -1    0    0    0    0 -0.00000000000E+00 -0.00000000000E+00  0.00000000000E+00  0.93800000000E+00  0.93800000000E+00 0. -1.
         11    1    1    2    0    0  0.23362210341E+00  0.28221883050E+00  0.14362789319E+01  0.14822699439E+01  0.51100000000E-03 0.  1.
    9000002    1    1    2    0    0 -0.58322437532E-01 -0.13744902156E+00  0.70779323240E-01  0.95244288692E+00  0.93800000000E+00 0. -1.
         22    1    1    2    0    0 -0.17529966587E+00 -0.14476980894E+00  0.24929417123E+01  0.25032871691E+01  0.00000000000E+00 0.  1.
</event>
<event>
 5    1  0.2111786E+001  0.1556969E+01  0.7818608E-02  0.3401435E+00
         11   -1    0    0    0    0  0.00000000000E+00  0.00000000000E+00  0.39999999674E+01  0.40000000000E+01  0.51100000000E-03 0.  1.
    9000002   -1    0    0    0    0 -0.00000000000E+00 -0.00000000000E+00  0.00000000000E+00  0.93800000000E+00  0.93800000000E+00 0. -1.
         11    1    1    2    0    0 -0.97105119024E-01 -0.23641347376E+00  0.22945926478E+01  0.23087824530E+01  0.51100000000E-03 0.  1.
    9000002    1    1    2    0    0  0.55443465607E-01 -0.73645372282E-03  0.33681781646E-01  0.94024091735E+00  0.93800000000E+00 0. -1.
         22    1    1    2    0    0  0.41661653417E-01  0.23714992748E+00  0.16717255379E+01  0.16889766297E+01  0.00000000000E+00 0.  1.
</event>
<event>
 5    1  0.2111786E+001  0.1530621E+01  0.7818608E-02  0.3432288E+00
         11   -1    0    0    0    0  0.00000000000E+00  0.00000000000E+00  0.39999999674E+01  0.40000000000E+01  0.51100000000E-03 0. -1.
    9000002   -1    0    0    0    0 -0.00000000000E+00 -0.00000000000E+00  0.00000000000E+00  0.93800000000E+00  0.93800000000E+00 0. -1.
         11    1    1    2    0    0  0.30340287672E+00 -0.30864760360E+00  0.28675027171E+01  0.28999808176E+01  0.51100000000E-03 0. -1.
    9000002    1    1    2    0    0 -0.27453332666E+00  0.66360241157E-01  0.10877575294E+00  0.98562081628E+00  0.93800000000E+00 0. -1.
         22    1    1    2    0    0 -0.28869550055E-01  0.24228736245E+00  0.10237214973E+01  0.10523983661E+01  0.00000000000E+00 0.  1.
</event>
<event>
 5    1  0.2111786E+001  0.1550466E+01  0.7818608E-02  0.3408945E+00
         11   -1    0    0    0    0  0.00000000000E+00  0.00000000000E+00  0.39999999674E+01  0.40000000000E+01  0.51100000000E-03 0.  1.
    9000002   -1    0    0    0    0 -0.00000000000E+00 -0.00000000000E+00  0.00000000000E+00  0.93800000000E+00  0.93800000000E+00 0. -1.
         11    1    1    2    0    0 -0.18863955422E-01  0.27284259913E+00  0.23694276776E+01  0.23851596829E+01  0.51100000000E-03 0.  1.
    9000002    1    1    2    0    0  0.78399852821E-01 -0.21036216827E-01  0.41054856902E-01  0.94240042477E+00  0.93800000000E+00 0. -1.
         22    1    1    2    0    0 -0.59535897399E-01 -0.25180638230E+00  0.15895174329E+01  0.16104398923E+01  0.00000000000E+00 0.  1.
</event>
<event>
 5    1  0.2111786E+001  0.1501629E+01  0.7818608E-02  0.3467579E+00
         11   -1    0    0    0    0  0.00000000000E+00  0.00000000000E+00  0.39999999674E+01  0.40000000000E+01  0.51100000000E-03 0.  1.
    9000002   -1    0    0    0    0 -0.00000000000E+00 -0.00000000000E+00  0.00000000000E+00  0.93800000000E+00  0.93800000000E+00 0.  1.
         11    1    1    2    0    0 -0.29580011476E+00  0.84801492293E-01  0.62507826535E+00  0.69671522153E+00  0.51100000000E-03 0.  1.
    9000002    1    1    2    0    0  0.11571005831E+00 -0.17686043462E+00  0.10738414692E+00  0.96749355860E+00  0.93800000000E+00 0.  1.
         22    1    1    2    0    0  0.18009005645E+00  0.92058942327E-01  0.32675375551E+01  0.32737912199E+01  0.00000000000E+00 0.  1.
</event>
<event>
 5    1  0.2111786E+001  0.1533918E+01  0.7818608E-02  0.3428366E+00
         11   -1    0    0    0    0  0.00000000000E+00  0.00000000000E+00  0.39999999674E+01  0.40000000000E+01  0.51100000000E-03 0. -1.
    9000002   -1    0    0    0    0 -0.00000000000E+00 -0.00000000000E+00  0.00000000000E+00  0.93800000000E+00  0.93800000000E+00 0. -1.
         11    1    1    2    0    0 -0.18175820303E+00 -0.19275834999E+00  0.80165637448E+00  0.84430150405E+00  0.51100000000E-03 0. -1.
    9000002    1    1    2    0    0  0.17160172033E+00 -0.51853691252E-01  0.71895001444E-01  0.95767888509E+00  0.93800000000E+00 0. -1.
         22    1    1    2    0    0  0.10156482708E-01  0.24461204124E+00  0.31264485914E+01  0.31360196109E+01  0.00000000000E+00 0. -1.
</event>
<event>
 5    1  0.2111786E+001  0.1585004E+01  0.7818608E-02  0.3369803E+00
         11   -1    0    0    0    0  0.00000000000E+00  0.00000000000E+00  0.39999999674E+01  0.40000000000E+01  0.51100000000E-03 0.  1.
    9000002   -1    0    0    0    0 -0.00000000000E+00 -0.00000000000E+00  0.00000000000E+00  0.93800000000E+00  0.93800000000E+00 0. -1.
         11    1    1    2    0    0 -0.30125830339E-01  0.18294335060E-01  0.19260069644E+01  0.19263294984E+01  0.51100000000E-03 0.  1.
    9000002    1    1    2    0    0 -0.37894189968E-01  0.24462899072E+00  0.51986161406E-01  0.97150701166E+00  0.93800000000E+00 0. -1.
         22    1    1    2    0    0  0.68020020307E-01 -0.26292332578E+00  0.20220068416E+01  0.20401634900E+01  0.00000000000E+00 0.  1.
</event>
<event>
 5    1  0.2111786E+001  0.1592691E+01  0.7818608E-02  0.3361335E+00
         11   -1    0    0    0    0  0.00000000000E+00  0.00000000000E+00  0.39999999674E+01  0.40000000000E+01  0.51100000000E-03 0. -1.
    9000002   -1    0    0    0    0 -0.00000000000E+00 -0.00000000000E+00  0.00000000000E+00  0.93800000000E+00  0.93800000000E+00 0. -1.
         11    1    1    2    0    0 -0.12615306718E+00  0.86024726581E-01  0.94817177367E+00  0.96038785053E+00  0.51100000000E-03 0. -1.
    9000002    1    1    2    0    0  0.33670408598E+00 -0.49432594473E-01  0.83186034035E-01  0.10012877404E+01  0.93800000000E+00 0. -1.
         22    1    1    2    0    0 -0.21055101880E+00 -0.36592132108E-01  0.29686421597E+01  0.29763244090E+01  0.00000000000E+00 0. -1.
</event>
<event>
 5    1  0.2111786E+001  0.1548384E+01  0.7818608E-02  0.3411364E+00
         11   -1    0    0    0    0  0.00000000000E+00  0.00000000000E+00  0.39999999674E+01  0.40000000000E+01  0.51100000000E-03 0.  1.
    9000002   -1    0    0    0    0 -0.00000000000E+00 -0.00000000000E+00  0.00000000000E+00  0.93800000000E+00  0.93800000000E+00 0. -1.
         11    1    1    2    0    0 -0.51581802020E-01 -0.31750621628E+00  0.28958982170E+01  0.29137085688E+01  0.51100000000E-03 0.  1.
    9000002    1    1    2    0    0  0.37445043785E-01  0.10543911793E+00  0.46767095332E-01  0.94580690424E+00  0.93800000000E+00 0. -1.
         22    1    1    2    0    0  0.14136758235E-01  0.21206709835E+00  0.10573346550E+01  0.10784845269E+01  0.00000000000E+00 0.  1.
</event>
<event>
 5    1  0.2111786E+001  0.1593029E+01  0.7818608E-02  0.3360964E+00
         11   -1    0    0    0    0  0.00000000000E+00  0.00000000000E+00  0.39999999674E+01  0.40000000000E+01  0.51100000000E-03 0. -1.
    9000002   -1    0    0    0    0 -0.00000000000E+00 -0.00000000000E+00  0.00000000000E+00  0.93800000000E+00  0.93800000000E+00 0.  1.
         11    1    1    2    0    0 -0.16260554163E+00  0.17208294959E+00  0.15165556401E+01  0.15349248758E+01  0.51100000000E-03 0. -1.
    9000002    1    1    2    0    0  0.17395113298E+00 -0.39400279195E+00  0.13131559508E+00  0.10404734414E+01  0.93800000000E+00 0.  1.
         22    1    1    2    0    0 -0.11345591351E-01  0.22191984236E+00  0.23521287322E+01  0.23626016829E+01  0.00000000000E+00 0. -1.
</event>
<event>
 5    1  0.2111786E+001  0.1590153E+01  0.7818608E-02  0.3364120E+00
         11   -1    0    0    0    0  0.00000000000E+00  0.00000000000E+00  0.39999999674E+01  0.40000000000E+01  0.51100000000E-03 0.  1.
    9000002   -1    0    0    0    0 -0.00000000000E+00 -0.00000000000E+00  0.00000000000E+00  0.93800000000E+00  0.93800000000E+00 0.  1.
         11    1    1    2    0    0 -0.52936348525E-01 -0.15212241041E-01  0.78813670655E+00  0.79005911083E+00  0.51100000000E-03 0.  1.
    9000002    1    1    2    0    0 -0.20503669307E+00  0.86992364166E-01  0.40120857359E-01  0.96491522950E+00  0.93800000000E+00 0.  1.
         22    1    1    2    0    0  0.25797304159E+00 -0.71780123125E-01  0.31717424034E+01  0.31830256597E+01  0.00000000000E+00 0.  1.
</event>
<event>
 5    1  0.2111786E+001  0.1447691E+01  0.7818608E-02  0.3537305E+00
         11   -1    0    0    0    0  0.00000000000E+00  0.00000000000E+00  0.39999999674E+01  0.40000000000E+01  0.51100000000E-03 0. -1.
    9000002   -1    0    0    0    0 -0.00000000000E+00 -0.00000000000E+00  0.00000000000E+00  0.93800000000E+00  0.93800000000E+00 0.  1.
         11    1    1    2    0    0  0.30878515150E+00 -0.41312630415E+00  0.34846685850E+01  0.35226321156E+01  0.51100000000E-03 0. -1.
    9000002    1    1    2    0    0 -0.23485823884E+00  0.17025269182E+00  0.18558905014E+00  0.99921552578E+00  0.93800000000E+00 0.  1.
         22    1    1    2    0    0 -0.73926912658E-01  0.24287361233E+00  0.32974233217E+00  0.41615235865E+00  0.00000000000E+00 0.  1.
</event>
<event>
 5    1  0.2111786E+001  0.1415595E+01  0.7818608E-02  0.3582201E+00
         11   -1    0    0    0    0  0.00000000000E+00  0.00000000000E+00  0.39999999674E+01  0.40000000000E+01  0.51100000000E-03 0. -1.
    9000002   -1    0    0    0    0 -0.00000000000E+00 -0.00000000000E+00  0.00000000000E+00  0.93800000000E+00  0.93800000000E+00 0.  1.
         11    1    1    2    0    0  0.19839586576E+00 -0.43799238788E+00  0.31565793798E+01  0.31929910575E+01  0.51100000000E-03 0. -1.
    9000002    1    1    2    0    0 -0.34443221939E+00  0.71808267728E-01  0.24994069006E+00  0.10325232828E+01  0.93800000000E+00 0.  1.
         22    1    1    2    0    0  0.14603635363E+00  0.36618412015E+00  0.59347989753E+00  0.71248565965E+00  0.00000000000E+00 0. -1.
</event>
<event>
 5    1  0.2111786E+001  0.1512245E+01  0.7818608E-02  0.3454488E+00
         11   -1    0    0    0    0  0.00000000000E+00  0.00000000000E+00  0.39999999674E+01  0.40000000000E+01  0.51100000000E-03 0. -1.
    9000002   -1    0    0    0    0 -0.00000000000E+00 -0.00000000000E+00  0.00000000000E+00  0.93800000000E+00  0.93800000000E+00 0. -1.
         11    1    1    2    0    0  0.25936103124E+00  0.31370405779E+00  0.12374566141E+01  0.13026808947E+01  0.51100000000E-03 0. -1.
    9000002    1    1    2    0    0 -0.36980956385E-01 -0.27896855505E+00  0.12391886454E+00  0.98711242056E+00  0.93800000000E+00 0. -1.
         22    1    1    2    0    0 -0.22238007485E+00 -0.34735502744E-01  0.26386244887E+01  0.26482066848E+01  0.00000000000E+00 0. -1.
</event>
<event>
 5    1  0.2111786E+001  0.1560846E+01  0.7818608E-02  0.3396987E+00
         11   -1    0    0    0    0  0.00000000000E+00  0.00000000000E+00  0.39999999674E+01  0.40000000000E+01  0.51100000000E-03 0.  1.
    9000002   -1    0    0    0    0 -0.00000000000E+00 -0.00000000000E+00  0.00000000000E+00  0.93800000000E+00  0.93800000000E+00 0.  1.
         11    1    1    2    0    0  0.61382121403E-01 -0.13022592610E+00  0.45615839500E+00  0.47833805943E+00  0.51100000000E-03 0.  1.
    9000002    1    1    2    0    0 -0.18235910129E-01 -0.88984158665E-01  0.34295321720E-01  0.94301161075E+00  0.93800000000E+00 0.  1.
         22    1    1    2    0    0 -0.43146211273E-01  0.21921008477E+00  0.35095462506E+01  0.35166503298E+01  0.00000000000E+00 0.  1.
</event>
<event>
 5    1  0.2111786E+001  0.1580281E+01  0.7818608E-02  0.3375048E+00
         11   -1    0    0    0    0  0.00000000000E+00  0.00000000000E+00  0.39999999674E+01  0.40000000000E+01  0.51100000000E-03 0. -1.
    9000002   -1    0    0    0    0 -0.00000000000E+00 -0.00000000000E+00  0.00000000000E+00  0.93800000000E+00  0.93800000000E+00 0. -1.
         11    1    1    2    0    0 -0.90301152806E-01  0.58627975747E-01  0.40577596304E+00  0.41981654450E+00  0.51100000000E-03 0. -1.
    9000002    1    1    2    0    0  0.19118732011E+00  0.15191412742E+00  0.54529005733E-01  0.97079756177E+00  0.93800000000E+00 0. -1.
         22    1    1    2    0    0 -0.10088616730E+00 -0.21054210316E+00  0.35396949986E+01  0.35473858937E+01  0.00000000000E+00 0. -1.
</event>
<event>
 5    1  0.2111786E+001  0.1592245E+01  0.7818608E-02  0.3361824E+00
         11   -1    0    0    0    0  0.00000000000E+00  0.00000000000E+00  0.39999999674E+01  0.40000000000E+01  0.51100000000E-03 0. -1.
    9000002   -1    0    0    0    0 -0.00000000000E+00 -0.00000000000E+00  0.00000000000E+00  0.93800000000E+00  0.93800000000E+00 0. -1.
         11    1    1    2    0    0  0.16434984102E-01  0.53312396319E-01  0.67253483236E+00  0.67484493194E+00  0.51100000000E-03 0. -1.
    9000002    1    1    2    0    0 -0.15600264647E+00  0.14089625103E+00  0.34883102077E-01  0.96189885647E+00  0.93800000000E+00 0. -1.
         22    1    1    2    0    0  0.13956766236E+00 -0.19420864735E+00  0.32925820329E+01  0.33012562116E+01  0.00000000000E+00 0. -1.
</event>
<event>
 5    1  0.2111786E+001  0.1583071E+01  0.7818608E-02  0.3371945E+00
         11   -1    0    0    0    0  0.00000000000E+00  0.00000000000E+00  0.39999999674E+01  0.40000000000E+01  0.51100000000E-03 0.  1.
    9000002   -1    0    0    0    0 -0.00000000000E+00 -0.00000000000E+00  0.00000000000E+00  0.93800000000E+00  0.93800000000E+00 0. -1.
         11    1    1    2    0    0 -0.31678486148E+00  0.17287335566E+00  0.13674508565E+01  0.14142701127E+01  0.51100000000E-03 0.  1.
    9000002    1    1    2    0    0  0.45245588729E+00 -0.42045228796E+00  0.28423061766E+00  0.11585022660E+01  0.93800000000E+00 0. -1.
         22    1    1    2    0    0 -0.13567102581E+00  0.24757893231E+00  0.23483184932E+01  0.23652276213E+01  0.00000000000E+00 0.  1.
</event>
<event>
 5    1  0.2111786E+001  0.1491143E+01  0.7818608E-02  0.3480707E+00
         11   -1    0    0    0    0  0.00000000000E+00  0.00000000000E+00  0.39999999674E+01  0.40000000000E+01  0.51100000000E-03 0. -1.
    9000002   -1    0    0    0    0 -0.00000000000E+00 -0.00000000000E+00  0.00000000000E+00  0.93800000000E+00  0.93800000000E+00 0. -1.
         11    1    1    2    0    0 -0.73024837421E+00 -0.73336540964E+00  0.24433414636E+01  0.26534892653E+01  0.51100000000E-03 0. -1.
    9000002    1    1    2    0    0  0.80723756547E+00  0.53338486069E+00  0.97125047658E+00  0.16611151029E+01  0.93800000000E+00 0. -1.
         22    1    1    2    0    0 -0.76989191256E-01  0.19998054895E+00  0.58540802715E+00  0.62339563183E+00  0.00000000000E+00 0. -1.
</event>
<event>
 5    1  0.2111786E+001  0.1541151E+01  0.7818608E-02  0.3419822E+00
         11   -1    0    0    0    0  0.00000000000E+00  0.00000000000E+00  0.39999999674E+01  0.40000000000E+01  0.51100000000E-03 0.  1.
    9000002   -1    0    0    0    0 -0.00000000000E+00 -0.00000000000E+00  0.00000000000E+00  0.93800000000E+00  0.93800000000E+00 0. -1.
         11    1    1    2    0    0 -0.33524691063E+00  0.56516882187E-01  0.17287009069E+01  0.17618148982E+01  0.51100000000E-03 0.  1.
    9000002    1    1    2    0    0  0.11249112219E+00 -0.31332674041E-01  0.53146796081E-01  0.94673363253E+00  0.93800000000E+00 0. -1.
         22    1    1    2    0    0  0.22275578844E+00 -0.25184208146E-01  0.22181522644E+01  0.22294514692E+01  0.00000000000E+00 0. -1.
</event>
<event>
 5    1  0.2111786E+001  0.1589455E+01  0.7818608E-02  0.3364889E+00
         11   -1    0    0    0    0  0.00000000000E+00  0.00000000000E+00  0.39999999674E+01  0.40000000000E+01  0.51100000000E-03 0. -1.
    9000002   -1    0    0    0    0 -0.00000000000E+00 -0.00000000000E+00  0.00000000000E+00  0.93800000000E+00  0.93800000000E+00 0. -1.
         11    1    1    2    0    0 -0.95912925874E-01 -0.21938089460E-01  0.22522717872E+01  0.22544198885E+01  0.51100000000E-03 0. -1.
    9000002    1    1    2    0    0  0.67874163359E-01  0.22498599416E+00  0.44448151537E-01  0.96801096987E+00  0.93800000000E+00 0. -1.
         22    1    1    2    0    0  0.28038762515E-01 -0.20304790470E+00  0.17032800287E+01  0.17155691417E+01  0.00000000000E+00 0. -1.
</event>
<event>
 5    1  0.2111786E+001  0.1511002E+01  0.7818608E-02  0.3456010E+00
         11   -1    0    0    0    0  0.00000000000E+00  0.00000000000E+00  0.39999999674E+01  0.40000000000E+01  0.51100000000E-03 0. -1.
    9000002   -1    0    0    0    0 -0.00000000000E+00 -0.00000000000E+00  0.00000000000E+00  0.93800000000E+00  0.93800000000E+00 0. -1.
         11    1    1    2    0    0  0.88948287811E-01  0.42675255026E+00  0.25662628838E+01  0.26030242002E+01  0.51100000000E-03 0. -1.
    9000002    1    1    2    0    0 -0.97392128432E-01 -0.13284155036E+00  0.86778910076E-01  0.95629842801E+00  0.93800000000E+00 0. -1.
         22    1    1    2    0    0  0.84438406209E-02 -0.29391099989E+00  0.13469581735E+01  0.13786773718E+01  0.00000000000E+00 0. -1.
</event>
<event>
 5    1  0.2111786E+001  0.1585139E+01  0.7818608E-02  0.3369653E+00
         11   -1    0    0    0    0  0.00000000000E+00  0.00000000000E+00  0.39999999674E+01  0.40000000000E+01  0.51100000000E-03 0. -1.
    9000002   -1    0    0    0    0 -0.00000000000E+00 -0.00000000000E+00  0.00000000000E+00  0.93800000000E+00  0.93800000000E+00 0.  1.
         11    1    1    2    0    0 -0.76598643193E-01 -0.99862180191E-01  0.12302553841E+01  0.12366763434E+01  0.51100000000E-03 0. -1.
    9000002    1    1    2    0    0  0.21098492908E+00 -0.10936649767E+00  0.48616208391E-01  0.96885664927E+00  0.93800000000E+00 0.  1.
         22    1    1    2    0    0 -0.13438628589E+00  0.20922867786E+00  0.27211283749E+01  0.27324670073E+01  0.00000000000E+00 0. -1.
</event>
<event>
 5    1  0.2111786E+001  0.1535997E+01  0.7818608E-02  0.3425901E+00
         11   -1    0    0    0    0  0.00000000000E+00  0.00000000000E+00  0.39999999674E+01  0.40000000000E+01  0.51100000000E-03 0.  1.
    9000002   -1    0    0    0    0 -0.00000000000E+00 -0.00000000000E+00  0.00000000000E+00  0.93800000000E+00  0.93800000000E+00 0. -1.
         11    1    1    2    0    0 -0.30599004487E+00  0.14910872106E+00  0.20177693737E+01  0.20462787750E+01  0.51100000000E-03 0.  1.
    9000002    1    1    2    0    0  0.89227123488E-01  0.13690216210E-01  0.53305857447E-01  0.94384024921E+00  0.93800000000E+00 0. -1.
         22    1    1    2    0    0  0.21676292139E+00 -0.16279893727E+00  0.19289247362E+01  0.19478809758E+01  0.00000000000E+00 0. -1.
</event>
<event>
 5    1  0.2111786E+001  0.1568724E+01  0.7818608E-02  0.3388024E+00
         11   -1    0    0    0    0  0.00000000000E+00  0.00000000000E+00  0.39999999674E+01  0.40000000000E+01  0.51100000000E-03 0. -1.
    9000002   -1    0    0    0    0 -0.00000000000E+00 -0.00000000000E+00  0.00000000000E+00  0.93800000000E+00  0.93800000000E+00 0. -1.
         11    1    1    2    0    0 -0.79259688687E-01  0.19917465358E+00  0.17467999528E+01  0.17599042522E+01  0.51100000000E-03 0. -1.
    9000002    1    1    2    0    0  0.90727032705E-01  0.16539815240E-01  0.28521625762E-01  0.94295410444E+00  0.93800000000E+00 0. -1.
         22    1    1    2    0    0 -0.11467344018E-01 -0.21571446882E+00  0.22246783888E+01  0.22351416433E+01  0.00000000000E+00 0.  1.
</event>
<event>
 5    1  0.2111786E+001  0.1504752E+01  0.7818608E-02  0.3463707E+00
         11   -1    0    0    0    0  0.00000000000E+00  0.00000000000E+00  0.39999999674E+01  0.40000000000E+01  0.51100000000E-03 0.  1.
    9000002   -1    0    0    0    0 -0.00000000000E+00 -0.00000000000E+00  0.00000000000E+00  0.93800000000E+00  0.93800000000E+00 0. -1.
         11    1    1    2    0    0 -0.63409908030E-01 -0.10506053759E+00  0.56793375557E-01  0.13521938331E+00  0.51100000000E-03 0.  1.
    9000002    1    1    2    0    0  0.28796089097E+00  0.18748782186E+00  0.15960800321E+00  0.10116283274E+01  0.93800000000E+00 0. -1.
         22    1    1    2    0    0 -0.22455098294E+00 -0.82427284271E-01  0.37835985886E+01  0.37911522893E+01  0.00000000000E+00 0.  1.
</event>
<event>
 5    1  0.2111786E+001  0.1528137E+01  0.7818608E-02  0.3435255E+00
         11   -1    0    0    0    0  0.00000000000E+00  0.00000000000E+00  0.39999999674E+01  0.40000000000E+01  0.51100000000E-03 0. -1.
    9000002   -1    0    0    0    0 -0.00000000000E+00 -0.00000000000E+00  0.00000000000E+00  0.93800000000E+00  0.93800000000E+00 0. -1.
         11    1    1    2    0    0 -0.21130418821E+00 -0.25828196940E+00  0.11925288091E+01  0.12383393143E+01  0.51100000000E-03 0. -1.
    9000002    1    1    2    0    0  0.24082481585E+00 -0.18516340071E-01  0.95338020084E-01  0.97327939712E+00  0.93800000000E+00 0. -1.
         22    1    1    2    0    0 -0.29520627636E-01  0.27679830947E+00  0.27121331382E+01  0.27263812886E+01  0.00000000000E+00 0. -1.
</event>
<event>
 5    1  0.2111786E+001  0.1588645E+01  0.7818608E-02  0.3365781E+00
         11   -1    0    0    0    0  0.00000000000E+00  0.00000000000E+00  0.39999999674E+01  0.40000000000E+01  0.51100000000E-03 0.  1.
    9000002   -1    0    0    0    0 -0.00000000000E+00 -0.00000000000E+00  0.00000000000E+00  0.93800000000E+00  0.93800000000E+00 0. -1.
         11    1    1    2    0    0  0.19283098018E-01 -0.71179035026E-01  0.15212217335E+01  0.15230082457E+01  0.51100000000E-03 0.  1.
    9000002    1    1    2    0    0  0.59350765868E-01 -0.11583312655E+00  0.19323191317E-01  0.94718383239E+00  0.93800000000E+00 0. -1.
         22    1    1    2    0    0 -0.78633863886E-01  0.18701216158E+00  0.24594550426E+01  0.24678079219E+01  0.00000000000E+00 0. -1.
</event>
<event>
 5    1  0.2111786E+001  0.1548414E+01  0.7818608E-02  0.3411329E+00
         11   -1    0    0    0    0  0.00000000000E+00  0.00000000000E+00  0.39999999674E+01  0.40000000000E+01  0.51100000000E-03 0. -1.
    9000002   -1    0    0    0    0 -0.00000000000E+00 -0.00000000000E+00  0.00000000000E+00  0.93800000000E+00  0.93800000000E+00 0. -1.
         11    1    1    2    0    0 -0.44905344222E-01 -0.24438119040E+00  0.89181314906E+00  0.92578054101E+00  0.51100000000E-03 0. -1.
    9000002    1    1    2    0    0 -0.13445559938E+00  0.12265679876E+00  0.61113316931E-01  0.95744547416E+00  0.93800000000E+00 0. -1.
         22    1    1    2    0    0  0.17936094360E+00  0.12172439164E+00  0.30470735014E+01  0.30547739848E+01  0.00000000000E+00 0. -1.
</event>
<event>
 5    1  0.2111786E+001  0.1505063E+01  0.7818608E-02  0.3463322E+00
         11   -1    0    0    0    0  0.00000000000E+00  0.00000000000E+00  0.39999999674E+01  0.40000000000E+01  0.51100000000E-03 0.  1.
    9000002   -1    0    0    0    0 -0.00000000000E+00 -0.00000000000E+00  0.00000000000E+00  0.93800000000E+00  0.93800000000E+00 0.  1.
         11    1    1    2    0    0  0.49499878544E+00  0.69375037805E-01  0.23482353922E+01  0.24008428544E+01  0.51100000000E-03 0.  1.
    9000002    1    1    2    0    0 -0.26000146275E+00  0.10063155953E+00  0.12900720903E+00  0.98702296396E+00  0.93800000000E+00 0.  1.
         22    1    1    2    0    0 -0.23499732269E+00 -0.17000659734E+00  0.15227573662E+01  0.15501341816E+01  0.00000000000E+00 0. -1.
</event>
<event>
 5    1  0.2111786E+001  0.1514654E+01  0.7818608E-02  0.3451545E+00
         11   -1    0    0    0    0  0.00000000000E+00  0.00000000000E+00  0.39999999674E+01  0.40000000000E+01  0.51100000000E-03 0. -1.
    9000002   -1    0    0    0    0 -0.00000000000E+00 -0.00000000000E+00  0.00000000000E+00  0.93800000000E+00  0.93800000000E+00 0. -1.
         11    1    1    2    0    0  0.22462437876E+00  0.21064400150E+00  0.98597791908E+00  0.10329471066E+01  0.51100000000E-03 0. -1.
    9000002    1    1    2    0    0 -0.28204206251E-01  0.16336240895E-01  0.65022027722E-01  0.94081571740E+00  0.93800000000E+00 0. -1.
         22    1    1    2    0    0 -0.19642017251E+00 -0.22698024240E+00  0.29490000206E+01  0.29642371761E+01  0.00000000000E+00 0. -1.
</event>
<event>
 5    1  0.2111786E+001  0.1526713E+01  0.7818608E-02  0.3436961E+00
         11   -1    0    0    0    0  0.00000000000E+00  0.00000000000E+00  0.39999999674E+01  0.40000000000E+01  0.51100000000E-03 0.  1.
    9000002   -1    0    0    0    0 -0.00000000000E+00 -0.00000000000E+00  0.00000000000E+00  0.93800000000E+00  0.93800000000E+00 0. -1.
         11    1    1    2    0    0 -0.70440305696E-01 -0.23891311593E+00  0.59265761669E+00  0.64287216877E+00  0.51100000000E-03 0.  1.
    9000002    1    1    2    0    0 -0.95588257349E-01  0.12133846159E+00  0.71750378032E-01  0.95333742922E+00  0.93800000000E+00 0. -1.
         22    1    1    2    0    0  0.16602856304E+00  0.11757465433E+00  0.33355919726E+01  0.33417904020E+01  0.00000000000E+00 0.  1.
</event>
<event>
 5    1  0.2111786E+001  0.1541391E+01  0.7818608E-02  0.3419541E+00
         11   -1    0    0    0    0  0.00000000000E+00  0.00000000000E+00  0.39999999674E+01  0.40000000000E+01  0.51100000000E-03 0. -1.
    9000002   -1    0    0    0    0 -0.00000000000E+00 -0.00000000000E+00  0.00000000000E+00  0.93800000000E+00  0.93800000000E+00 0. -1.
         11    1    1    2    0    0  0.30336986769E+00  0.22780963981E-01  0.31384340878E+01  0.31531446261E+01  0.51100000000E-03 0. -1.
    9000002    1    1    2    0    0 -0.12101829935E+00 -0.16571310928E+00  0.72996554525E-01  0.96295314545E+00  0.93800000000E+00 0. -1.
         22    1    1    2    0    0 -0.18235156833E+00  0.14293214530E+00  0.78856932508E+00  0.82190222843E+00  0.00000000000E+00 0.  1.
</event>
<event>
 5    1  0.2111786E+001  0.1534483E+01  0.7818608E-02  0.3427695E+00
         11   -1    0    0    0    0  0.00000000000E+00  0.00000000000E+00  0.39999999674E+01  0.40000000000E+01  0.51100000000E-03 0. -1.
    9000002   -1    0    0    0    0 -0.00000000000E+00 -0.00000000000E+00  0.00000000000E+00  0.93800000000E+00  0.93800000000E+00 0.  1.
         11    1    1    2    0    0  0.16667968905E+00  0.26985315306E+00  0.13140092882E+01  0.13517483174E+01  0.51100000000E-03 0. -1.
    9000002    1    1    2    0    0 -0.33688183036E-01 -0.73895783018E-01  0.53391561648E-01  0.94302181273E+00  0.93800000000E+00 0.  1.
         22    1    1    2    0    0 -0.13299150601E+00 -0.19595737004E+00  0.26325991175E+01  0.26432298699E+01  0.00000000000E+00 0. -1.
</event>
<event>
 5    1  0.2111786E+001  0.1553226E+01  0.7818608E-02  0.3405749E+00
         11   -1    0    0    0    0  0.00000000000E+00  0.00000000000E+00  0.39999999674E+01  0.40000000000E+01  0.51100000000E-03 0.  1.
    9000002   -1    0    0    0    0 -0.00000000000E+00 -0.00000000000E+00  0.00000000000E+00  0.93800000000E+00  0.93800000000E+00 0.  1.
         11    1    1    2    0    0  0.62316993563E-01  0.31560158686E+00  0.23874251378E+01  0.24090012078E+01  0.51100000000E-03 0.  1.
    9000002    1    1    2    0    0  0.76929896460E-01 -0.14316532987E+00  0.52675579899E-01  0.95343234546E+00  0.93800000000E+00 0.  1.
         22    1    1    2    0    0 -0.13924689002E+00 -0.17243625699E+00  0.15598992497E+01  0.15755664468E+01  0.00000000000E+00 0.  1.
</event>
<event>
 5    1  0.2111786E+001  0.1559835E+01  0.7818608E-02  0.3398145E+00
         11   -1    0    0    0    0  0.00000000000E+00  0.00000000000E+00  0.39999999674E+01  0.40000000000E+01  0.51100000000E-03 0. -1.
    9000002   -1    0    0    0    0 -0.00000000000E+00 -0.00000000000E+00  0.00000000000E+00  0.93800000000E+00  0.93800000000E+00 0.  1.
         11    1    1    2    0    0 -0.22902552387E+00 -0.34755318453E-01  0.14540628026E+01  0.14723992386E+01  0.51100000000E-03 0. -1.
    9000002    1    1    2    0    0 -0.68813329809E-02  0.11048607876E+00  0.37810537775E-01  0.94526618638E+00  0.93800000000E+00 0.  1.
         22    1    1    2    0    0  0.23590685685E+00 -0.75730760309E-01  0.25081266270E+01  0.25203345750E+01  0.00000000000E+00 0. -1.
</event>
<event>
 5    1  0.2111786E+001  0.1515908E+01  0.7818608E-02  0.3450016E+00
         11   -1    0    0    0    0  0.00000000000E+00  0.00000000000E+00  0.39999999674E+01  0.40000000000E+01  0.51100000000E-03 0. -1.
    9000002   -1    0    0    0    0 -0.00000000000E+00 -0.00000000000E+00  0.00000000000E+00  0.93800000000E+00  0.93800000000E+00 0. -1.
         11    1    1    2    0    0  0.34874792446E+00  0.27655239967E+00  0.21791654786E+01  0.22241557474E+01  0.51100000000E-03 0. -1.
    9000002    1    1    2    0    0 -0.43173967019E-01 -0.28052207683E+00  0.12179465023E+00  0.98753965178E+00  0.93800000000E+00 0. -1.
         22    1    1    2    0    0 -0.30557395744E+00  0.39696771619E-02  0.16990398385E+01  0.17263046008E+01  0.00000000000E+00 0. -1.
</event>
<event>
 5    1  0.2111786E+001  0.1557580E+01  0.7818608E-02  0.3400732E+00
         11   -1    0    0    0    0  0.00000000000E+00  0.00000000000E+00  0.39999999674E+01  0.40000000000E+01  0.51100000000E-03 0.  1.
    9000002   -1    0    0    0    0 -0.00000000000E+00 -0.00000000000E+00  0.00000000000E+00  0.93800000000E+00  0.93800000000E+00 0. -1.
         11    1    1    2    0    0 -0.21522898817E+00  0.87357930444E-01  0.21753436990E+01  0.21877100803E+01  0.51100000000E-03 0.  1.
    9000002    1    1    2    0    0 -0.13189893303E-01  0.31185269319E-01  0.31895749649E-01  0.93915272089E+00  0.93800000000E+00 0. -1.
         22    1    1    2    0    0  0.22841888147E+00 -0.11854319976E+00  0.17927605187E+01  0.18111371988E+01  0.00000000000E+00 0.  1.
</event>
<event>
 5    1  0.2111786E+001  0.1514664E+01  0.7818608E-02  0.3451532E+00
         11   -1    0    0    0    0  0.00000000000E+00  0.00000000000E+00  0.39999999674E+01  0.40000000000E+01  0.51100000000E-03 0. -1.
    9000002   -1    0    0    0    0 -0.00000000000E+00 -0.00000000000E+00  0.00000000000E+00  0.93800000000E+00  0.93800000000E+00 0. -1.
         11    1    1    2    0    0  0.45013757229E+00  0.17693638669E+00  0.24871966879E+01  0.25337872729E+01  0.51100000000E-03 0. -1.
    9000002    1    1    2    0    0 -0.18602540343E+00 -0.17998436984E+00  0.11287353562E+00  0.97958371728E+00  0.93800000000E+00 0. -1.
         22    1    1    2    0    0 -0.26411216886E+00  0.30479831518E-02  0.13999297438E+01  0.14246290098E+01  0.00000000000E+00 0. -1.
</event>
<event>
 5    1  0.2111786E+001  0.1561275E+01  0.7818608E-02  0.3396497E+00
         11   -1    0    0    0    0  0.00000000000E+00  0.00000000000E+00  0.39999999674E+01  0.40000000000E+01  0.51100000000E-03 0.  1.
    9000002   -1    0    0    0    0 -0.00000000000E+00 -0.00000000000E+00  0.00000000000E+00  0.93800000000E+00  0.93800000000E+00 0. -1.
         11    1    1    2    0    0  0.20967935749E+00 -0.43812356511E+00  0.26917546779E+01  0.27352259867E+01  0.51100000000E-03 0.  1.
    9000002    1    1    2    0    0 -0.61383192521E-01  0.74280173809E+00  0.44954014314E+00  0.12796298913E+01  0.93800000000E+00 0. -1.
         22    1    1    2    0    0 -0.14829616497E+00 -0.30467817298E+00  0.85870514632E+00  0.92314412198E+00  0.00000000000E+00 0. -1.
</event>
<event>
 5    1  0.2111786E+001  0.1321574E+01  0.7818608E-02  0.3741474E+00
         11   -1    0    0    0    0  0.00000000000E+00  0.00000000000E+00  0.39999999674E+01  0.40000000000E+01  0.51100000000E-03 0.  1.
    9000002   -1    0    0    0    0 -0.00000000000E+00 -0.00000000000E+00  0.00000000000E+00  0.93800000000E+00  0.93800000000E+00 0.  1.
         11    1    1    2    0    0 -0.10415332972E-01  0.65788147678E+00  0.84200446463E+00  0.10685917351E+01  0.51100000000E-03 0.  1.
    9000002    1    1    2    0    0  0.22648296473E+00 -0.39903465695E+00  0.44422226527E+00  0.11347689684E+01  0.93800000000E+00 0.  1.
         22    1    1    2    0    0 -0.21606763176E+00 -0.25884681983E+00  0.27137732375E+01  0.27346392965E+01  0.00000000000E+00 0. -1.
</event>
<event>
 5    1  0.2111786E+001  0.1455629E+01  0.7818608E-02  0.3526691E+00
         11   -1    0    0    0    0  0.00000000000E+00  0.00000000000E+00  0.39999999674E+01  0.40000000000E+01  0.51100000000E-03 0.  1.
    9000002   -1    0    0    0    0 -0.00000000000E+00 -0.00000000000E+00  0.00000000000E+00  0.93800000000E+00  0.93800000000E+00 0.  1.
         11    1    1    2    0    0 -0.70989995471E+00 -0.38070047740E+00  0.66314662605E+00  0.10433860781E+01  0.51100000000E-03 0.  1.
    9000002    1    1    2    0    0  0.87336743878E+00  0.67131969273E+00  0.17381813405E+01  0.22615391187E+01  0.93800000000E+00 0.  1.
         22    1    1    2    0    0 -0.16346748407E+00 -0.29061921533E+00  0.15986720008E+01  0.16330748032E+01  0.00000000000E+00 0.  1.
</event>
<event>
 5    1  0.2111786E+001  0.1598009E+01  0.7818608E-02  0.3355527E+00
         11   -1    0    0    0    0  0.00000000000E+00  0.00000000000E+00  0.39999999674E+01  0.40000000000E+01  0.51100000000E-03 0. -1.
    9000002   -1    0    0    0    0 -0.00000000000E+00 -0.00000000000E+00  0.00000000000E+00  0.93800000000E+00  0.93800000000E+00 0.  1.
         11    1    1    2    0    0 -0.10965821403E-01  0.44859922799E-01  0.22812228208E+00  0.23275029241E+00  0.51100000000E-03 0. -1.
    9000002    1    1    2    0    0  0.28812556227E+00 -0.37577490607E+00  0.15430494828E+00  0.10620156010E+01  0.93800000000E+00 0.  1.
         22    1    1    2    0    0 -0.27715974087E+00  0.33091498327E+00  0.36175727370E+01  0.36432341066E+01  0.00000000000E+00 0. -1.
</event>
<event>
 5    1  0.2111786E+001  0.1456170E+01  0.7818608E-02  0.3525972E+00
         11   -1    0    0    0    0  0.00000000000E+00  0.00000000000E+00  0.39999999674E+01  0.40000000000E+01  0.51100000000E-03 0.  1.
    9000002   -1    0    0    0    0 -0.00000000000E+00 -0.00000000000E+00  0.00000000000E+00  0.93800000000E+00  0.93800000000E+00 0. -1.
         11    1    1    2    0    0  0.37041292811E+00 -0.39226235824E+00  0.18914860675E+01  0.19669253417E+01  0.51100000000E-03 0.  1.
    9000002    1    1    2    0    0 -0.18035753080E-01  0.23198335628E+00  0.15403569181E+00  0.97862789677E+00  0.93800000000E+00 0. -1.
         22    1    1    2    0    0 -0.35237717503E+00  0.16027900196E+00  0.19544782081E+01  0.19924467616E+01  0.00000000000E+00 0.  1.
</event>
<event>
 5    1  0.2111786E+001  0.1427128E+01  0.7818608E-02  0.3565401E+00
         11   -1    0    0    0    0  0.00000000000E+00  0.00000000000E+00  0.39999999674E+01  0.40000000000E+01  0.51100000000E-03 0. -1.
    9000002   -1    0    0    0    0 -0.00000000000E+00 -0.00000000000E+00  0.00000000000E+00  0.93800000000E+00  0.93800000000E+00 0.  1.
         11    1    1    2    0    0 -0.33579891953E+00  0.39449835575E+00  0.21374376572E+01  0.21993248661E+01  0.51100000000E-03 0. -1.
    9000002    1    1    2    0    0 -0.35595354020E-01 -0.85334013163E-01  0.14402072419E+00  0.95348565381E+00  0.93800000000E+00 0.  1.
         22    1    1    2    0    0  0.37139427356E+00 -0.30916434258E+00  0.17185415859E+01  0.17851894801E+01  0.00000000000E+00 0.  1.
</event>
<event>
 5    1  0.2111786E+001  0.1523104E+01  0.7818608E-02  0.3441299E+00
         11   -1    0    0    0    0  0.00000000000E+00  0.00000000000E+00  0.39999999674E+01  0.40000000000E+01  0.51100000000E-03 0. -1.
    9000002   -1    0    0    0    0 -0.00000000000E+00 -0.00000000000E+00  0.00000000000E+00  0.93800000000E+00  0.93800000000E+00 0.  1.
         11    1    1    2    0    0 -0.65828589137E-01 -0.25702239030E+00  0.22184948519E+01  0.22343038247E+01  0.51100000000E-03 0. -1.
    9000002    1    1    2    0    0  0.46518033052E+00  0.56383750089E-03  0.21763365369E+00  0.10693930358E+01  0.93800000000E+00 0.  1.
         22    1    1    2    0    0 -0.39935174139E+00  0.25645855280E+00  0.15638714618E+01  0.16343031394E+01  0.00000000000E+00 0.  1.
</event>
<event>
 5    1  0.2111786E+001  0.1517484E+01  0.7818608E-02  0.3448099E+00
         11   -1    0    0    0    0  0.00000000000E+00  0.00000000000E+00  0.39999999674E+01  0.40000000000E+01  0.51100000000E-03 0. -1.
    9000002   -1    0    0    0    0 -0.00000000000E+00 -0.00000000000E+00  0.00000000000E+00  0.93800000000E+00  0.93800000000E+00 0. -1.
         11    1    1    2    0    0 -0.16656739256E+00 -0.30589667430E+00  0.12565840498E+01  0.13039636525E+01  0.51100000000E-03 0. -1.
    9000002    1    1    2    0    0  0.10266023872E+00  0.37307236708E-01  0.70572503021E-01  0.94697171695E+00  0.93800000000E+00 0. -1.
         22    1    1    2    0    0  0.63907153841E-01  0.26858943759E+00  0.26728434145E+01  0.26870646306E+01  0.00000000000E+00 0. -1.
</event>
<event>
 5    1  0.2111786E+001  0.1578007E+01  0.7818608E-02  0.3377585E+00
         11   -1    0    0    0    0  0.00000000000E+00  0.00000000000E+00  0.39999999674E+01  0.40000000000E+01  0.51100000000E-03 0. -1.
    9000002   -1    0    0    0    0 -0.00000000000E+00 -0.00000000000E+00  0.00000000000E+00  0.93800000000E+00  0.93800000000E+00 0. -1.
         11    1    1    2    0    0  0.94101723156E-01  0.20116945225E+00  0.87726594025E+00  0.90494202790E+00  0.51100000000E-03 0. -1.
    9000002    1    1    2    0    0  0.21441905486E-01 -0.39377624998E+00  0.12300952874E+00  0.10249365027E+01  0.93800000000E+00 0. -1.
         22    1    1    2    0    0 -0.11554362864E+00  0.19260679774E+00  0.29997244984E+01  0.30081214694E+01  0.00000000000E+00 0. -1.
</event>
<event>
 5    1  0.2111786E+001  0.1543720E+01  0.7818608E-02  0.3416808E+00
         11   -1    0    0    0    0  0.00000000000E+00  0.00000000000E+00  0.39999999674E+01  0.40000000000E+01  0.51100000000E-03 0. -1.
    9000002   -1    0    0    0    0 -0.00000000000E+00 -0.00000000000E+00  0.00000000000E+00  0.93800000000E+00  0.93800000000E+00 0. -1.
         11    1    1    2    0    0 -0.14160018662E+00  0.16568115922E+00  0.10874387727E+01  0.11090645630E+01  0.51100000000E-03 0. -1.
    9000002    1    1    2    0    0 -0.24225741732E+00 -0.69320785069E-01  0.86281982309E-01  0.97508082124E+00  0.93800000000E+00 0. -1.
         22    1    1    2    0    0  0.38385760393E+00 -0.96360374155E-01  0.28262792123E+01  0.28538546158E+01  0.00000000000E+00 0. -1.
</event>
<event>
 5    1  0.2111786E+001  0.1570081E+01  0.7818608E-02  0.3386491E+00
         11   -1    0    0    0    0  0.00000000000E+00  0.00000000000E+00  0.39999999674E+01  0.40000000000E+01  0.51100000000E-03 0. -1.
    9000002   -1    0    0    0    0 -0.00000000000E+00 -0.00000000000E+00  0.00000000000E+00  0.93800000000E+00  0.93800000000E+00 0. -1.
         11    1    1    2    0    0  0.17750225131E+00 -0.45904956750E-01  0.20334670360E+01  0.20417156418E+01  0.51100000000E-03 0. -1.
    9000002    1    1    2    0    0  0.54678071039E-01  0.41272819007E-01  0.24915254848E-01  0.94082830897E+00  0.93800000000E+00 0. -1.
         22    1    1    2    0    0 -0.23218032235E+00  0.46321377428E-02  0.19416176765E+01  0.19554560492E+01  0.00000000000E+00 0. -1.
</event>
<event>
 5    1  0.2111786E+001  0.1476861E+01  0.7818608E-02  0.3498911E+00
         11   -1    0    0    0    0  0.00000000000E+00  0.00000000000E+00  0.39999999674E+01  0.40000000000E+01  0.51100000000E-03 0. -1.
    9000002   -1    0    0    0    0 -0.00000000000E+00 -0.00000000000E+00  0.00000000000E+00  0.93800000000E+00  0.93800000000E+00 0. -1.
         11    1    1    2    0    0 -0.63223657437E-02  0.29542909133E+00  0.34116408806E+00  0.45134412194E+00  0.51100000000E-03 0. -1.
    9000002    1    1    2    0    0 -0.21350128061E+00  0.13213516765E+00  0.19600165211E+00  0.99060746362E+00  0.93800000000E+00 0. -1.
         22    1    1    2    0    0  0.21982364635E+00 -0.42756425898E+00  0.34628342272E+01  0.34960484144E+01  0.00000000000E+00 0. -1.
</event>
<event>
 5    1  0.2111786E+001  0.1545810E+01  0.7818608E-02  0.3414365E+00
         11   -1    0    0    0    0  0.00000000000E+00  0.00000000000E+00  0.39999999674E+01  0.40000000000E+01  0.51100000000E-03 0. -1.
    9000002   -1    0    0    0    0 -0.00000000000E+00 -0.00000000000E+00  0.00000000000E+00  0.93800000000E+00  0.93800000000E+00 0.  1.
         11    1    1    2    0    0  0.28368501615E+00 -0.23662840436E+00  0.29964827522E+01  0.30191686497E+01  0.51100000000E-03 0. -1.
    9000002    1    1    2    0    0 -0.31811229415E+00  0.55732063606E+00  0.34854531234E+00  0.11887512599E+01  0.93800000000E+00 0.  1.
         22    1    1    2    0    0  0.34427277992E-01 -0.32069223170E+00  0.65497190283E+00  0.73008009043E+00  0.00000000000E+00 0.  1.
</event>
<event>
 5    1  0.2111786E+001  0.1546538E+01  0.7818608E-02  0.3413515E+00
         11   -1    0    0    0    0  0.00000000000E+00  0.00000000000E+00  0.39999999674E+01  0.40000000000E+01  0.51100000000E-03 0.  1.
    9000002   -1    0    0    0    0 -0.00000000000E+00 -0.00000000000E+00  0.00000000000E+00  0.93800000000E+00  0.93800000000E+00 0.  1.
         11    1    1    2    0    0  0.13829881493E+00 -0.22761887239E+00  0.13579270474E+01  0.13838002169E+01  0.51100000000E-03 0.  1.
    9000002    1    1    2    0    0 -0.76737094453E-01 -0.32359233289E-01  0.44307000967E-01  0.94273156942E+00  0.93800000000E+00 0.  1.
         22    1    1    2    0    0 -0.61561720479E-01  0.25997810568E+00  0.25977659190E+01  0.26114682136E+01  0.00000000000E+00 0.  1.
</event>
<event>
 5    1  0.2111786E+001  0.1568387E+01  0.7818608E-02  0.3388406E+00
         11   -1    0    0    0    0  0.00000000000E+00  0.00000000000E+00  0.39999999674E+01  0.40000000000E+01  0.51100000000E-03 0. -1.
    9000002   -1    0    0    0    0 -0.00000000000E+00 -0.00000000000E+00  0.00000000000E+00  0.93800000000E+00  0.93800000000E+00 0. -1.
         11    1    1    2    0    0  0.84366392901E-01 -0.65476606011E-01  0.11552211104E+01  0.11601469515E+01  0.51100000000E-03 0. -1.
    9000002    1    1    2    0    0  0.30364961551E+00 -0.70430204981E-01  0.89957211969E-01  0.99252194069E+00  0.93800000000E+00 0. -1.
         22    1    1    2    0    0 -0.38801600841E+00  0.13590681099E+00  0.27548216450E+01  0.27853311078E+01  0.00000000000E+00 0. -1.
</event>
<event>
 5    1  0.2111786E+001  0.1540494E+01  0.7818608E-02  0.3420594E+00
         11   -1    0    0    0    0  0.00000000000E+00  0.00000000000E+00  0.39999999674E+01  0.40000000000E+01  0.51100000000E-03 0. -1.
    9000002   -1    0    0    0    0 -0.00000000000E+00 -0.00000000000E+00  0.00000000000E+00  0.93800000000E+00  0.93800000000E+00 0.  1.
         11    1    1    2    0    0  0.30137702975E+00  0.19955448807E+00  0.21355390511E+01  0.21659126039E+01  0.51100000000E-03 0. -1.
    9000002    1    1    2    0    0 -0.10652631339E+00 -0.72262672144E-01  0.55715737632E-01  0.94842922385E+00  0.93800000000E+00 0.  1.
         22    1    1    2    0    0 -0.19485071636E+00 -0.12729181593E+00  0.18087451786E+01  0.18236581723E+01  0.00000000000E+00 0.  1.
</event>
<event>
 5    1  0.2111786E+001  0.1533263E+01  0.7818608E-02  0.3429143E+00
         11   -1    0    0    0    0  0.00000000000E+00  0.00000000000E+00  0.39999999674E+01  0.40000000000E+01  0.51100000000E-03 0.  1.
    9000002   -1    0    0    0    0 -0.00000000000E+00 -0.00000000000E+00  0.00000000000E+00  0.93800000000E+00  0.93800000000E+00 0.  1.
         11    1    1    2    0    0 -0.77968011844E-01 -0.30552695647E+00  0.30292857237E+01  0.30456523093E+01  0.51100000000E-03 0.  1.
    9000002    1    1    2    0    0  0.30833693764E-01  0.63022626617E-01  0.53163241141E-01  0.94212148810E+00  0.93800000000E+00 0.  1.
         22    1    1    2    0    0  0.47134318080E-01  0.24250432986E+00  0.91755100248E+00  0.95022620259E+00  0.00000000000E+00 0.  1.
</event>
<event>
 5    1  0.2111786E+001  0.1516920E+01  0.7818608E-02  0.3448785E+00
         11   -1    0    0    0    0  0.00000000000E+00  0.00000000000E+00  0.39999999674E+01  0.40000000000E+01  0.51100000000E-03 0. -1.
    9000002   -1    0    0    0    0 -0.00000000000E+00 -0.00000000000E+00  0.00000000000E+00  0.93800000000E+00  0.93800000000E+00 0. -1.
         11    1    1    2    0    0  0.83183376592E-02  0.22028650208E+00  0.43467221436E+00  0.48737617176E+00  0.51100000000E-03 0. -1.
    9000002    1    1    2    0    0 -0.14155722091E+00  0.14809385228E-01  0.77012519101E-01  0.95185749605E+00  0.93800000000E+00 0. -1.
         22    1    1    2    0    0  0.13323888325E+00 -0.23509588731E+00  0.34883152339E+01  0.34987663322E+01  0.00000000000E+00 0. -1.
</event>
<event>
 5    1  0.2111786E+001  0.1397275E+01  0.7818608E-02  0.3611251E+00
         11   -1    0    0    0    0  0.00000000000E+00  0.00000000000E+00  0.39999999674E+01  0.40000000000E+01  0.51100000000E-03 0.  1.
    9000002   -1    0    0    0    0 -0.00000000000E+00 -0.00000000000E+00  0.00000000000E+00  0.93800000000E+00  0.93800000000E+00 0. -1.
         11    1    1    2    0    0 -0.59315267000E+00 -0.30798226346E+00  0.22760318471E+01  0.23721307710E+01  0.51100000000E-03 0.  1.
    9000002    1    1    2    0    0  0.30556468337E+00 -0.47523440841E-01  0.24467522686E+00  0.10175157098E+01  0.93800000000E+00 0. -1.
         22    1    1    2    0    0  0.28758798663E+00  0.35550570430E+00  0.14792928934E+01  0.15483535192E+01  0.00000000000E+00 0.  1.
</event>
<event>
 5    1  0.2111786E+001  0.1544809E+01  0.7818608E-02  0.3415534E+00
         11   -1    0    0    0    0  0.00000000000E+00  0.00000000000E+00  0.39999999674E+01  0.40000000000E+01  0.51100000000E-03 0.  1.
    9000002   -1    0    0    0    0 -0.00000000000E+00 -0.00000000000E+00  0.00000000000E+00  0.93800000000E+00  0.93800000000E+00 0.  1.
         11    1    1    2    0    0 -0.21412762801E+00  0.19642416257E-01  0.91688755672E+00  0.94176404602E+00  0.51100000000E-03 0.  1.
    9000002    1    1    2    0    0 -0.10252965162E+00 -0.16945277475E-01  0.48329106235E-01  0.94497575334E+00  0.93800000000E+00 0.  1.
         22    1    1    2    0    0  0.31665727963E+00 -0.26971387813E-02  0.30347833044E+01  0.30512602006E+01  0.00000000000E+00 0.  1.
</event>
<event>
 5    1  0.2111786E+001  0.1515671E+01  0.7818608E-02  0.3450305E+00
         11   -1    0    0    0    0  0.00000000000E+00  0.00000000000E+00  0.39999999674E+01  0.40000000000E+01  0.51100000000E-03 0. -1.
    9000002   -1    0    0    0    0 -0.00000000000E+00 -0.00000000000E+00  0.00000000000E+00  0.93800000000E+00  0.93800000000E+00 0.  1.
         11    1    1    2    0    0  0.11853295111E+00  0.32619788582E+00  0.16219778674E+01  0.16586945423E+01  0.51100000000E-03 0. -1.
    9000002    1    1    2    0    0 -0.19722343659E+00  0.37662638706E-01  0.92539934725E-01  0.96370285763E+00  0.93800000000E+00 0.  1.
         22    1    1    2    0    0  0.78690485473E-01 -0.36386052452E+00  0.22854821652E+01  0.23156026000E+01  0.00000000000E+00 0. -1.
</event>
<event>
 5    1  0.2111786E+001  0.1545829E+01  0.7818608E-02  0.3414342E+00
         11   -1    0    0    0    0  0.00000000000E+00  0.00000000000E+00  0.39999999674E+01  0.40000000000E+01  0.51100000000E-03 0.  1.
    9000002   -1    0    0    0    0 -0.00000000000E+00 -0.00000000000E+00  0.00000000000E+00  0.93800000000E+00  0.93800000000E+00 0. -1.
         11    1    1    2    0    0 -0.91885979415E-01 -0.27479432487E+00  0.25457792668E+01  0.25622153092E+01  0.51100000000E-03 0.  1.
    9000002    1    1    2    0    0  0.10349867878E+00  0.13115695160E-01  0.47600082745E-01  0.94498347385E+00  0.93800000000E+00 0. -1.
         22    1    1    2    0    0 -0.11612699364E-01  0.26167862971E+00  0.14066206178E+01  0.14308012170E+01  0.00000000000E+00 0.  1.
</event>
<event>
 5    1  0.2111786E+001  0.1545936E+01  0.7818608E-02  0.3414217E+00
         11   -1    0    0    0    0  0.00000000000E+00  0.00000000000E+00  0.39999999674E+01  0.40000000000E+01  0.51100000000E-03 0.  1.
    9000002   -1    0    0    0    0 -0.00000000000E+00 -0.00000000000E+00  0.00000000000E+00  0.93800000000E+00  0.93800000000E+00 0.  1.
         11    1    1    2    0    0  0.13983185589E+00  0.46993184798E-01  0.33321921338E+01  0.33354558886E+01  0.51100000000E-03 0.  1.
    9000002    1    1    2    0    0  0.75769587679E-01 -0.22895568680E-01  0.44303546048E-01  0.94237574336E+00  0.93800000000E+00 0.  1.
         22    1    1    2    0    0 -0.21560144357E+00 -0.24097616118E-01  0.62350428755E+00  0.66016836804E+00  0.00000000000E+00 0.  1.
</event>
<event>
 5    1  0.2111786E+001  0.1563172E+01  0.7818608E-02  0.3394332E+00
         11   -1    0    0    0    0  0.00000000000E+00  0.00000000000E+00  0.39999999674E+01  0.40000000000E+01  0.51100000000E-03 0.  1.
    9000002   -1    0    0    0    0 -0.00000000000E+00 -0.00000000000E+00  0.00000000000E+00  0.93800000000E+00  0.93800000000E+00 0.  1.
         11    1    1    2    0    0  0.10339645234E+00 -0.14712780788E+00  0.78812468926E+00  0.80837998810E+00  0.51100000000E-03 0.  1.
    9000002    1    1    2    0    0  0.33662827466E-01 -0.13969961455E-02  0.27675308987E-01  0.93901281156E+00  0.93800000000E+00 0.  1.
         22    1    1    2    0    0 -0.13705927981E+00  0.14852480402E+00  0.31841999691E+01  0.31906072003E+01  0.00000000000E+00 0.  1.
</event>
<event>
 5    1  0.2111786E+001  0.1565104E+01  0.7818608E-02  0.3392131E+00
         11   -1    0    0    0    0  0.00000000000E+00  0.00000000000E+00  0.39999999674E+01  0.40000000000E+01  0.51100000000E-03 0. -1.
    9000002   -1    0    0    0    0 -0.00000000000E+00 -0.00000000000E+00  0.00000000000E+00  0.93800000000E+00  0.93800000000E+00 0.  1.
         11    1    1    2    0    0  0.79672271033E-01  0.35263972436E+00  0.15647618315E+00  0.39393845075E+00  0.51100000000E-03 0. -1.
    9000002    1    1    2    0    0  0.13324631583E+00 -0.47417273087E+00  0.46559109755E+00  0.11572438937E+01  0.93800000000E+00 0.  1.
         22    1    1    2    0    0 -0.21291858686E+00  0.12153300651E+00  0.33779326867E+01  0.33868176555E+01  0.00000000000E+00 0.  1.
</event>
<event>
 5    1  0.2111786E+001  0.1552319E+01  0.7818608E-02  0.3406798E+00
         11   -1    0    0    0    0  0.00000000000E+00  0.00000000000E+00  0.39999999674E+01  0.40000000000E+01  0.51100000000E-03 0. -1.
    9000002   -1    0    0    0    0 -0.00000000000E+00 -0.00000000000E+00  0.00000000000E+00  0.93800000000E+00  0.93800000000E+00 0. -1.
         11    1    1    2    0    0 -0.19892548056E+00 -0.11003593239E+00  0.11218620399E+01  0.11446632478E+01  0.51100000000E-03 0. -1.
    9000002    1    1    2    0    0  0.92979588481E-01 -0.18281274721E+00  0.64293723840E-01  0.96231148146E+00  0.93800000000E+00 0. -1.
         22    1    1    2    0    0  0.10594589208E+00  0.29284867960E+00  0.28138442036E+01  0.28310252707E+01  0.00000000000E+00 0. -1.
</event>
<event>
 5    1  0.2111786E+001  0.1541919E+01  0.7818608E-02  0.3418920E+00
         11   -1    0    0    0    0  0.00000000000E+00  0.00000000000E+00  0.39999999674E+01  0.40000000000E+01  0.51100000000E-03 0.  1.
    9000002   -1    0    0    0    0 -0.00000000000E+00 -0.00000000000E+00  0.00000000000E+00  0.93800000000E+00  0.93800000000E+00 0. -1.
         11    1    1    2    0    0  0.10206084168E+00 -0.33663176241E+00  0.13606224393E+01  0.14053579765E+01  0.51100000000E-03 0.  1.
    9000002    1    1    2    0    0  0.11290109792E+00  0.28187166130E+00  0.10828864995E+00  0.99185115973E+00  0.93800000000E+00 0. -1.
         22    1    1    2    0    0 -0.21496193960E+00  0.54760101112E-01  0.25310888781E+01  0.25407908637E+01  0.00000000000E+00 0.  1.
</event>
<event>
 5    1  0.2111786E+001  0.1597103E+01  0.7818608E-02  0.3356514E+00
         11   -1    0    0    0    0  0.00000000000E+00  0.00000000000E+00  0.39999999674E+01  0.40000000000E+01  0.51100000000E-03 0.  1.
    9000002   -1    0    0    0    0 -0.00000000000E+00 -0.00000000000E+00  0.00000000000E+00  0.93800000000E+00  0.93800000000E+00 0. -1.
         11    1    1    2    0    0  0.45427287240E+00 -0.85452692554E-01  0.20984201074E+01  0.21487282782E+01  0.51100000000E-03 0.  1.
    9000002    1    1    2    0    0 -0.69530516447E+00  0.97965195959E-01  0.35547250639E+00  0.12244391182E+01  0.93800000000E+00 0. -1.
         22    1    1    2    0    0  0.24103229207E+00 -0.12512503404E-01  0.15461073536E+01  0.15648326037E+01  0.00000000000E+00 0.  1.
</event>
<event>
 5    1  0.2111786E+001  0.1558223E+01  0.7818608E-02  0.3399994E+00
         11   -1    0    0    0    0  0.00000000000E+00  0.00000000000E+00  0.39999999674E+01  0.40000000000E+01  0.51100000000E-03 0. -1.
    9000002   -1    0    0    0    0 -0.00000000000E+00 -0.00000000000E+00  0.00000000000E+00  0.93800000000E+00  0.93800000000E+00 0.  1.
         11    1    1    2    0    0  0.16984753733E+00  0.20272682233E+00  0.24811858837E+01  0.24952414714E+01  0.51100000000E-03 0. -1.
    9000002    1    1    2    0    0  0.45720112749E-01 -0.11671000708E+00  0.41419234684E-01  0.94724395351E+00  0.93800000000E+00 0.  1.
         22    1    1    2    0    0 -0.21556765008E+00 -0.86016815257E-01  0.14773948490E+01  0.14955145750E+01  0.00000000000E+00 0. -1.
</event>
<event>
 5    1  0.2111786E+001  0.1570291E+01  0.7818608E-02  0.3386254E+00
         11   -1    0    0    0    0  0.00000000000E+00  0.00000000000E+00  0.39999999674E+01  0.40000000000E+01  0.51100000000E-03 0.  1.
    9000002   -1    0    0    0    0 -0.00000000000E+00 -0.00000000000E+00  0.00000000000E+00  0.93800000000E+00  0.93800000000E+00 0. -1.
         11    1    1    2    0    0  0.73680741767E-01  0.13923945973E+00  0.83623706544E+00  0.85094604388E+00  0.51100000000E-03 0.  1.
    9000002    1    1    2    0    0  0.62779755769E-01  0.24013114025E-01  0.24639683232E-01  0.94072793164E+00  0.93800000000E+00 0. -1.
         22    1    1    2    0    0 -0.13646049754E+00 -0.16325257376E+00  0.31391232187E+01  0.31463260245E+01  0.00000000000E+00 0.  1.
</event>
<event>
 5    1  0.2111786E+001  0.1578128E+01  0.7818608E-02  0.3377450E+00
         11   -1    0    0    0    0  0.00000000000E+00  0.00000000000E+00  0.39999999674E+01  0.40000000000E+01  0.51100000000E-03 0.  1.
    9000002   -1    0    0    0    0 -0.00000000000E+00 -0.00000000000E+00  0.00000000000E+00  0.93800000000E+00  0.93800000000E+00 0. -1.
         11    1    1    2    0    0 -0.86374692044E-01 -0.41078015750E-01  0.37264908869E+00  0.38472794963E+00  0.51100000000E-03 0.  1.
    9000002    1    1    2    0    0 -0.12024541263E+00  0.71414842709E-01  0.28943859368E-01  0.94881019494E+00  0.93800000000E+00 0. -1.
         22    1    1    2    0    0  0.20662010468E+00 -0.30336826958E-01  0.35984070193E+01  0.36044618554E+01  0.00000000000E+00 0.  1.
</event>
<event>
 5    1  0.2111786E+001  0.1558847E+01  0.7818608E-02  0.3399277E+00
         11   -1    0    0    0    0  0.00000000000E+00  0.00000000000E+00  0.39999999674E+01  0.40000000000E+01  0.51100000000E-03 0. -1.
    9000002   -1    0    0    0    0 -0.00000000000E+00 -0.00000000000E+00  0.00000000000E+00  0.93800000000E+00  0.93800000000E+00 0. -1.
         11    1    1    2    0    0  0.38803302953E-01 -0.20060975859E+00  0.21512672321E+01  0.21609490824E+01  0.51100000000E-03 0. -1.
    9000002    1    1    2    0    0 -0.23380712294E+00 -0.45052707583E-01  0.69344737368E-01  0.97023100847E+00  0.93800000000E+00 0. -1.
         22    1    1    2    0    0  0.19500381999E+00  0.24566246618E+00  0.17793879979E+01  0.18068199091E+01  0.00000000000E+00 0.  1.
</event>
<event>
 5    1  0.2111786E+001  0.1562171E+01  0.7818608E-02  0.3395473E+00
         11   -1    0    0    0    0  0.00000000000E+00  0.00000000000E+00  0.39999999674E+01  0.40000000000E+01  0.51100000000E-03 0.  1.
    9000002   -1    0    0    0    0 -0.00000000000E+00 -0.00000000000E+00  0.00000000000E+00  0.93800000000E+00  0.93800000000E+00 0.  1.
         11    1    1    2    0    0 -0.10741944474E+00  0.17162222285E+00  0.13364138624E+01  0.13516639365E+01  0.51100000000E-03 0.  1.
    9000002    1    1    2    0    0  0.80883161985E-01  0.99928063257E-01  0.38964268456E-01  0.94757053454E+00  0.93800000000E+00 0.  1.
         22    1    1    2    0    0  0.26536282751E-01 -0.27155028611E+00  0.26246218365E+01  0.26387655289E+01  0.00000000000E+00 0.  1.
</event>
<event>
 5    1  0.2111786E+001  0.1570544E+01  0.7818608E-02  0.3385968E+00
         11   -1    0    0    0    0  0.00000000000E+00  0.00000000000E+00  0.39999999674E+01  0.40000000000E+01  0.51100000000E-03 0.  1.
    9000002   -1    0    0    0    0 -0.00000000000E+00 -0.00000000000E+00  0.00000000000E+00  0.93800000000E+00  0.93800000000E+00 0. -1.
         11    1    1    2    0    0  0.11285097021E+00 -0.14539096080E+00  0.13100547664E+01  0.13229201129E+01  0.51100000000E-03 0.  1.
    9000002    1    1    2    0    0  0.31995394513E-02 -0.32091677742E-01  0.22094048673E-01  0.93881428399E+00  0.93800000000E+00 0. -1.
         22    1    1    2    0    0 -0.11605050966E+00  0.17748263855E+00  0.26678511523E+01  0.26762656032E+01  0.00000000000E+00 0.  1.
</event>
<event>
 5    1  0.2111786E+001  0.1547199E+01  0.7818608E-02  0.3412744E+00
         11   -1    0    0    0    0  0.00000000000E+00  0.00000000000E+00  0.39999999674E+01  0.40000000000E+01  0.51100000000E-03 0.  1.
    9000002   -1    0    0    0    0 -0.00000000000E+00 -0.00000000000E+00  0.00000000000E+00  0.93800000000E+00  0.93800000000E+00 0. -1.
         11    1    1    2    0    0 -0.15456516934E+00  0.12508486585E+00  0.65909720061E+00  0.68843735823E+00  0.51100000000E-03 0.  1.
    9000002    1    1    2    0    0 -0.80187386769E-01 -0.27587233134E-01  0.43976336672E-01  0.94285152098E+00  0.93800000000E+00 0. -1.
         22    1    1    2    0    0  0.23475255611E+00 -0.97497632715E-01  0.32969264301E+01  0.33067111208E+01  0.00000000000E+00 0.  1.
</event>
<event>
 5    1  0.2111786E+001  0.1501986E+01  0.7818608E-02  0.3467136E+00
         11   -1    0    0    0    0  0.00000000000E+00  0.00000000000E+00  0.39999999674E+01  0.40000000000E+01  0.51100000000E-03 0.  1.
    9000002   -1    0    0    0    0 -0.00000000000E+00 -0.00000000000E+00  0.00000000000E+00  0.93800000000E+00  0.93800000000E+00 0.  1.
         11    1    1    2    0    0  0.24847657192E+00 -0.41036012430E+00  0.24932625083E+01  0.25389947292E+01  0.51100000000E-03 0.  1.
    9000002    1    1    2    0    0 -0.28167780184E+00  0.87854755486E-01  0.13866591753E+00  0.99304233485E+00  0.93800000000E+00 0.  1.
         22    1    1    2    0    0  0.33201229923E-01  0.32250536882E+00  0.13680715415E+01  0.14059629360E+01  0.00000000000E+00 0.  1.
</event>
<event>
 5    1  0.2111786E+001  0.1556490E+01  0.7818608E-02  0.3401985E+00
         11   -1    0    0    0    0  0.00000000000E+00  0.00000000000E+00  0.39999999674E+01  0.40000000000E+01  0.51100000000E-03 0. -1.
    9000002   -1    0    0    0    0 -0.00000000000E+00 -0.00000000000E+00  0.00000000000E+00  0.93800000000E+00  0.93800000000E+00 0.  1.
         11    1    1    2    0    0 -0.19595491113E+00  0.13405828811E+00  0.29177392899E+01  0.29273832644E+01  0.51100000000E-03 0. -1.
    9000002    1    1    2    0    0 -0.96047220889E-02 -0.63803838917E-01  0.34792867434E-01  0.94086009809E+00  0.93800000000E+00 0.  1.
         22    1    1    2    0    0  0.20555963322E+00 -0.70254449194E-01  0.10474678101E+01  0.10697566375E+01  0.00000000000E+00 0. -1.
</event>
<event>
 5    1  0.2111786E+001  0.1560066E+01  0.7818608E-02  0.3397881E+00
         11   -1    0    0    0    0  0.00000000000E+00  0.00000000000E+00  0.39999999674E+01  0.40000000000E+01  0.51100000000E-03 0.  1.
    9000002   -1    0    0    0    0 -0.00000000000E+00 -0.00000000000E+00  0.00000000000E+00  0.93800000000E+00  0.93800000000E+00 0. -1.
         11    1    1    2    0    0 -0.11651981180E+00 -0.25108623243E+00  0.19882155694E+01  0.20073919832E+01  0.51100000000E-03 0.  1.
    9000002    1    1    2    0    0  0.57798035079E-01  0.56156772499E-01  0.33682628616E-01  0.94205770281E+00  0.93800000000E+00 0. -1.
         22    1    1    2    0    0  0.58721776725E-01  0.19492945993E+00  0.19781017693E+01  0.19885503140E+01  0.00000000000E+00 0. -1.
</event>
<event>
 5    1  0.2111786E+001  0.1525959E+01  0.7818608E-02  0.3437866E+00
         11   -1    0    0    0    0  0.00000000000E+00  0.00000000000E+00  0.39999999674E+01  0.40000000000E+01  0.51100000000E-03 0. -1.
    9000002   -1    0    0    0    0 -0.00000000000E+00 -0.00000000000E+00  0.00000000000E+00  0.93800000000E+00  0.93800000000E+00 0.  1.
         11    1    1    2    0    0 -0.26215682211E+00  0.14637568468E+00  0.16740208678E+01  0.17007345964E+01  0.51100000000E-03 0. -1.
    9000002    1    1    2    0    0 -0.84454182790E-01 -0.51430657415E-01  0.62317791576E-01  0.94525400219E+00  0.93800000000E+00 0.  1.
         22    1    1    2    0    0  0.34661100490E+00 -0.94945027266E-01  0.22636613080E+01  0.22920114014E+01  0.00000000000E+00 0. -1.
</event>
<event>
 5    1  0.2111786E+001  0.1586446E+01  0.7818608E-02  0.3368207E+00
         11   -1    0    0    0    0  0.00000000000E+00  0.00000000000E+00  0.39999999674E+01  0.40000000000E+01  0.51100000000E-03 0. -1.
    9000002   -1    0    0    0    0 -0.00000000000E+00 -0.00000000000E+00  0.00000000000E+00  0.93800000000E+00  0.93800000000E+00 0.  1.
         11    1    1    2    0    0  0.19824777511E+00  0.46142037173E-01  0.10037801007E+01  0.10242099490E+01  0.51100000000E-03 0. -1.
    9000002    1    1    2    0    0 -0.30827367056E+00 -0.29282803358E+00  0.13364736142E+00  0.10385020609E+01  0.93800000000E+00 0.  1.
         22    1    1    2    0    0  0.11002589545E+00  0.24668599640E+00  0.28625725052E+01  0.28752879901E+01  0.00000000000E+00 0.  1.
</event>
<event>
 5    1  0.2111786E+001  0.1586730E+01  0.7818608E-02  0.3367893E+00
         11   -1    0    0    0    0  0.00000000000E+00  0.00000000000E+00  0.39999999674E+01  0.40000000000E+01  0.51100000000E-03 0.  1.
    9000002   -1    0    0    0    0 -0.00000000000E+00 -0.00000000000E+00  0.00000000000E+00  0.93800000000E+00  0.93800000000E+00 0. -1.
         11    1    1    2    0    0 -0.21658430793E+00  0.12939132143E-01  0.21495467324E+01  0.21604693008E+01  0.51100000000E-03 0.  1.
    9000002    1    1    2    0    0  0.36098929992E+00  0.22019678205E+00  0.13200411071E+00  0.10373374488E+01  0.93800000000E+00 0. -1.
         22    1    1    2    0    0 -0.14440499199E+00 -0.23313591420E+00  0.17184491242E+01  0.17401932504E+01  0.00000000000E+00 0.  1.
</event>
<event>
 5    1  0.2111786E+001  0.1506758E+01  0.7818608E-02  0.3461229E+00
         11   -1    0    0    0    0  0.00000000000E+00  0.00000000000E+00  0.39999999674E+01  0.40000000000E+01  0.51100000000E-03 0.  1.
    9000002   -1    0    0    0    0 -0.00000000000E+00 -0.00000000000E+00  0.00000000000E+00  0.93800000000E+00  0.93800000000E+00 0.  1.
         11    1    1    2    0    0  0.57894282392E-02  0.33820857210E+00  0.10917614348E+01  0.11429618749E+01  0.51100000000E-03 0.  1.
    9000002    1    1    2    0    0  0.17021276461E+00 -0.42673401566E-01  0.92922539556E-01  0.95878673478E+00  0.93800000000E+00 0.  1.
         22    1    1    2    0    0 -0.17600219285E+00 -0.29553517053E+00  0.28153159930E+01  0.28362513904E+01  0.00000000000E+00 0.  1.
</event>
<event>
 5    1  0.2111786E+001  0.1514912E+01  0.7818608E-02  0.3451230E+00
         11   -1    0    0    0    0  0.00000000000E+00  0.00000000000E+00  0.39999999674E+01  0.40000000000E+01  0.51100000000E-03 0.  1.
    9000002   -1    0    0    0    0 -0.00000000000E+00 -0.00000000000E+00  0.00000000000E+00  0.93800000000E+00  0.93800000000E+00 0. -1.
         11    1    1    2    0    0 -0.38782681225E+00  0.23511347493E+00  0.71903178035E+00  0.85011466560E+00  0.51100000000E-03 0.  1.
    9000002    1    1    2    0    0  0.62741474926E+00 -0.39659943695E+00  0.50742323813E+00  0.12993316450E+01  0.93800000000E+00 0. -1.
         22    1    1    2    0    0 -0.23958793701E+00  0.16148596202E+00  0.27735449489E+01  0.27885536894E+01  0.00000000000E+00 0.  1.
</event>
<event>
 5    1  0.2111786E+001  0.1596586E+01  0.7818608E-02  0.3357077E+00
         11   -1    0    0    0    0  0.00000000000E+00  0.00000000000E+00  0.39999999674E+01  0.40000000000E+01  0.51100000000E-03 0.  1.
    9000002   -1    0    0    0    0 -0.00000000000E+00 -0.00000000000E+00  0.00000000000E+00  0.93800000000E+00  0.93800000000E+00 0.  1.
         11    1    1    2    0    0 -0.45666614411E+00  0.68042029817E-02  0.26028642839E+01  0.26426299412E+01  0.51100000000E-03 0.  1.
    9000002    1    1    2    0    0  0.69943513911E+00 -0.70477759529E-01  0.35694445177E+00  0.12253285152E+01  0.93800000000E+00 0.  1.
         22    1    1    2    0    0 -0.24276899500E+00  0.63673556547E-01  0.10401912317E+01  0.10700415437E+01  0.00000000000E+00 0. -1.
</event>
<event>
 5    1  0.2111786E+001  0.1580682E+01  0.7818608E-02  0.3374601E+00
         11   -1    0    0    0    0  0.00000000000E+00  0.00000000000E+00  0.39999999674E+01  0.40000000000E+01  0.51100000000E-03 0.  1.
    9000002   -1    0    0    0    0 -0.00000000000E+00 -0.00000000000E+00  0.00000000000E+00  0.93800000000E+00  0.93800000000E+00 0. -1.
         11    1    1    2    0    0 -0.11564406013E-01 -0.13704972642E+00  0.17768329182E+01  0.17821480980E+01  0.51100000000E-03 0.  1.
    9000002    1    1    2    0    0 -0.43031298934E-01 -0.55864096757E-01  0.17211598797E-01  0.94080429906E+00  0.93800000000E+00 0. -1.
         22    1    1    2    0    0  0.54595704946E-01  0.19291382317E+00  0.22059554504E+01  0.22150476029E+01  0.00000000000E+00 0.  1.
</event>
<event>
 5    1  0.2111786E+001  0.1450011E+01  0.7818608E-02  0.3534190E+00
         11   -1    0    0    0    0  0.00000000000E+00  0.00000000000E+00  0.39999999674E+01  0.40000000000E+01  0.51100000000E-03 0.  1.
    9000002   -1    0    0    0    0 -0.00000000000E+00 -0.00000000000E+00  0.00000000000E+00  0.93800000000E+00  0.93800000000E+00 0.  1.
         11    1    1    2    0    0 -0.21005226244E+00 -0.48379933391E+00  0.12397053349E+01  0.13472391499E+01  0.51100000000E-03 0.  1.
    9000002    1    1    2    0    0  0.56544730520E-01  0.26707546689E+00  0.17574416248E+00  0.99260093805E+00  0.93800000000E+00 0.  1.
         22    1    1    2    0    0  0.15350753192E+00  0.21672386701E+00  0.25845504700E+01  0.25981599121E+01  0.00000000000E+00 0.  1.
</event>
<event>
 5    1  0.2111786E+001  0.1507976E+01  0.7818608E-02  0.3459728E+00
         11   -1    0    0    0    0  0.00000000000E+00  0.00000000000E+00  0.39999999674E+01  0.40000000000E+01  0.51100000000E-03 0.  1.
    9000002   -1    0    0    0    0 -0.00000000000E+00 -0.00000000000E+00  0.00000000000E+00  0.93800000000E+00  0.93800000000E+00 0. -1.
         11    1    1    2    0    0 -0.27785285114E+00 -0.35504242324E-02  0.77538237477E+00  0.82367038348E+00  0.51100000000E-03 0.  1.
    9000002    1    1    2    0    0 -0.57413899107E-01  0.25772708020E+00  0.12055528438E+00  0.98188450455E+00  0.93800000000E+00 0. -1.
         22    1    1    2    0    0  0.33526675024E+00 -0.25417665597E+00  0.31040623082E+01  0.31324451120E+01  0.00000000000E+00 0.  1.
</event>
<event>
 5    1  0.2111786E+001  0.1546266E+01  0.7818608E-02  0.3413832E+00
         11   -1    0    0    0    0  0.00000000000E+00  0.00000000000E+00  0.39999999674E+01  0.40000000000E+01  0.51100000000E-03 0. -1.
    9000002   -1    0    0    0    0 -0.00000000000E+00 -0.00000000000E+00  0.00000000000E+00  0.93800000000E+00  0.93800000000E+00 0.  1.
         11    1    1    2    0    0 -0.28896849609E+00  0.19952920285E+00  0.19651501889E+01  0.19962790938E+01  0.51100000000E-03 0. -1.
    9000002    1    1    2    0    0  0.59130643036E-01 -0.19794213706E+00  0.69515332212E-01  0.96299216195E+00  0.93800000000E+00 0.  1.
         22    1    1    2    0    0  0.22983785305E+00 -0.15870657948E-02  0.19653344463E+01  0.19787287442E+01  0.00000000000E+00 0.  1.
</event>
<event>
 5    1  0.2111786E+001  0.1593499E+01  0.7818608E-02  0.3360450E+00
         11   -1    0    0    0    0  0.00000000000E+00  0.00000000000E+00  0.39999999674E+01  0.40000000000E+01  0.51100000000E-03 0. -1.
    9000002   -1    0    0    0    0 -0.00000000000E+00 -0.00000000000E+00  0.00000000000E+00  0.93800000000E+00  0.93800000000E+00 0. -1.
         11    1    1    2    0    0 -0.10710196158E-01 -0.92883212187E-01  0.17325358424E+01  0.17350569748E+01  0.51100000000E-03 0. -1.
    9000002    1    1    2    0    0 -0.18465564050E+00  0.16504410632E+00  0.45470098008E-01  0.97120996309E+00  0.93800000000E+00 0. -1.
         22    1    1    2    0    0  0.19536583666E+00 -0.72160894135E-01  0.22219940270E+01  0.22317330622E+01  0.00000000000E+00 0. -1.
</event>
<event>
 5    1  0.2111786E+001  0.1420305E+01  0.7818608E-02  0.3574920E+00
         11   -1    0    0    0    0  0.00000000000E+00  0.00000000000E+00  0.39999999674E+01  0.40000000000E+01  0.51100000000E-03 0.  1.
    9000002   -1    0    0    0    0 -0.00000000000E+00 -0.00000000000E+00  0.00000000000E+00  0.93800000000E+00  0.93800000000E+00 0.  1.
         11    1    1    2    0    0 -0.60863690770E+00 -0.36170556946E+00  0.31454334102E+01  0.32241311083E+01  0.51100000000E-03 0.  1.
    9000002    1    1    2    0    0  0.37871832248E+00  0.14928933695E+00  0.28098052895E+00  0.10604286546E+01  0.93800000000E+00 0.  1.
         22    1    1    2    0    0  0.22991858523E+00  0.21241623251E+00  0.57358602820E+00  0.65344023707E+00  0.00000000000E+00 0.  1.
</event>
<event>
 5    1  0.2111786E+001  0.1571349E+01  0.7818608E-02  0.3385060E+00
         11   -1    0    0    0    0  0.00000000000E+00  0.00000000000E+00  0.39999999674E+01  0.40000000000E+01  0.51100000000E-03 0. -1.
    9000002   -1    0    0    0    0 -0.00000000000E+00 -0.00000000000E+00  0.00000000000E+00  0.93800000000E+00  0.93800000000E+00 0. -1.
         11    1    1    2    0    0  0.19118648875E+00 -0.38764875861E-01  0.15268034375E+01  0.15392153803E+01  0.51100000000E-03 0. -1.
    9000002    1    1    2    0    0 -0.17419439486E-01 -0.79226934472E-01  0.25245934658E-01  0.94183953051E+00  0.93800000000E+00 0. -1.
         22    1    1    2    0    0 -0.17376704927E+00  0.11799181033E+00  0.24479505952E+01  0.24569450892E+01  0.00000000000E+00 0. -1.
</event>
<event>
 5    1  0.2111786E+001  0.1559476E+01  0.7818608E-02  0.3398556E+00
         11   -1    0    0    0    0  0.00000000000E+00  0.00000000000E+00  0.39999999674E+01  0.40000000000E+01  0.51100000000E-03 0. -1.
    9000002   -1    0    0    0    0 -0.00000000000E+00 -0.00000000000E+00  0.00000000000E+00  0.93800000000E+00  0.93800000000E+00 0.  1.
         11    1    1    2    0    0  0.20236619652E+00 -0.15207891377E+00  0.16323876765E+01  0.16518988652E+01  0.51100000000E-03 0. -1.
    9000002    1    1    2    0    0 -0.58358491157E-01 -0.11697896694E-01  0.32105886096E-01  0.94043465600E+00  0.93800000000E+00 0.  1.
         22    1    1    2    0    0 -0.14400770536E+00  0.16377681046E+00  0.23355064048E+01  0.23456664788E+01  0.00000000000E+00 0.  1.
</event>
<event>
 5    1  0.2111786E+001  0.1428029E+01  0.7818608E-02  0.3564151E+00
         11   -1    0    0    0    0  0.00000000000E+00  0.00000000000E+00  0.39999999674E+01  0.40000000000E+01  0.51100000000E-03 0. -1.
    9000002   -1    0    0    0    0 -0.00000000000E+00 -0.00000000000E+00  0.00000000000E+00  0.93800000000E+00  0.93800000000E+00 0.  1.
         11    1    1    2    0    0  0.48583437884E+00 -0.20773490640E+00  0.30337050755E+01  0.30793758428E+01  0.51100000000E-03 0. -1.
    9000002    1    1    2    0    0 -0.24172851739E+00 -0.92499774721E-01  0.19027555571E+00  0.99148256240E+00  0.93800000000E+00 0.  1.
         22    1    1    2    0    0 -0.24410586144E+00  0.30023468112E+00  0.77601933611E+00  0.86714159476E+00  0.00000000000E+00 0. -1.
</event>
<event>
 5    1  0.2111786E+001  0.1575893E+01  0.7818608E-02  0.3379951E+00
         11   -1    0    0    0    0  0.00000000000E+00  0.00000000000E+00  0.39999999674E+01  0.40000000000E+01  0.51100000000E-03 0. -1.
    9000002   -1    0    0    0    0 -0.00000000000E+00 -0.00000000000E+00  0.00000000000E+00  0.93800000000E+00  0.93800000000E+00 0.  1.
         11    1    1    2    0    0 -0.27906521935E+00  0.29040278931E+00  0.17554286673E+01  0.18010389346E+01  0.51100000000E-03 0. -1.
    9000002    1    1    2    0    0  0.21391590886E+00 -0.51558716649E+00  0.23855274530E+00  0.11172920633E+01  0.93800000000E+00 0.  1.
         22    1    1    2    0    0  0.65149310483E-01  0.22518437718E+00  0.20060185547E+01  0.20196690021E+01  0.00000000000E+00 0. -1.
</event>
<event>
 5    1  0.2111786E+001  0.1587194E+01  0.7818608E-02  0.3367381E+00
         11   -1    0    0    0    0  0.00000000000E+00  0.00000000000E+00  0.39999999674E+01  0.40000000000E+01  0.51100000000E-03 0.  1.
    9000002   -1    0    0    0    0 -0.00000000000E+00 -0.00000000000E+00  0.00000000000E+00  0.93800000000E+00  0.93800000000E+00 0.  1.
         11    1    1    2    0    0  0.62122917189E-01  0.17485465039E+00  0.10930119447E+01  0.11086517839E+01  0.51100000000E-03 0.  1.
    9000002    1    1    2    0    0 -0.27156923200E+00 -0.19584263235E+00  0.85072315076E-01  0.99959265864E+00  0.93800000000E+00 0.  1.
         22    1    1    2    0    0  0.20944631481E+00  0.20987981957E-01  0.28219157076E+01  0.28297555575E+01  0.00000000000E+00 0.  1.
</event>
<event>
 5    1  0.2111786E+001  0.1483381E+01  0.7818608E-02  0.3490553E+00
         11   -1    0    0    0    0  0.00000000000E+00  0.00000000000E+00  0.39999999674E+01  0.40000000000E+01  0.51100000000E-03 0.  1.
    9000002   -1    0    0    0    0 -0.00000000000E+00 -0.00000000000E+00  0.00000000000E+00  0.93800000000E+00  0.93800000000E+00 0. -1.
         11    1    1    2    0    0  0.40308394680E+00  0.22375681543E+00  0.35555498059E+01  0.35853142769E+01  0.51100000000E-03 0.  1.
    9000002    1    1    2    0    0 -0.19610803997E+00 -0.25538790676E+00  0.16794152597E+00  0.10058477531E+01  0.93800000000E+00 0. -1.
         22    1    1    2    0    0 -0.20697590684E+00  0.31631091337E-01  0.27650863545E+00  0.34683796999E+00  0.00000000000E+00 0. -1.
</event>
<event>
 5    1  0.2111786E+001  0.1560295E+01  0.7818608E-02  0.3397618E+00
         11   -1    0    0    0    0  0.00000000000E+00  0.00000000000E+00  0.39999999674E+01  0.40000000000E+01  0.51100000000E-03 0. -1.
    9000002   -1    0    0    0    0 -0.00000000000E+00 -0.00000000000E+00  0.00000000000E+00  0.93800000000E+00  0.93800000000E+00 0. -1.
         11    1    1    2    0    0 -0.14612886110E+00 -0.12752608741E+00  0.95649647743E+00  0.97596225310E+00  0.51100000000E-03 0. -1.
    9000002    1    1    2    0    0 -0.20224255805E-01 -0.43813683126E-01  0.30656138086E-01  0.93974063345E+00  0.93800000000E+00 0. -1.
         22    1    1    2    0    0  0.16635311691E+00  0.17133977054E+00  0.30128473518E+01  0.30222971135E+01  0.00000000000E+00 0. -1.
</event>
<event>
 5    1  0.2111786E+001  0.1539337E+01  0.7818608E-02  0.3421957E+00
         11   -1    0    0    0    0  0.00000000000E+00  0.00000000000E+00  0.39999999674E+01  0.40000000000E+01  0.51100000000E-03 0. -1.
    9000002   -1    0    0    0    0 -0.00000000000E+00 -0.00000000000E+00  0.00000000000E+00  0.93800000000E+00  0.93800000000E+00 0.  1.
         11    1    1    2    0    0  0.12539614311E+00  0.23452059475E+00  0.15803414072E+01  0.16025614892E+01  0.51100000000E-03 0. -1.
    9000002    1    1    2    0    0  0.23467847716E+00 -0.11314362697E+00  0.92983668277E-01  0.97793937978E+00  0.93800000000E+00 0.  1.
         22    1    1    2    0    0 -0.36007462027E+00 -0.12137696777E+00  0.23266748919E+01  0.23574991310E+01  0.00000000000E+00 0. -1.
</event>
<event>
 5    1  0.2111786E+001  0.1572592E+01  0.7818608E-02  0.3383659E+00
         11   -1    0    0    0    0  0.00000000000E+00  0.00000000000E+00  0.39999999674E+01  0.40000000000E+01  0.51100000000E-03 0.  1.
    9000002   -1    0    0    0    0 -0.00000000000E+00 -0.00000000000E+00  0.00000000000E+00  0.93800000000E+00  0.93800000000E+00 0. -1.
         11    1    1    2    0    0 -0.19871222504E-01 -0.13648928988E+00  0.69398978309E+00  0.70756361685E+00  0.51100000000E-03 0.  1.
    9000002    1    1    2    0    0  0.39711540917E-01 -0.78051988438E-01  0.25052792608E-01  0.94241220376E+00  0.93800000000E+00 0. -1.
         22    1    1    2    0    0 -0.19840318414E-01  0.21454127832E+00  0.32809573917E+01  0.32880241794E+01  0.00000000000E+00 0.  1.
</event>
<event>
 5    1  0.2111786E+001  0.1574107E+01  0.7818608E-02  0.3381955E+00
         11   -1    0    0    0    0  0.00000000000E+00  0.00000000000E+00  0.39999999674E+01  0.40000000000E+01  0.51100000000E-03 0. -1.
    9000002   -1    0    0    0    0 -0.00000000000E+00 -0.00000000000E+00  0.00000000000E+00  0.93800000000E+00  0.93800000000E+00 0. -1.
         11    1    1    2    0    0 -0.16146058236E+00 -0.40289299361E-01  0.92356725434E+00  0.93843991908E+00  0.51100000000E-03 0. -1.
    9000002    1    1    2    0    0  0.62448057666E-02  0.31495059987E+00  0.86750979177E-01  0.99327871735E+00  0.93800000000E+00 0. -1.
         22    1    1    2    0    0  0.15521577659E+00 -0.27466130051E+00  0.29896817338E+01  0.30062813636E+01  0.00000000000E+00 0. -1.
</event>
<event>
 5    1  0.2111786E+001  0.1419615E+01  0.7818608E-02  0.3575945E+00
         11   -1    0    0    0    0  0.00000000000E+00  0.00000000000E+00  0.39999999674E+01  0.40000000000E+01  0.51100000000E-03 0. -1.
    9000002   -1    0    0    0    0 -0.00000000000E+00 -0.00000000000E+00  0.00000000000E+00  0.93800000000E+00  0.93800000000E+00 0.  1.
         11    1    1    2    0    0  0.42671832739E-01 -0.67437865782E+00  0.15840372631E+01  0.17221445269E+01  0.51100000000E-03 0. -1.
    9000002    1    1    2    0    0 -0.65119171078E-01  0.38785457921E+00  0.27218827943E+00  0.10529017715E+01  0.93800000000E+00 0.  1.
         22    1    1    2    0    0  0.22447338339E-01  0.28652407861E+00  0.21437744249E+01  0.21629537016E+01  0.00000000000E+00 0. -1.
</event>
<event>
 5    1  0.2111786E+001  0.1575801E+01  0.7818608E-02  0.3380055E+00
         11   -1    0    0    0    0  0.00000000000E+00  0.00000000000E+00  0.39999999674E+01  0.40000000000E+01  0.51100000000E-03 0.  1.
    9000002   -1    0    0    0    0 -0.00000000000E+00 -0.00000000000E+00  0.00000000000E+00  0.93800000000E+00  0.93800000000E+00 0.  1.
         11    1    1    2    0    0 -0.14526602563E+00 -0.39324071380E-02  0.94694175458E+00  0.95802746815E+00  0.51100000000E-03 0.  1.
    9000002    1    1    2    0    0 -0.55325811221E-01 -0.34146834187E-03  0.19547125784E-01  0.93983357682E+00  0.93800000000E+00 0.  1.
         22    1    1    2    0    0  0.20059183685E+00  0.42738754799E-02  0.30335110870E+01  0.30401389550E+01  0.00000000000E+00 0.  1.
</event>
<event>
 5    1  0.2111786E+001  0.1544468E+01  0.7818608E-02  0.3415932E+00
         11   -1    0    0    0    0  0.00000000000E+00  0.00000000000E+00  0.39999999674E+01  0.40000000000E+01  0.51100000000E-03 0.  1.
    9000002   -1    0    0    0    0 -0.00000000000E+00 -0.00000000000E+00  0.00000000000E+00  0.93800000000E+00  0.93800000000E+00 0.  1.
         11    1    1    2    0    0 -0.22496030408E+00  0.54097609986E-01  0.27682614194E+01  0.27779138283E+01  0.51100000000E-03 0.  1.
    9000002    1    1    2    0    0 -0.19911550915E-01  0.68715834562E-01  0.44633586148E-01  0.94178261440E+00  0.93800000000E+00 0.  1.
         22    1    1    2    0    0  0.24487185499E+00 -0.12281344455E+00  0.11871049618E+01  0.12183035573E+01  0.00000000000E+00 0.  1.
</event>
<event>
 5    1  0.2111786E+001  0.1571020E+01  0.7818608E-02  0.3385431E+00
         11   -1    0    0    0    0  0.00000000000E+00  0.00000000000E+00  0.39999999674E+01  0.40000000000E+01  0.51100000000E-03 0.  1.
    9000002   -1    0    0    0    0 -0.00000000000E+00 -0.00000000000E+00  0.00000000000E+00  0.93800000000E+00  0.93800000000E+00 0.  1.
         11    1    1    2    0    0 -0.10907800384E+00 -0.11761707607E+00  0.19273012779E+01  0.19339654248E+01  0.51100000000E-03 0.  1.
    9000002    1    1    2    0    0  0.26872521667E-01 -0.12758301124E+00  0.32568195046E-01  0.94757809415E+00  0.93800000000E+00 0.  1.
         22    1    1    2    0    0  0.82205482172E-01  0.24520008732E+00  0.20401304944E+01  0.20564564810E+01  0.00000000000E+00 0. -1.
</event>
<event>
 5    1  0.2111786E+001  0.1577658E+01  0.7818608E-02  0.3377975E+00
         11   -1    0    0    0    0  0.00000000000E+00  0.00000000000E+00  0.39999999674E+01  0.40000000000E+01  0.51100000000E-03 0. -1.
    9000002   -1    0    0    0    0 -0.00000000000E+00 -0.00000000000E+00  0.00000000000E+00  0.93800000000E+00  0.93800000000E+00 0. -1.
         11    1    1    2    0    0  0.58969022437E-01 -0.20241094339E+00  0.16469676767E+01  0.16604066745E+01  0.51100000000E-03 0. -1.
    9000002    1    1    2    0    0 -0.23690704731E+00  0.73885682734E-01  0.57910177010E-01  0.97199878178E+00  0.93800000000E+00 0. -1.
         22    1    1    2    0    0  0.17793802488E+00  0.12852526066E+00  0.22951221136E+01  0.23055945437E+01  0.00000000000E+00 0.  1.
</event>
<event>
 5    1  0.2111786E+001  0.1473894E+01  0.7818608E-02  0.3502741E+00
         11   -1    0    0    0    0  0.00000000000E+00  0.00000000000E+00  0.39999999674E+01  0.40000000000E+01  0.51100000000E-03 0. -1.
    9000002   -1    0    0    0    0 -0.00000000000E+00 -0.00000000000E+00  0.00000000000E+00  0.93800000000E+00  0.93800000000E+00 0. -1.
         11    1    1    2    0    0  0.15805965012E+00 -0.85422302157E-01  0.27234552854E+01  0.27293751621E+01  0.51100000000E-03 0. -1.
    9000002    1    1    2    0    0  0.32752434947E+00  0.10301781270E+00  0.18779007549E+00  0.10163631151E+01  0.93800000000E+00 0. -1.
         22    1    1    2    0    0 -0.48558399959E+00 -0.17595510539E-01  0.10887546064E+01  0.11922617228E+01  0.00000000000E+00 0.  1.
</event>
<event>
 5    1  0.2111786E+001  0.1517264E+01  0.7818608E-02  0.3448368E+00
         11   -1    0    0    0    0  0.00000000000E+00  0.00000000000E+00  0.39999999674E+01  0.40000000000E+01  0.51100000000E-03 0.  1.
    9000002   -1    0    0    0    0 -0.00000000000E+00 -0.00000000000E+00  0.00000000000E+00  0.93800000000E+00  0.93800000000E+00 0. -1.
         11    1    1    2    0    0  0.28106565732E+00  0.15715212852E+00  0.23051818891E+00  0.39602221120E+00  0.51100000000E-03 0.  1.
    9000002    1    1    2    0    0 -0.76544442514E-01 -0.19641067703E+00  0.21981119203E+00  0.98620340999E+00  0.93800000000E+00 0. -1.
         22    1    1    2    0    0 -0.20452121481E+00  0.39258548512E-01  0.35496705864E+01  0.35557743788E+01  0.00000000000E+00 0.  1.
</event>
<event>
 5    1  0.2111786E+001  0.1570879E+01  0.7818608E-02  0.3385590E+00
         11   -1    0    0    0    0  0.00000000000E+00  0.00000000000E+00  0.39999999674E+01  0.40000000000E+01  0.51100000000E-03 0.  1.
    9000002   -1    0    0    0    0 -0.00000000000E+00 -0.00000000000E+00  0.00000000000E+00  0.93800000000E+00  0.93800000000E+00 0. -1.
         11    1    1    2    0    0  0.36735035609E-01  0.13556554219E+00  0.63452099885E+00  0.64988047991E+00  0.51100000000E-03 0.  1.
    9000002    1    1    2    0    0  0.92948029149E-02  0.59598665997E-01  0.23603559061E-01  0.94023375942E+00  0.93800000000E+00 0. -1.
         22    1    1    2    0    0 -0.46029838524E-01 -0.19516420819E+00  0.33418754095E+01  0.33478857607E+01  0.00000000000E+00 0.  1.
</event>
<event>
 5    1  0.2111786E+001  0.1578970E+01  0.7818608E-02  0.3376510E+00
         11   -1    0    0    0    0  0.00000000000E+00  0.00000000000E+00  0.39999999674E+01  0.40000000000E+01  0.51100000000E-03 0.  1.
    9000002   -1    0    0    0    0 -0.00000000000E+00 -0.00000000000E+00  0.00000000000E+00  0.93800000000E+00  0.93800000000E+00 0. -1.
         11    1    1    2    0    0  0.63765347829E-01  0.86749824117E-01  0.28678673247E+00  0.30633060998E+00  0.51100000000E-03 0.  1.
    9000002    1    1    2    0    0 -0.27722714760E+00 -0.81129438674E-01  0.71898301944E-01  0.98409869577E+00  0.93800000000E+00 0. -1.
         22    1    1    2    0    0  0.21346179977E+00 -0.56203854426E-02  0.36413149329E+01  0.36475706943E+01  0.00000000000E+00 0.  1.
</event>
<event>
 5    1  0.2111786E+001  0.1567405E+01  0.7818608E-02  0.3389519E+00
         11   -1    0    0    0    0  0.00000000000E+00  0.00000000000E+00  0.39999999674E+01  0.40000000000E+01  0.51100000000E-03 0.  1.
    9000002   -1    0    0    0    0 -0.00000000000E+00 -0.00000000000E+00  0.00000000000E+00  0.93800000000E+00  0.93800000000E+00 0. -1.
         11    1    1    2    0    0  0.16806532187E+00  0.12837790280E-01  0.10199018291E+01  0.10337363123E+01  0.51100000000E-03 0.  1.
    9000002    1    1    2    0    0  0.70949121969E-01  0.75081612802E-01  0.30989936621E-01  0.94417975124E+00  0.93800000000E+00 0. -1.
         22    1    1    2    0    0 -0.23901444384E+00 -0.87919403082E-01  0.29491082016E+01  0.29600839364E+01  0.00000000000E+00 0.  1.
</event>
<event>
 5    1  0.2111786E+001  0.1535026E+01  0.7818608E-02  0.3427051E+00
         11   -1    0    0    0    0  0.00000000000E+00  0.00000000000E+00  0.39999999674E+01  0.40000000000E+01  0.51100000000E-03 0.  1.
    9000002   -1    0    0    0    0 -0.00000000000E+00 -0.00000000000E+00  0.00000000000E+00  0.93800000000E+00  0.93800000000E+00 0.  1.
         11    1    1    2    0    0  0.29955326548E+00  0.42586707237E+00  0.64424493739E+00  0.82833973867E+00  0.51100000000E-03 0.  1.
    9000002    1    1    2    0    0 -0.16861563077E+00 -0.23964943650E+00  0.27493221999E+00  0.10204385376E+01  0.93800000000E+00 0.  1.
         22    1    1    2    0    0 -0.13093763472E+00 -0.18621763587E+00  0.30808228100E+01  0.30892217238E+01  0.00000000000E+00 0.  1.
</event>
<event>
 5    1  0.2111786E+001  0.1543501E+01  0.7818608E-02  0.3417065E+00
         11   -1    0    0    0    0  0.00000000000E+00  0.00000000000E+00  0.39999999674E+01  0.40000000000E+01  0.51100000000E-03 0.  1.
    9000002   -1    0    0    0    0 -0.00000000000E+00 -0.00000000000E+00  0.00000000000E+00  0.93800000000E+00  0.93800000000E+00 0. -1.
         11    1    1    2    0    0 -0.28539637970E+00 -0.12232301745E+00  0.21307793581E+01  0.21532846881E+01  0.51100000000E-03 0.  1.
    9000002    1    1    2    0    0  0.42881943273E-01  0.23363784146E-01  0.43474004874E-01  0.94027587259E+00  0.93800000000E+00 0. -1.
         22    1    1    2    0    0  0.24251443642E+00  0.98959233303E-01  0.18257466044E+01  0.18444394393E+01  0.00000000000E+00 0. -1.
</event>
<event>
 5    1  0.2111786E+001  0.1532235E+01  0.7818608E-02  0.3430366E+00
         11   -1    0    0    0    0  0.00000000000E+00  0.00000000000E+00  0.39999999674E+01  0.40000000000E+01  0.51100000000E-03 0. -1.
    9000002   -1    0    0    0    0 -0.00000000000E+00 -0.00000000000E+00  0.00000000000E+00  0.93800000000E+00  0.93800000000E+00 0. -1.
         11    1    1    2    0    0 -0.37514360616E+00  0.45810586520E-01  0.31428415602E+01  0.31654833230E+01  0.51100000000E-03 0. -1.
    9000002    1    1    2    0    0  0.34735739181E+00  0.21823160738E+00  0.17253814019E+00  0.10382175119E+01  0.93800000000E+00 0. -1.
         22    1    1    2    0    0  0.27786214351E-01 -0.26404219390E+00  0.68462026702E+00  0.73429916511E+00  0.00000000000E+00 0.  1.
</event>
<event>
 5    1  0.2111786E+001  0.1579019E+01  0.7818608E-02  0.3376455E+00
         11   -1    0    0    0    0  0.00000000000E+00  0.00000000000E+00  0.39999999674E+01  0.40000000000E+01  0.51100000000E-03 0.  1.
    9000002   -1    0    0    0    0 -0.00000000000E+00 -0.00000000000E+00  0.00000000000E+00  0.93800000000E+00  0.93800000000E+00 0.  1.
         11    1    1    2    0    0  0.12819378520E+00 -0.37544343342E-01  0.98170268015E+00  0.99074902857E+00  0.51100000000E-03 0.  1.
    9000002    1    1    2    0    0  0.78414711345E-01  0.62200540422E-01  0.21839621060E-01  0.94357762968E+00  0.93800000000E+00 0.  1.
         22    1    1    2    0    0 -0.20660849655E+00 -0.24656197080E-01  0.29964576662E+01  0.30036733417E+01  0.00000000000E+00 0.  1.
</event>
<event>
 5    1  0.2111786E+001  0.1570868E+01  0.7818608E-02  0.3385603E+00
         11   -1    0    0    0    0  0.00000000000E+00  0.00000000000E+00  0.39999999674E+01  0.40000000000E+01  0.51100000000E-03 0. -1.
    9000002   -1    0    0    0    0 -0.00000000000E+00 -0.00000000000E+00  0.00000000000E+00  0.93800000000E+00  0.93800000000E+00 0. -1.
         11    1    1    2    0    0  0.28483870094E+00 -0.12691516247E+00  0.91756963564E+00  0.96911033499E+00  0.51100000000E-03 0. -1.
    9000002    1    1    2    0    0 -0.58517817393E+00  0.64954936238E-01  0.27016008597E+00  0.11399487318E+01  0.93800000000E+00 0. -1.
         22    1    1    2    0    0  0.30033947298E+00  0.61960226228E-01  0.28122702458E+01  0.28289409333E+01  0.00000000000E+00 0. -1.
</event>
<event>
 5    1  0.2111786E+001  0.1553757E+01  0.7818608E-02  0.3405135E+00
         11   -1    0    0    0    0  0.00000000000E+00  0.00000000000E+00  0.39999999674E+01  0.40000000000E+01  0.51100000000E-03 0. -1.
    9000002   -1    0    0    0    0 -0.00000000000E+00 -0.00000000000E+00  0.00000000000E+00  0.93800000000E+00  0.93800000000E+00 0. -1.
         11    1    1    2    0    0 -0.22149329958E+00 -0.19292392296E+00  0.16218372026E+01  0.16482217978E+01  0.51100000000E-03 0. -1.
    9000002    1    1    2    0    0  0.16514215879E+00 -0.22615599742E-01  0.53213929340E-01  0.95417981546E+00  0.93800000000E+00 0. -1.
         22    1    1    2    0    0  0.56351140785E-01  0.21553952271E+00  0.23249488354E+01  0.23355983867E+01  0.00000000000E+00 0. -1.
</event>
<event>
 5    1  0.2111786E+001  0.1572863E+01  0.7818608E-02  0.3383354E+00
         11   -1    0    0    0    0  0.00000000000E+00  0.00000000000E+00  0.39999999674E+01  0.40000000000E+01  0.51100000000E-03 0. -1.
    9000002   -1    0    0    0    0 -0.00000000000E+00 -0.00000000000E+00  0.00000000000E+00  0.93800000000E+00  0.93800000000E+00 0. -1.
         11    1    1    2    0    0  0.39760414220E+00  0.22735381266E+00  0.14868885653E+01  0.15558331134E+01  0.51100000000E-03 0. -1.
    9000002    1    1    2    0    0 -0.65758029003E+00 -0.19205809343E+00  0.36418062463E+00  0.12172796213E+01  0.93800000000E+00 0. -1.
         22    1    1    2    0    0  0.25997614783E+00 -0.35295719233E-01  0.21489307774E+01  0.21648872653E+01  0.00000000000E+00 0. -1.
</event>
<event>
 5    1  0.2111786E+001  0.1576399E+01  0.7818608E-02  0.3379384E+00
         11   -1    0    0    0    0  0.00000000000E+00  0.00000000000E+00  0.39999999674E+01  0.40000000000E+01  0.51100000000E-03 0. -1.
    9000002   -1    0    0    0    0 -0.00000000000E+00 -0.00000000000E+00  0.00000000000E+00  0.93800000000E+00  0.93800000000E+00 0. -1.
         11    1    1    2    0    0  0.92367794066E-01 -0.97923561883E-01  0.26101651145E+01  0.26136340638E+01  0.51100000000E-03 0. -1.
    9000002    1    1    2    0    0  0.92035409925E-01  0.20480832943E-01  0.23033029561E-01  0.94300821929E+00  0.93800000000E+00 0. -1.
         22    1    1    2    0    0 -0.18440320399E+00  0.77442728941E-01  0.13668018233E+01  0.13813577169E+01  0.00000000000E+00 0.  1.
</event>
<event>
 5    1  0.2111786E+001  0.1481868E+01  0.7818608E-02  0.3492486E+00
         11   -1    0    0    0    0  0.00000000000E+00  0.00000000000E+00  0.39999999674E+01  0.40000000000E+01  0.51100000000E-03 0.  1.
    9000002   -1    0    0    0    0 -0.00000000000E+00 -0.00000000000E+00  0.00000000000E+00  0.93800000000E+00  0.93800000000E+00 0.  1.
         11    1    1    2    0    0  0.13099392221E+00  0.37094356439E+00  0.94758573474E+00  0.10260007414E+01  0.51100000000E-03 0.  1.
    9000002    1    1    2    0    0 -0.11570804745E+00 -0.11067802467E+00  0.10982723491E+00  0.95788517001E+00  0.93800000000E+00 0.  1.
         22    1    1    2    0    0 -0.15285874764E-01 -0.26026553972E+00  0.29425869977E+01  0.29541140886E+01  0.00000000000E+00 0.  1.
</event>
<event>
 5    1  0.2111786E+001  0.1486549E+01  0.7818608E-02  0.3486521E+00
         11   -1    0    0    0    0  0.00000000000E+00  0.00000000000E+00  0.39999999674E+01  0.40000000000E+01  0.51100000000E-03 0. -1.
    9000002   -1    0    0    0    0 -0.00000000000E+00 -0.00000000000E+00  0.00000000000E+00  0.93800000000E+00  0.93800000000E+00 0.  1.
         11    1    1    2    0    0  0.54256909577E-02  0.51904786319E+00  0.82530947783E+00  0.97497493185E+00  0.51100000000E-03 0. -1.
    9000002    1    1    2    0    0 -0.23198443637E+00 -0.31638895269E+00  0.28298624066E+00  0.10553880616E+01  0.93800000000E+00 0.  1.
         22    1    1    2    0    0  0.22655874541E+00 -0.20265891051E+00  0.28917042489E+01  0.29076370066E+01  0.00000000000E+00 0. -1.
</event>
<event>
 5    1  0.2111786E+001  0.1563511E+01  0.7818608E-02  0.3393945E+00
         11   -1    0    0    0    0  0.00000000000E+00  0.00000000000E+00  0.39999999674E+01  0.40000000000E+01  0.51100000000E-03 0. -1.
    9000002   -1    0    0    0    0 -0.00000000000E+00 -0.00000000000E+00  0.00000000000E+00  0.93800000000E+00  0.93800000000E+00 0.  1.
         11    1    1    2    0    0  0.15637816938E+00  0.17997302228E+00  0.19503097161E+01  0.19648289163E+01  0.51100000000E-03 0. -1.
    9000002    1    1    2    0    0  0.58787849324E-01 -0.93038171703E-01  0.34919569671E-01  0.94507962044E+00  0.93800000000E+00 0.  1.
         22    1    1    2    0    0 -0.21516601870E+00 -0.86934850572E-01  0.20147706816E+01  0.20280914632E+01  0.00000000000E+00 0. -1.
</event>
<event>
 5    1  0.2111786E+001  0.1246665E+01  0.7818608E-02  0.3889355E+00
         11   -1    0    0    0    0  0.00000000000E+00  0.00000000000E+00  0.39999999674E+01  0.40000000000E+01  0.51100000000E-03 0. -1.
    9000002   -1    0    0    0    0 -0.00000000000E+00 -0.00000000000E+00  0.00000000000E+00  0.93800000000E+00  0.93800000000E+00 0.  1.
         11    1    1    2    0    0 -0.28710778415E+00 -0.72734221701E+00  0.25193573872E+01  0.26379195374E+01  0.51100000000E-03 0. -1.
    9000002    1    1    2    0    0 -0.75291213698E-01  0.22878964616E+00  0.38337021118E+00  0.10415518172E+01  0.93800000000E+00 0.  1.
         22    1    1    2    0    0  0.36239899785E+00  0.49855257085E+00  0.10972723690E+01  0.12585286454E+01  0.00000000000E+00 0. -1.
</event>
<event>
 5    1  0.2111786E+001  0.1561926E+01  0.7818608E-02  0.3395753E+00
         11   -1    0    0    0    0  0.00000000000E+00  0.00000000000E+00  0.39999999674E+01  0.40000000000E+01  0.51100000000E-03 0.  1.
    9000002   -1    0    0    0    0 -0.00000000000E+00 -0.00000000000E+00  0.00000000000E+00  0.93800000000E+00  0.93800000000E+00 0. -1.
         11    1    1    2    0    0  0.65139918943E-01  0.17561080922E+00  0.21054023562E+01  0.21137175090E+01  0.51100000000E-03 0.  1.
    9000002    1    1    2    0    0  0.40110247160E-01  0.77697886715E-01  0.33063295157E-01  0.94264679229E+00  0.93800000000E+00 0. -1.
         22    1    1    2    0    0 -0.10525016610E+00 -0.25330869594E+00  0.18615343160E+01  0.18816356987E+01  0.00000000000E+00 0.  1.
</event>
<event>
 5    1  0.2111786E+001  0.1566330E+01  0.7818608E-02  0.3390738E+00
         11   -1    0    0    0    0  0.00000000000E+00  0.00000000000E+00  0.39999999674E+01  0.40000000000E+01  0.51100000000E-03 0. -1.
    9000002   -1    0    0    0    0 -0.00000000000E+00 -0.00000000000E+00  0.00000000000E+00  0.93800000000E+00  0.93800000000E+00 0. -1.
         11    1    1    2    0    0  0.24613515528E+00  0.13016164586E+00  0.84121100373E+00  0.88609298758E+00  0.51100000000E-03 0. -1.
    9000002    1    1    2    0    0 -0.29939160291E+00 -0.39003929832E+00  0.19572898404E+00  0.10769957388E+01  0.93800000000E+00 0. -1.
         22    1    1    2    0    0  0.53256447639E-01  0.25987765246E+00  0.29630599796E+01  0.29749112737E+01  0.00000000000E+00 0. -1.
</event>
<event>
 5    1  0.2111786E+001  0.1566019E+01  0.7818608E-02  0.3391091E+00
         11   -1    0    0    0    0  0.00000000000E+00  0.00000000000E+00  0.39999999674E+01  0.40000000000E+01  0.51100000000E-03 0.  1.
    9000002   -1    0    0    0    0 -0.00000000000E+00 -0.00000000000E+00  0.00000000000E+00  0.93800000000E+00  0.93800000000E+00 0.  1.
         11    1    1    2    0    0 -0.12213252177E+00 -0.14911853493E+00  0.16664006037E+01  0.16775112291E+01  0.51100000000E-03 0.  1.
    9000002    1    1    2    0    0 -0.11387214536E+00  0.30372685825E-01  0.34232980952E-01  0.94599432478E+00  0.93800000000E+00 0.  1.
         22    1    1    2    0    0  0.23600466713E+00  0.11874584911E+00  0.22993663827E+01  0.23144944462E+01  0.00000000000E+00 0.  1.
</event>
<event>
 5    1  0.2111786E+001  0.1445753E+01  0.7818608E-02  0.3539916E+00
         11   -1    0    0    0    0  0.00000000000E+00  0.00000000000E+00  0.39999999674E+01  0.40000000000E+01  0.51100000000E-03 0. -1.
    9000002   -1    0    0    0    0 -0.00000000000E+00 -0.00000000000E+00  0.00000000000E+00  0.93800000000E+00  0.93800000000E+00 0.  1.
         11    1    1    2    0    0  0.44854102529E+00 -0.16194648695E-01  0.23305748493E+01  0.23734006631E+01  0.51100000000E-03 0. -1.
    9000002    1    1    2    0    0  0.17756085146E-01 -0.70681460888E-01  0.12514012410E+00  0.94911284794E+00  0.93800000000E+00 0.  1.
         22    1    1    2    0    0 -0.46629711044E+00  0.86876109583E-01  0.15442849939E+01  0.16154864890E+01  0.00000000000E+00 0.  1.
</event>
<event>
 5    1  0.2111786E+001  0.1552361E+01  0.7818608E-02  0.3406750E+00
         11   -1    0    0    0    0  0.00000000000E+00  0.00000000000E+00  0.39999999674E+01  0.40000000000E+01  0.51100000000E-03 0.  1.
    9000002   -1    0    0    0    0 -0.00000000000E+00 -0.00000000000E+00  0.00000000000E+00  0.93800000000E+00  0.93800000000E+00 0. -1.
         11    1    1    2    0    0  0.27509828856E+00  0.96252866233E-02  0.19799781295E+01  0.19990211027E+01  0.51100000000E-03 0.  1.
    9000002    1    1    2    0    0 -0.26758215503E-01 -0.20474462940E-01  0.35842131590E-01  0.93928902055E+00  0.93800000000E+00 0. -1.
         22    1    1    2    0    0 -0.24834007306E+00  0.10849176317E-01  0.19841797063E+01  0.19996898768E+01  0.00000000000E+00 0.  1.
</event>
<event>
 5    1  0.2111786E+001  0.1584749E+01  0.7818608E-02  0.3370085E+00
         11   -1    0    0    0    0  0.00000000000E+00  0.00000000000E+00  0.39999999674E+01  0.40000000000E+01  0.51100000000E-03 0. -1.
    9000002   -1    0    0    0    0 -0.00000000000E+00 -0.00000000000E+00  0.00000000000E+00  0.93800000000E+00  0.93800000000E+00 0.  1.
         11    1    1    2    0    0 -0.31680401422E-03 -0.23009588577E+00  0.81291350232E+00  0.84485077995E+00  0.51100000000E-03 0. -1.
    9000002    1    1    2    0    0 -0.31535957317E-02  0.50453042078E+00  0.18802260312E+00  0.10815532303E+01  0.93800000000E+00 0.  1.
         22    1    1    2    0    0  0.34703997459E-02 -0.27443453501E+00  0.29990638619E+01  0.30115959898E+01  0.00000000000E+00 0. -1.
</event>
<event>
 5    1  0.2111786E+001  0.1572202E+01  0.7818608E-02  0.3384099E+00
         11   -1    0    0    0    0  0.00000000000E+00  0.00000000000E+00  0.39999999674E+01  0.40000000000E+01  0.51100000000E-03 0.  1.
    9000002   -1    0    0    0    0 -0.00000000000E+00 -0.00000000000E+00  0.00000000000E+00  0.93800000000E+00  0.93800000000E+00 0. -1.
         11    1    1    2    0    0 -0.12832138219E+00  0.10307785420E+00  0.90121800711E+00  0.91612530727E+00  0.51100000000E-03 0.  1.
    9000002    1    1    2    0    0  0.68184827996E-01  0.90471781855E-01  0.28847170911E-01  0.94525682931E+00  0.93800000000E+00 0. -1.
         22    1    1    2    0    0  0.60136554196E-01 -0.19354963605E+00  0.30699347893E+01  0.30766178634E+01  0.00000000000E+00 0.  1.
</event>
<event>
 5    1  0.2111786E+001  0.1588321E+01  0.7818608E-02  0.3366138E+00
         11   -1    0    0    0    0  0.00000000000E+00  0.00000000000E+00  0.39999999674E+01  0.40000000000E+01  0.51100000000E-03 0.  1.
    9000002   -1    0    0    0    0 -0.00000000000E+00 -0.00000000000E+00  0.00000000000E+00  0.93800000000E+00  0.93800000000E+00 0.  1.
         11    1    1    2    0    0 -0.31006553234E-01  0.75645894463E-01  0.12334680148E+01  0.12361744667E+01  0.51100000000E-03 0.  1.
    9000002    1    1    2    0    0 -0.42227932461E-01  0.11115773610E+00  0.17691955291E-01  0.94567237765E+00  0.93800000000E+00 0.  1.
         22    1    1    2    0    0  0.73234485695E-01 -0.18680363057E+00  0.27488399973E+01  0.27561531556E+01  0.00000000000E+00 0.  1.
</event>
<event>
 5    1  0.2111786E+001  0.1489091E+01  0.7818608E-02  0.3483300E+00
         11   -1    0    0    0    0  0.00000000000E+00  0.00000000000E+00  0.39999999674E+01  0.40000000000E+01  0.51100000000E-03 0. -1.
    9000002   -1    0    0    0    0 -0.00000000000E+00 -0.00000000000E+00  0.00000000000E+00  0.93800000000E+00  0.93800000000E+00 0.  1.
         11    1    1    2    0    0 -0.27382434480E+00  0.16432392258E+00  0.26637721078E+01  0.26828462920E+01  0.51100000000E-03 0. -1.
    9000002    1    1    2    0    0 -0.11661181959E+00 -0.59651986060E-01  0.97459960754E-01  0.95210247340E+00  0.93800000000E+00 0.  1.
         22    1    1    2    0    0  0.39043616439E+00 -0.10467193652E+00  0.12387678988E+01  0.13030512346E+01  0.00000000000E+00 0. -1.
</event>
<event>
 5    1  0.2111786E+001  0.1592320E+01  0.7818608E-02  0.3361741E+00
         11   -1    0    0    0    0  0.00000000000E+00  0.00000000000E+00  0.39999999674E+01  0.40000000000E+01  0.51100000000E-03 0. -1.
    9000002   -1    0    0    0    0 -0.00000000000E+00 -0.00000000000E+00  0.00000000000E+00  0.93800000000E+00  0.93800000000E+00 0.  1.
         11    1    1    2    0    0 -0.23360041167E-01 -0.24147671981E-01  0.19404448442E+01  0.19407357512E+01  0.51100000000E-03 0. -1.
    9000002    1    1    2    0    0 -0.14863397591E+00  0.12720254499E+00  0.30855846885E-01  0.95868067131E+00  0.93800000000E+00 0.  1.
         22    1    1    2    0    0  0.17199401708E+00 -0.10305487301E+00  0.20286992763E+01  0.20385835775E+01  0.00000000000E+00 0. -1.
</event>
<event>
 5    1  0.2111786E+001  0.1563382E+01  0.7818608E-02  0.3394092E+00
         11   -1    0    0    0    0  0.00000000000E+00  0.00000000000E+00  0.39999999674E+01  0.40000000000E+01  0.51100000000E-03 0.  1.
    9000002   -1    0    0    0    0 -0.00000000000E+00 -0.00000000000E+00  0.00000000000E+00  0.93800000000E+00  0.93800000000E+00 0.  1.
         11    1    1    2    0    0  0.28354247223E-02 -0.27326040202E+00  0.20628455801E+01  0.20808679524E+01  0.51100000000E-03 0.  1.
    9000002    1    1    2    0    0  0.13828331672E+00  0.10896744830E+00  0.47981256285E-01  0.95558483738E+00  0.93800000000E+00 0.  1.
         22    1    1    2    0    0 -0.14111874145E+00  0.16429295373E+00  0.18891731310E+01  0.19015472102E+01  0.00000000000E+00 0.  1.
</event>
<event>
 5    1  0.2111786E+001  0.1548928E+01  0.7818608E-02  0.3410731E+00
         11   -1    0    0    0    0  0.00000000000E+00  0.00000000000E+00  0.39999999674E+01  0.40000000000E+01  0.51100000000E-03 0.  1.
    9000002   -1    0    0    0    0 -0.00000000000E+00 -0.00000000000E+00  0.00000000000E+00  0.93800000000E+00  0.93800000000E+00 0. -1.
         11    1    1    2    0    0 -0.15618304609E+00 -0.17311449410E+00  0.16525888788E+01  0.16689553725E+01  0.51100000000E-03 0.  1.
    9000002    1    1    2    0    0 -0.60146352884E-01 -0.55962049735E-01  0.42343220151E-01  0.94254245690E+00  0.93800000000E+00 0. -1.
         22    1    1    2    0    0  0.21632939898E+00  0.22907654383E+00  0.23050678684E+01  0.23265021706E+01  0.00000000000E+00 0.  1.
</event>
<event>
 5    1  0.2896190E+001  0.1564752E+01  0.7818608E-02  0.3392532E+00
         11   -1    0    0    0    0  0.00000000000E+00  0.00000000000E+00  0.39999999674E+01  0.40000000000E+01  0.51100000000E-03 0. -1.
    9000002   -1    0    0    0    0 -0.00000000000E+00 -0.00000000000E+00  0.00000000000E+00  0.93800000000E+00  0.93800000000E+00 0. -1.
         11    1    1    2    0    0  0.18852985907E+00  0.55186682216E-01  0.10534117553E+01  0.10715715865E+01  0.51100000000E-03 0. -1.
    9000002    1    1    2    0    0  0.15920125246E-01 -0.24152715121E-01  0.26286326987E-01  0.93881402579E+00  0.93800000000E+00 0. -1.
         22    1    1    2    0    0 -0.20444998431E+00 -0.31033967095E-01  0.29203018851E+01  0.29276143878E+01  0.00000000000E+00 0. -1.
</event>
<event>
 5    1  0.2111786E+001  0.1598861E+01  0.7818608E-02  0.3354601E+00
         11   -1    0    0    0    0  0.00000000000E+00  0.00000000000E+00  0.39999999674E+01  0.40000000000E+01  0.51100000000E-03 0. -1.
    9000002   -1    0    0    0    0 -0.00000000000E+00 -0.00000000000E+00  0.00000000000E+00  0.93800000000E+00  0.93800000000E+00 0. -1.
         11    1    1    2    0    0  0.48274219836E-01  0.65309638390E+00  0.22600382010E+01  0.23530062087E+01  0.51100000000E-03 0. -1.
    9000002    1    1    2    0    0 -0.93527468721E-01 -0.92072280579E+00  0.66441415684E+00  0.14757262769E+01  0.93800000000E+00 0. -1.
         22    1    1    2    0    0  0.45253248885E-01  0.26762642189E+00  0.10755476095E+01  0.11092675144E+01  0.00000000000E+00 0.  1.
</event>
<event>
 5    1  0.2111786E+001  0.1595404E+01  0.7818608E-02  0.3358367E+00
         11   -1    0    0    0    0  0.00000000000E+00  0.00000000000E+00  0.39999999674E+01  0.40000000000E+01  0.51100000000E-03 0.  1.
    9000002   -1    0    0    0    0 -0.00000000000E+00 -0.00000000000E+00  0.00000000000E+00  0.93800000000E+00  0.93800000000E+00 0. -1.
         11    1    1    2    0    0 -0.20727416383E-01 -0.16933134195E-01  0.35099436363E+00  0.35201372309E+00  0.51100000000E-03 0.  1.
    9000002    1    1    2    0    0 -0.88307709458E-01 -0.19702870908E+00  0.34120898934E-01  0.96313384298E+00  0.93800000000E+00 0. -1.
         22    1    1    2    0    0  0.10903512584E+00  0.21396184328E+00  0.36148847048E+01  0.36228524339E+01  0.00000000000E+00 0.  1.
</event>
<event>
 5    1  0.2111786E+001  0.1477723E+01  0.7818608E-02  0.3497802E+00
         11   -1    0    0    0    0  0.00000000000E+00  0.00000000000E+00  0.39999999674E+01  0.40000000000E+01  0.51100000000E-03 0. -1.
    9000002   -1    0    0    0    0 -0.00000000000E+00 -0.00000000000E+00  0.00000000000E+00  0.93800000000E+00  0.93800000000E+00 0. -1.
         11    1    1    2    0    0  0.34646105121E+00 -0.40692046300E+00  0.90688885846E+00  0.10526477027E+01  0.51100000000E-03 0. -1.
    9000002    1    1    2    0    0 -0.18056284496E+00  0.66063463038E+00  0.48324315816E+00  0.12579383951E+01  0.93800000000E+00 0. -1.
         22    1    1    2    0    0 -0.16589820625E+00 -0.25371416738E+00  0.26098679507E+01  0.26274139023E+01  0.00000000000E+00 0. -1.
</event>
<event>
 5    1  0.2111786E+001  0.1580871E+01  0.7818608E-02  0.3374391E+00
         11   -1    0    0    0    0  0.00000000000E+00  0.00000000000E+00  0.39999999674E+01  0.40000000000E+01  0.51100000000E-03 0. -1.
    9000002   -1    0    0    0    0 -0.00000000000E+00 -0.00000000000E+00  0.00000000000E+00  0.93800000000E+00  0.93800000000E+00 0. -1.
         11    1    1    2    0    0  0.99586432033E-01  0.15363564725E+00  0.21019828828E+01  0.21099416272E+01  0.51100000000E-03 0. -1.
    9000002    1    1    2    0    0 -0.32470675717E+00 -0.12857731586E-01  0.85691857231E-01  0.99638691973E+00  0.93800000000E+00 0. -1.
         22    1    1    2    0    0  0.22512032513E+00 -0.14077791567E+00  0.18123252273E+01  0.18316714530E+01  0.00000000000E+00 0. -1.
</event>
<event>
 5    1  0.2111786E+001  0.1572144E+01  0.7818608E-02  0.3384163E+00
         11   -1    0    0    0    0  0.00000000000E+00  0.00000000000E+00  0.39999999674E+01  0.40000000000E+01  0.51100000000E-03 0.  1.
    9000002   -1    0    0    0    0 -0.00000000000E+00 -0.00000000000E+00  0.00000000000E+00  0.93800000000E+00  0.93800000000E+00 0.  1.
         11    1    1    2    0    0 -0.95861296429E-01  0.44632383902E-01  0.21830341530E+01  0.21855936978E+01  0.51100000000E-03 0.  1.
    9000002    1    1    2    0    0 -0.82889936173E-02  0.22947247998E+00  0.56134303080E-01  0.96732692843E+00  0.93800000000E+00 0.  1.
         22    1    1    2    0    0  0.10415029005E+00 -0.27410486389E+00  0.17608315113E+01  0.17850793737E+01  0.00000000000E+00 0.  1.
</event>
<event>
 5    1  0.2111786E+001  0.1530323E+01  0.7818608E-02  0.3432643E+00
         11   -1    0    0    0    0  0.00000000000E+00  0.00000000000E+00  0.39999999674E+01  0.40000000000E+01  0.51100000000E-03 0.  1.
    9000002   -1    0    0    0    0 -0.00000000000E+00 -0.00000000000E+00  0.00000000000E+00  0.93800000000E+00  0.93800000000E+00 0. -1.
         11    1    1    2    0    0  0.17744013691E+00 -0.27479297719E+00  0.15578896826E+01  0.15918595122E+01  0.51100000000E-03 0.  1.
    9000002    1    1    2    0    0  0.52790116543E-02  0.55609927020E-01  0.54181786850E-01  0.94122260809E+00  0.93800000000E+00 0. -1.
         22    1    1    2    0    0 -0.18271914857E+00  0.21918305017E+00  0.23879284979E+01  0.24049178797E+01  0.00000000000E+00 0.  1.
</event>
<event>
 5    1  0.2111786E+001  0.1558820E+01  0.7818608E-02  0.3399308E+00
         11   -1    0    0    0    0  0.00000000000E+00  0.00000000000E+00  0.39999999674E+01  0.40000000000E+01  0.51100000000E-03 0. -1.
    9000002   -1    0    0    0    0 -0.00000000000E+00 -0.00000000000E+00  0.00000000000E+00  0.93800000000E+00  0.93800000000E+00 0. -1.
         11    1    1    2    0    0  0.22362315627E+00  0.63066550194E-01  0.18876585437E+01  0.19019042417E+01  0.51100000000E-03 0. -1.
    9000002    1    1    2    0    0  0.40180198533E-01 -0.15031008964E+00  0.46818782721E-01  0.95196826093E+00  0.93800000000E+00 0. -1.
         22    1    1    2    0    0 -0.26380335480E+00  0.87243539442E-01  0.20655226409E+01  0.20841274974E+01  0.00000000000E+00 0.  1.
</event>
<event>
 5    1  0.2111786E+001  0.1528518E+01  0.7818608E-02  0.3434799E+00
         11   -1    0    0    0    0  0.00000000000E+00  0.00000000000E+00  0.39999999674E+01  0.40000000000E+01  0.51100000000E-03 0.  1.
    9000002   -1    0    0    0    0 -0.00000000000E+00 -0.00000000000E+00  0.00000000000E+00  0.93800000000E+00  0.93800000000E+00 0. -1.
         11    1    1    2    0    0 -0.48217035817E+00  0.61534410380E-01  0.29660489393E+01  0.30056149636E+01  0.51100000000E-03 0.  1.
    9000002    1    1    2    0    0  0.27658324426E+00 -0.12208006683E+00  0.11900952127E+00  0.99267774221E+00  0.93800000000E+00 0. -1.
         22    1    1    2    0    0  0.20558711391E+00  0.60545656448E-01  0.91494150683E+00  0.93970729423E+00  0.00000000000E+00 0. -1.
</event>
<event>
 5    1  0.2111786E+001  0.1584139E+01  0.7818608E-02  0.3370760E+00
         11   -1    0    0    0    0  0.00000000000E+00  0.00000000000E+00  0.39999999674E+01  0.40000000000E+01  0.51100000000E-03 0.  1.
    9000002   -1    0    0    0    0 -0.00000000000E+00 -0.00000000000E+00  0.00000000000E+00  0.93800000000E+00  0.93800000000E+00 0. -1.
         11    1    1    2    0    0 -0.10944764073E+00  0.64339738297E-02  0.11666731897E+01  0.11718134556E+01  0.51100000000E-03 0.  1.
    9000002    1    1    2    0    0 -0.86702542544E-01 -0.95049501835E-01  0.22415966750E-01  0.94704710244E+00  0.93800000000E+00 0. -1.
         22    1    1    2    0    0  0.19615018327E+00  0.88615528005E-01  0.28109108109E+01  0.28191394420E+01  0.00000000000E+00 0.  1.
</event>
<event>
 5    1  0.2111786E+001  0.1543633E+01  0.7818608E-02  0.3416911E+00
         11   -1    0    0    0    0  0.00000000000E+00  0.00000000000E+00  0.39999999674E+01  0.40000000000E+01  0.51100000000E-03 0.  1.
    9000002   -1    0    0    0    0 -0.00000000000E+00 -0.00000000000E+00  0.00000000000E+00  0.93800000000E+00  0.93800000000E+00 0.  1.
         11    1    1    2    0    0 -0.76431664090E-02  0.21818825104E+00  0.71318955021E+00  0.74585798013E+00  0.51100000000E-03 0.  1.
    9000002    1    1    2    0    0  0.80519286481E-01  0.12175133846E-01  0.46331143209E-01  0.94266757885E+00  0.93800000000E+00 0.  1.
         22    1    1    2    0    0 -0.72876120072E-01 -0.23036338488E+00  0.32404792739E+01  0.32494744410E+01  0.00000000000E+00 0.  1.
</event>
<event>
 5    1  0.2111786E+001  0.1567335E+01  0.7818608E-02  0.3389599E+00
         11   -1    0    0    0    0  0.00000000000E+00  0.00000000000E+00  0.39999999674E+01  0.40000000000E+01  0.51100000000E-03 0. -1.
    9000002   -1    0    0    0    0 -0.00000000000E+00 -0.00000000000E+00  0.00000000000E+00  0.93800000000E+00  0.93800000000E+00 0.  1.
         11    1    1    2    0    0  0.16332693939E+00 -0.10107530586E+00  0.10463560538E+01  0.10638388783E+01  0.51100000000E-03 0. -1.
    9000002    1    1    2    0    0  0.55771584193E-01  0.12043374493E+00  0.35779598197E-01  0.94801842607E+00  0.93800000000E+00 0.  1.
         22    1    1    2    0    0 -0.21909852358E+00 -0.19358439071E-01  0.29178643154E+01  0.29261426956E+01  0.00000000000E+00 0. -1.
</event>
<event>
 5    1  0.2111786E+001  0.1573131E+01  0.7818608E-02  0.3383053E+00
         11   -1    0    0    0    0  0.00000000000E+00  0.00000000000E+00  0.39999999674E+01  0.40000000000E+01  0.51100000000E-03 0. -1.
    9000002   -1    0    0    0    0 -0.00000000000E+00 -0.00000000000E+00  0.00000000000E+00  0.93800000000E+00  0.93800000000E+00 0.  1.
         11    1    1    2    0    0 -0.94902474366E-01  0.10222873659E+00  0.92033033145E+00  0.93084121865E+00  0.51100000000E-03 0. -1.
    9000002    1    1    2    0    0 -0.76712729451E-01  0.82106590826E-01  0.28007687777E-01  0.94512156133E+00  0.93800000000E+00 0.  1.
         22    1    1    2    0    0  0.17161520382E+00 -0.18433532742E+00  0.30516619481E+01  0.30620372200E+01  0.00000000000E+00 0. -1.
</event>
<event>
 5    1  0.2111786E+001  0.1386413E+01  0.7818608E-02  0.3628902E+00
         11   -1    0    0    0    0  0.00000000000E+00  0.00000000000E+00  0.39999999674E+01  0.40000000000E+01  0.51100000000E-03 0.  1.
    9000002   -1    0    0    0    0 -0.00000000000E+00 -0.00000000000E+00  0.00000000000E+00  0.93800000000E+00  0.93800000000E+00 0.  1.
         11    1    1    2    0    0  0.75167822912E+00 -0.24870085191E-01  0.32551022692E+01  0.33408576332E+01  0.51100000000E-03 0.  1.
    9000002    1    1    2    0    0 -0.48554063939E+00 -0.12370129743E+00  0.39827690484E+00  0.11355704366E+01  0.93800000000E+00 0.  1.
         22    1    1    2    0    0 -0.26613758974E+00  0.14857138262E+00  0.34662079327E+00  0.46157193018E+00  0.00000000000E+00 0. -1.
</event>
<event>
 5    1  0.2111786E+001  0.1562385E+01  0.7818608E-02  0.3395229E+00
         11   -1    0    0    0    0  0.00000000000E+00  0.00000000000E+00  0.39999999674E+01  0.40000000000E+01  0.51100000000E-03 0.  1.
    9000002   -1    0    0    0    0 -0.00000000000E+00 -0.00000000000E+00  0.00000000000E+00  0.93800000000E+00  0.93800000000E+00 0. -1.
         11    1    1    2    0    0 -0.10884170230E+00 -0.24638002444E+00  0.22646068567E+01  0.22805688127E+01  0.51100000000E-03 0.  1.
    9000002    1    1    2    0    0  0.99669554917E-01  0.39088522618E-01  0.35328315563E-01  0.94475077277E+00  0.93800000000E+00 0. -1.
         22    1    1    2    0    0  0.91721473819E-02  0.20729150182E+00  0.17000647950E+01  0.17126804145E+01  0.00000000000E+00 0.  1.
</event>
<event>
 5    1  0.2111786E+001  0.1555540E+01  0.7818608E-02  0.3403079E+00
         11   -1    0    0    0    0  0.00000000000E+00  0.00000000000E+00  0.39999999674E+01  0.40000000000E+01  0.51100000000E-03 0. -1.
    9000002   -1    0    0    0    0 -0.00000000000E+00 -0.00000000000E+00  0.00000000000E+00  0.93800000000E+00  0.93800000000E+00 0. -1.
         11    1    1    2    0    0 -0.20944898410E+00 -0.17174041484E+00  0.27703978070E+01  0.27836069976E+01  0.51100000000E-03 0. -1.
    9000002    1    1    2    0    0  0.61643496788E-01  0.14087869024E-01  0.35399949617E-01  0.94079516643E+00  0.93800000000E+00 0. -1.
         22    1    1    2    0    0  0.14780548731E+00  0.15765254581E+00  0.11942022107E+01  0.12135978360E+01  0.00000000000E+00 0.  1.
</event>
<event>
 5    1  0.2111786E+001  0.1517737E+01  0.7818608E-02  0.3447793E+00
         11   -1    0    0    0    0  0.00000000000E+00  0.00000000000E+00  0.39999999674E+01  0.40000000000E+01  0.51100000000E-03 0.  1.
    9000002   -1    0    0    0    0 -0.00000000000E+00 -0.00000000000E+00  0.00000000000E+00  0.93800000000E+00  0.93800000000E+00 0. -1.
         11    1    1    2    0    0  0.91649455345E-01 -0.36269488415E+00  0.86093969620E+00  0.93870369301E+00  0.51100000000E-03 0.  1.
    9000002    1    1    2    0    0 -0.31396727809E+00  0.30495407272E+00  0.20367840991E+00  0.10549413883E+01  0.93800000000E+00 0. -1.
         22    1    1    2    0    0  0.22231782274E+00  0.57740811435E-01  0.29353818612E+01  0.29443549186E+01  0.00000000000E+00 0.  1.
</event>
<event>
 5    1  0.2111786E+001  0.1523608E+01  0.7818608E-02  0.3440693E+00
         11   -1    0    0    0    0  0.00000000000E+00  0.00000000000E+00  0.39999999674E+01  0.40000000000E+01  0.51100000000E-03 0.  1.
    9000002   -1    0    0    0    0 -0.00000000000E+00 -0.00000000000E+00  0.00000000000E+00  0.93800000000E+00  0.93800000000E+00 0.  1.
         11    1    1    2    0    0  0.14385777142E+00 -0.12982715802E+00  0.33636510754E+00  0.38819054091E+00  0.51100000000E-03 0.  1.
    9000002    1    1    2    0    0  0.13183170040E+00  0.19606855883E+00  0.97253825806E-01  0.97217528441E+00  0.93800000000E+00 0.  1.
         22    1    1    2    0    0 -0.27568947182E+00 -0.66241400808E-01  0.35663810340E+01  0.35776341747E+01  0.00000000000E+00 0.  1.
</event>
<event>
 5    1  0.2111786E+001  0.1571570E+01  0.7818608E-02  0.3384810E+00
         11   -1    0    0    0    0  0.00000000000E+00  0.00000000000E+00  0.39999999674E+01  0.40000000000E+01  0.51100000000E-03 0.  1.
    9000002   -1    0    0    0    0 -0.00000000000E+00 -0.00000000000E+00  0.00000000000E+00  0.93800000000E+00  0.93800000000E+00 0. -1.
         11    1    1    2    0    0  0.20196167094E+00 -0.13257003088E-01  0.14992818702E+01  0.15128815724E+01  0.51100000000E-03 0.  1.
    9000002    1    1    2    0    0 -0.88818138714E-01 -0.22928328011E+00  0.61907195636E-01  0.97166660186E+00  0.93800000000E+00 0. -1.
         22    1    1    2    0    0 -0.11314353223E+00  0.24254028319E+00  0.24388109015E+01  0.24534518257E+01  0.00000000000E+00 0.  1.
</event>
<event>
 5    1  0.2111786E+001  0.1562615E+01  0.7818608E-02  0.3394966E+00
         11   -1    0    0    0    0  0.00000000000E+00  0.00000000000E+00  0.39999999674E+01  0.40000000000E+01  0.51100000000E-03 0. -1.
    9000002   -1    0    0    0    0 -0.00000000000E+00 -0.00000000000E+00  0.00000000000E+00  0.93800000000E+00  0.93800000000E+00 0. -1.
         11    1    1    2    0    0 -0.48383628434E-01 -0.75143950998E-04  0.31387523218E+01  0.31391252571E+01  0.51100000000E-03 0. -1.
    9000002    1    1    2    0    0  0.42434013629E-01  0.23494999264E+00  0.66572371639E-01  0.97019483879E+00  0.93800000000E+00 0. -1.
         22    1    1    2    0    0  0.59496148046E-02 -0.23487484869E+00  0.79467527391E+00  0.82867990408E+00  0.00000000000E+00 0. -1.
</event>
<event>
 5    1  0.2111786E+001  0.1572950E+01  0.7818608E-02  0.3383256E+00
         11   -1    0    0    0    0  0.00000000000E+00  0.00000000000E+00  0.39999999674E+01  0.40000000000E+01  0.51100000000E-03 0. -1.
    9000002   -1    0    0    0    0 -0.00000000000E+00 -0.00000000000E+00  0.00000000000E+00  0.93800000000E+00  0.93800000000E+00 0.  1.
         11    1    1    2    0    0  0.28901192471E-01 -0.12268506585E+00  0.18391639717E+01  0.18434780390E+01  0.51100000000E-03 0. -1.
    9000002    1    1    2    0    0  0.11521935423E+00 -0.11953937769E+00  0.38296247833E-01  0.95334976006E+00  0.93800000000E+00 0.  1.
         22    1    1    2    0    0 -0.14412054670E+00  0.24222444354E+00  0.21225397479E+01  0.21411722010E+01  0.00000000000E+00 0. -1.
</event>
<event>
 5    1  0.2111786E+001  0.1577277E+01  0.7818608E-02  0.3378401E+00
         11   -1    0    0    0    0  0.00000000000E+00  0.00000000000E+00  0.39999999674E+01  0.40000000000E+01  0.51100000000E-03 0.  1.
    9000002   -1    0    0    0    0 -0.00000000000E+00 -0.00000000000E+00  0.00000000000E+00  0.93800000000E+00  0.93800000000E+00 0. -1.
         11    1    1    2    0    0  0.10455441089E+00 -0.50805120113E-01  0.76855063206E+00  0.77729217173E+00  0.51100000000E-03 0.  1.
    9000002    1    1    2    0    0  0.18272442314E+00  0.12357909946E+00  0.49364418608E-01  0.96485276310E+00  0.93800000000E+00 0. -1.
         22    1    1    2    0    0 -0.28727883404E+00 -0.72773979349E-01  0.31820849167E+01  0.31958550652E+01  0.00000000000E+00 0.  1.
</event>
<event>
 5    1  0.2111786E+001  0.1569572E+01  0.7818608E-02  0.3387065E+00
         11   -1    0    0    0    0  0.00000000000E+00  0.00000000000E+00  0.39999999674E+01  0.40000000000E+01  0.51100000000E-03 0. -1.
    9000002   -1    0    0    0    0 -0.00000000000E+00 -0.00000000000E+00  0.00000000000E+00  0.93800000000E+00  0.93800000000E+00 0.  1.
         11    1    1    2    0    0 -0.13488271873E+00  0.21456274644E+00  0.18513835910E+01  0.18686497751E+01  0.51100000000E-03 0. -1.
    9000002    1    1    2    0    0  0.33067269571E+00 -0.15243752773E-01  0.97691634491E-01  0.99948209546E+00  0.93800000000E+00 0.  1.
         22    1    1    2    0    0 -0.19578997698E+00 -0.19931899367E+00  0.20509247419E+01  0.20698681294E+01  0.00000000000E+00 0. -1.
</event>
<event>
 5    1  0.2111786E+001  0.1593416E+01  0.7818608E-02  0.3360540E+00
         11   -1    0    0    0    0  0.00000000000E+00  0.00000000000E+00  0.39999999674E+01  0.40000000000E+01  0.51100000000E-03 0. -1.
    9000002   -1    0    0    0    0 -0.00000000000E+00 -0.00000000000E+00  0.00000000000E+00  0.93800000000E+00  0.93800000000E+00 0.  1.
         11    1    1    2    0    0 -0.38819791060E-01  0.57663904067E-01  0.16631006712E+01  0.16645528546E+01  0.51100000000E-03 0. -1.
    9000002    1    1    2    0    0 -0.12443630159E+00 -0.19303070069E+00  0.39745186214E-01  0.96652414579E+00  0.93800000000E+00 0.  1.
         22    1    1    2    0    0  0.16325609265E+00  0.13536679662E+00  0.22971541099E+01  0.23069229996E+01  0.00000000000E+00 0. -1.
</event>
<event>
 5    1  0.2111786E+001  0.1554467E+01  0.7818608E-02  0.3404316E+00
         11   -1    0    0    0    0  0.00000000000E+00  0.00000000000E+00  0.39999999674E+01  0.40000000000E+01  0.51100000000E-03 0. -1.
    9000002   -1    0    0    0    0 -0.00000000000E+00 -0.00000000000E+00  0.00000000000E+00  0.93800000000E+00  0.93800000000E+00 0.  1.
         11    1    1    2    0    0 -0.46310295048E-01  0.25926943349E+00  0.10919988581E+01  0.11233107538E+01  0.51100000000E-03 0. -1.
    9000002    1    1    2    0    0 -0.15696262276E+00 -0.17079134952E+00  0.70807149349E-01  0.96884704800E+00  0.93800000000E+00 0.  1.
         22    1    1    2    0    0  0.20327291780E+00 -0.88478083970E-01  0.28371939599E+01  0.28458421982E+01  0.00000000000E+00 0. -1.
</event>
<event>
 5    1  0.2111786E+001  0.1568349E+01  0.7818608E-02  0.3388450E+00
         11   -1    0    0    0    0  0.00000000000E+00  0.00000000000E+00  0.39999999674E+01  0.40000000000E+01  0.51100000000E-03 0.  1.
    9000002   -1    0    0    0    0 -0.00000000000E+00 -0.00000000000E+00  0.00000000000E+00  0.93800000000E+00  0.93800000000E+00 0.  1.
         11    1    1    2    0    0  0.21863481787E+00 -0.21315501446E-01  0.16828262189E+01  0.16971033788E+01  0.51100000000E-03 0.  1.
    9000002    1    1    2    0    0 -0.66866005448E-01 -0.16252509012E+00  0.44082875827E-01  0.95533908511E+00  0.93800000000E+00 0.  1.
         22    1    1    2    0    0 -0.15176881242E+00  0.18384059156E+00  0.22730908726E+01  0.22855575361E+01  0.00000000000E+00 0.  1.
</event>
<event>
 5    1  0.2111786E+001  0.1550765E+01  0.7818608E-02  0.3408598E+00
         11   -1    0    0    0    0  0.00000000000E+00  0.00000000000E+00  0.39999999674E+01  0.40000000000E+01  0.51100000000E-03 0. -1.
    9000002   -1    0    0    0    0 -0.00000000000E+00 -0.00000000000E+00  0.00000000000E+00  0.93800000000E+00  0.93800000000E+00 0.  1.
         11    1    1    2    0    0 -0.84990215272E-01  0.13542515107E+00  0.43107529496E+00  0.45977111619E+00  0.51100000000E-03 0. -1.
    9000002    1    1    2    0    0 -0.67089268487E-01  0.41162357983E-01  0.40553569397E-01  0.94216978388E+00  0.93800000000E+00 0.  1.
         22    1    1    2    0    0  0.15207948376E+00 -0.17658750905E+00  0.35283711030E+01  0.35360590999E+01  0.00000000000E+00 0. -1.
</event>
<event>
 5    1  0.2111786E+001  0.1576747E+01  0.7818608E-02  0.3378995E+00
         11   -1    0    0    0    0  0.00000000000E+00  0.00000000000E+00  0.39999999674E+01  0.40000000000E+01  0.51100000000E-03 0. -1.
    9000002   -1    0    0    0    0 -0.00000000000E+00 -0.00000000000E+00  0.00000000000E+00  0.93800000000E+00  0.93800000000E+00 0.  1.
         11    1    1    2    0    0  0.50231677781E-01  0.21612348398E-01  0.22348384709E+01  0.22355074518E+01  0.51100000000E-03 0. -1.
    9000002    1    1    2    0    0  0.22836581244E+00  0.32990288960E-02  0.52168085076E-01  0.96681297932E+00  0.93800000000E+00 0.  1.
         22    1    1    2    0    0 -0.27859749022E+00 -0.24911377294E-01  0.17129934114E+01  0.17356795688E+01  0.00000000000E+00 0.  1.
</event>
<event>
 5    1  0.2111786E+001  0.1582054E+01  0.7818608E-02  0.3373074E+00
         11   -1    0    0    0    0  0.00000000000E+00  0.00000000000E+00  0.39999999674E+01  0.40000000000E+01  0.51100000000E-03 0. -1.
    9000002   -1    0    0    0    0 -0.00000000000E+00 -0.00000000000E+00  0.00000000000E+00  0.93800000000E+00  0.93800000000E+00 0. -1.
         11    1    1    2    0    0 -0.80343865947E-01 -0.66299235564E-02  0.23383718475E+00  0.24734425964E+00  0.51100000000E-03 0. -1.
    9000002    1    1    2    0    0  0.72779151639E-01  0.24613455072E+00  0.57416508869E-01  0.97417640983E+00  0.93800000000E+00 0. -1.
         22    1    1    2    0    0  0.75647143086E-02 -0.23950462716E+00  0.37087462737E+01  0.37164793305E+01  0.00000000000E+00 0. -1.
</event>
<event>
 5    1  0.2111786E+001  0.1553819E+01  0.7818608E-02  0.3405064E+00
         11   -1    0    0    0    0  0.00000000000E+00  0.00000000000E+00  0.39999999674E+01  0.40000000000E+01  0.51100000000E-03 0. -1.
    9000002   -1    0    0    0    0 -0.00000000000E+00 -0.00000000000E+00  0.00000000000E+00  0.93800000000E+00  0.93800000000E+00 0.  1.
         11    1    1    2    0    0 -0.21595906899E+00 -0.15464512218E+00  0.19966240603E+01  0.20142148179E+01  0.51100000000E-03 0. -1.
    9000002    1    1    2    0    0 -0.29532387226E-01  0.79759528712E-01  0.38939026365E-01  0.94265263596E+00  0.93800000000E+00 0.  1.
         22    1    1    2    0    0  0.24549145622E+00  0.74885593471E-01  0.19644368807E+01  0.19811325462E+01  0.00000000000E+00 0. -1.
</event>
<event>
 5    1  0.2111786E+001  0.1574076E+01  0.7818608E-02  0.3381990E+00
         11   -1    0    0    0    0  0.00000000000E+00  0.00000000000E+00  0.39999999674E+01  0.40000000000E+01  0.51100000000E-03 0.  1.
    9000002   -1    0    0    0    0 -0.00000000000E+00 -0.00000000000E+00  0.00000000000E+00  0.93800000000E+00  0.93800000000E+00 0.  1.
         11    1    1    2    0    0 -0.17239935122E+00 -0.37486829786E-01  0.30220449312E+01  0.30271905500E+01  0.51100000000E-03 0.  1.
    9000002    1    1    2    0    0  0.13747001092E+00  0.24220891657E+00  0.71736410223E-01  0.98109799496E+00  0.93800000000E+00 0.  1.
         22    1    1    2    0    0  0.34929340299E-01 -0.20472208678E+00  0.90621862598E+00  0.92971145507E+00  0.00000000000E+00 0.  1.
</event>
<event>
 5    1  0.2111786E+001  0.1541995E+01  0.7818608E-02  0.3418831E+00
         11   -1    0    0    0    0  0.00000000000E+00  0.00000000000E+00  0.39999999674E+01  0.40000000000E+01  0.51100000000E-03 0. -1.
    9000002   -1    0    0    0    0 -0.00000000000E+00 -0.00000000000E+00  0.00000000000E+00  0.93800000000E+00  0.93800000000E+00 0.  1.
         11    1    1    2    0    0  0.15930474469E+00 -0.16087082294E+00  0.33198289376E+01  0.33275399110E+01  0.51100000000E-03 0. -1.
    9000002    1    1    2    0    0 -0.78791970653E-01 -0.37505304297E-01  0.48281108156E-01  0.94328674744E+00  0.93800000000E+00 0.  1.
         22    1    1    2    0    0 -0.80512774041E-01  0.19837612724E+00  0.63188992158E+00  0.66717334152E+00  0.00000000000E+00 0. -1.
</event>
<event>
 5    1  0.2111786E+001  0.1541492E+01  0.7818608E-02  0.3419421E+00
         11   -1    0    0    0    0  0.00000000000E+00  0.00000000000E+00  0.39999999674E+01  0.40000000000E+01  0.51100000000E-03 0.  1.
    9000002   -1    0    0    0    0 -0.00000000000E+00 -0.00000000000E+00  0.00000000000E+00  0.93800000000E+00  0.93800000000E+00 0. -1.
         11    1    1    2    0    0 -0.24799544165E+00 -0.65519970316E-02  0.13919845102E+01  0.14139185993E+01  0.51100000000E-03 0.  1.
    9000002    1    1    2    0    0 -0.73972303624E-01  0.14113564402E+00  0.61129994248E-01  0.95340025588E+00  0.93800000000E+00 0. -1.
         22    1    1    2    0    0  0.32196774528E+00 -0.13458364699E+00  0.25468854629E+01  0.25706811448E+01  0.00000000000E+00 0.  1.
</event>
<event>
 5    1  0.2111786E+001  0.1570117E+01  0.7818608E-02  0.3386450E+00
         11   -1    0    0    0    0  0.00000000000E+00  0.00000000000E+00  0.39999999674E+01  0.40000000000E+01  0.51100000000E-03 0. -1.
    9000002   -1    0    0    0    0 -0.00000000000E+00 -0.00000000000E+00  0.00000000000E+00  0.93800000000E+00  0.93800000000E+00 0. -1.
         11    1    1    2    0    0  0.16295164568E+00 -0.61804825475E-01  0.24275859475E+01  0.24338337800E+01  0.51100000000E-03 0. -1.
    9000002    1    1    2    0    0  0.41120723653E-01 -0.19057525700E-01  0.23099058085E-01  0.93937834214E+00  0.93800000000E+00 0. -1.
         22    1    1    2    0    0 -0.20407236934E+00  0.80862351175E-01  0.15493149618E+01  0.15647878779E+01  0.00000000000E+00 0. -1.
</event>
<event>
 5    1  0.2111786E+001  0.1356939E+01  0.7818608E-02  0.3678484E+00
         11   -1    0    0    0    0  0.00000000000E+00  0.00000000000E+00  0.39999999674E+01  0.40000000000E+01  0.51100000000E-03 0. -1.
    9000002   -1    0    0    0    0 -0.00000000000E+00 -0.00000000000E+00  0.00000000000E+00  0.93800000000E+00  0.93800000000E+00 0.  1.
         11    1    1    2    0    0  0.72726944274E+00  0.18647208168E+00  0.23232399737E+01  0.24415439616E+01  0.51100000000E-03 0. -1.
    9000002    1    1    2    0    0 -0.25167383773E+00 -0.19029788869E+00  0.29128912845E+00  0.10316231693E+01  0.93800000000E+00 0.  1.
         22    1    1    2    0    0 -0.47559560501E+00  0.38258070118E-02  0.13854708652E+01  0.14648328692E+01  0.00000000000E+00 0. -1.
</event>
<event>
 5    1  0.2111786E+001  0.1571340E+01  0.7818608E-02  0.3385070E+00
         11   -1    0    0    0    0  0.00000000000E+00  0.00000000000E+00  0.39999999674E+01  0.40000000000E+01  0.51100000000E-03 0. -1.
    9000002   -1    0    0    0    0 -0.00000000000E+00 -0.00000000000E+00  0.00000000000E+00  0.93800000000E+00  0.93800000000E+00 0. -1.
         11    1    1    2    0    0 -0.17350409436E+00  0.19573065163E+00  0.20777505306E+01  0.20941493947E+01  0.51100000000E-03 0. -1.
    9000002    1    1    2    0    0  0.27149712815E+00  0.80431735408E-02  0.71291721722E-01  0.97913323548E+00  0.93800000000E+00 0. -1.
         22    1    1    2    0    0 -0.97993033786E-01 -0.20377382517E+00  0.18509577150E+01  0.18647173698E+01  0.00000000000E+00 0. -1.
</event>
<event>
 5    1  0.2111786E+001  0.1409054E+01  0.7818608E-02  0.3592473E+00
         11   -1    0    0    0    0  0.00000000000E+00  0.00000000000E+00  0.39999999674E+01  0.40000000000E+01  0.51100000000E-03 0. -1.
    9000002   -1    0    0    0    0 -0.00000000000E+00 -0.00000000000E+00  0.00000000000E+00  0.93800000000E+00  0.93800000000E+00 0. -1.
         11    1    1    2    0    0 -0.58069252225E+00 -0.39160583696E+00  0.14520553534E+01  0.16121488602E+01  0.51100000000E-03 0. -1.
    9000002    1    1    2    0    0  0.35034510202E+00  0.28940275908E+00  0.32947108669E+00  0.10931106277E+01  0.93800000000E+00 0. -1.
         22    1    1    2    0    0  0.23034742023E+00  0.10220307788E+00  0.22184735273E+01  0.22327405121E+01  0.00000000000E+00 0.  1.
</event>
<event>
 5    1  0.2111786E+001  0.1547869E+01  0.7818608E-02  0.3411963E+00
         11   -1    0    0    0    0  0.00000000000E+00  0.00000000000E+00  0.39999999674E+01  0.40000000000E+01  0.51100000000E-03 0.  1.
    9000002   -1    0    0    0    0 -0.00000000000E+00 -0.00000000000E+00  0.00000000000E+00  0.93800000000E+00  0.93800000000E+00 0. -1.
         11    1    1    2    0    0 -0.13333016819E+00 -0.20442330105E+00  0.48567880904E+00  0.54355311280E+00  0.51100000000E-03 0.  1.
    9000002    1    1    2    0    0  0.15638718034E+00  0.41758215981E+00  0.18101145276E+00  0.10542490011E+01  0.93800000000E+00 0. -1.
         22    1    1    2    0    0 -0.23057012149E-01 -0.21315885876E+00  0.33333097056E+01  0.33401978861E+01  0.00000000000E+00 0.  1.
</event>
<event>
 5    1  0.2111786E+001  0.1293761E+01  0.7818608E-02  0.3793941E+00
         11   -1    0    0    0    0  0.00000000000E+00  0.00000000000E+00  0.39999999674E+01  0.40000000000E+01  0.51100000000E-03 0.  1.
    9000002   -1    0    0    0    0 -0.00000000000E+00 -0.00000000000E+00  0.00000000000E+00  0.93800000000E+00  0.93800000000E+00 0.  1.
         11    1    1    2    0    0  0.56842771033E+00 -0.26379664736E+00  0.72352200787E+00  0.95717453478E+00  0.51100000000E-03 0.  1.
    9000002    1    1    2    0    0 -0.25591723150E+00  0.21053452662E+00  0.37666946899E+00  0.10637397732E+01  0.93800000000E+00 0.  1.
         22    1    1    2    0    0 -0.31251047882E+00  0.53262120746E-01  0.28998084905E+01  0.29170856920E+01  0.00000000000E+00 0.  1.
</event>
<event>
 5    1  0.2111786E+001  0.1556685E+01  0.7818608E-02  0.3401761E+00
         11   -1    0    0    0    0  0.00000000000E+00  0.00000000000E+00  0.39999999674E+01  0.40000000000E+01  0.51100000000E-03 0.  1.
    9000002   -1    0    0    0    0 -0.00000000000E+00 -0.00000000000E+00  0.00000000000E+00  0.93800000000E+00  0.93800000000E+00 0.  1.
         11    1    1    2    0    0 -0.29257637982E+00  0.16080365300E+00  0.12503300323E+01  0.12941345385E+01  0.51100000000E-03 0.  1.
    9000002    1    1    2    0    0  0.39857496494E+00  0.25572124809E-01  0.14425758021E+00  0.10296456603E+01  0.93800000000E+00 0.  1.
         22    1    1    2    0    0 -0.10599858512E+00 -0.18637577781E+00  0.26054123549E+01  0.26142198013E+01  0.00000000000E+00 0.  1.
</event>
<event>
 5    1  0.2111786E+001  0.1541504E+01  0.7818608E-02  0.3419407E+00
         11   -1    0    0    0    0  0.00000000000E+00  0.00000000000E+00  0.39999999674E+01  0.40000000000E+01  0.51100000000E-03 0.  1.
    9000002   -1    0    0    0    0 -0.00000000000E+00 -0.00000000000E+00  0.00000000000E+00  0.93800000000E+00  0.93800000000E+00 0.  1.
         11    1    1    2    0    0 -0.12834435278E+00 -0.20007593596E+00  0.31464025842E+01  0.31553687797E+01  0.51100000000E-03 0.  1.
    9000002    1    1    2    0    0  0.27602285369E-01 -0.12567578156E-01  0.43986635852E-01  0.93952043847E+00  0.93800000000E+00 0.  1.
         22    1    1    2    0    0  0.10074206742E+00  0.21264351412E+00  0.80961074735E+00  0.84311078185E+00  0.00000000000E+00 0. -1.
</event>
<event>
 5    1  0.2111786E+001  0.1083709E+01  0.7818608E-02  0.4302847E+00
         11   -1    0    0    0    0  0.00000000000E+00  0.00000000000E+00  0.39999999674E+01  0.40000000000E+01  0.51100000000E-03 0. -1.
    9000002   -1    0    0    0    0 -0.00000000000E+00 -0.00000000000E+00  0.00000000000E+00  0.93800000000E+00  0.93800000000E+00 0. -1.
         11    1    1    2    0    0  0.82574843917E-01 -0.20836624658E+00 -0.18211776121E+00  0.28879445568E+00  0.51100000000E-03 0. -1.
    9000002    1    1    2    0    0 -0.29051329347E+00  0.22459204138E+00  0.87139853204E+00  0.13319230310E+01  0.93800000000E+00 0. -1.
         22    1    1    2    0    0  0.20793844955E+00 -0.16225794803E-01  0.33107191965E+01  0.33172825134E+01  0.00000000000E+00 0. -1.
</event>
<event>
 5    1  0.2111786E+001  0.1571350E+01  0.7818608E-02  0.3385059E+00
         11   -1    0    0    0    0  0.00000000000E+00  0.00000000000E+00  0.39999999674E+01  0.40000000000E+01  0.51100000000E-03 0. -1.
    9000002   -1    0    0    0    0 -0.00000000000E+00 -0.00000000000E+00  0.00000000000E+00  0.93800000000E+00  0.93800000000E+00 0.  1.
         11    1    1    2    0    0 -0.27551265812E-01  0.13163308762E+00  0.20187577216E+01  0.20232323993E+01  0.51100000000E-03 0. -1.
    9000002    1    1    2    0    0 -0.29561828324E+00 -0.74035808138E-01  0.84552488970E-01  0.98988110077E+00  0.93800000000E+00 0.  1.
         22    1    1    2    0    0  0.32316954905E+00 -0.57597279477E-01  0.18966897568E+01  0.19248864999E+01  0.00000000000E+00 0. -1.
</event>
<event>
 5    1  0.2111786E+001  0.1589523E+01  0.7818608E-02  0.3364814E+00
         11   -1    0    0    0    0  0.00000000000E+00  0.00000000000E+00  0.39999999674E+01  0.40000000000E+01  0.51100000000E-03 0.  1.
    9000002   -1    0    0    0    0 -0.00000000000E+00 -0.00000000000E+00  0.00000000000E+00  0.93800000000E+00  0.93800000000E+00 0. -1.
         11    1    1    2    0    0  0.10190921301E+00 -0.10892077772E+00  0.17409623158E+01  0.17473406278E+01  0.51100000000E-03 0.  1.
    9000002    1    1    2    0    0  0.38832499280E-01  0.28711234559E+00  0.63894021069E-01  0.98380277897E+00  0.93800000000E+00 0. -1.
         22    1    1    2    0    0 -0.14074171229E+00 -0.17819156787E+00  0.21951436305E+01  0.22068565932E+01  0.00000000000E+00 0.  1.
</event>
<event>
 5    1  0.2111786E+001  0.1461848E+01  0.7818608E-02  0.3518464E+00
         11   -1    0    0    0    0  0.00000000000E+00  0.00000000000E+00  0.39999999674E+01  0.40000000000E+01  0.51100000000E-03 0.  1.
    9000002   -1    0    0    0    0 -0.00000000000E+00 -0.00000000000E+00  0.00000000000E+00  0.93800000000E+00  0.93800000000E+00 0. -1.
         11    1    1    2    0    0 -0.27121929734E+00  0.16931424727E+00  0.40162750718E+00  0.51335381291E+00  0.51100000000E-03 0.  1.
    9000002    1    1    2    0    0  0.21645393653E-01 -0.49326164002E-01  0.13380041042E+00  0.94902483811E+00  0.93800000000E+00 0. -1.
         22    1    1    2    0    0  0.24957390369E+00 -0.11998808327E+00  0.34645720498E+01  0.34756213490E+01  0.00000000000E+00 0. -1.
</event>
<event>
 5    1  0.2111786E+001  0.1591388E+01  0.7818608E-02  0.3362764E+00
         11   -1    0    0    0    0  0.00000000000E+00  0.00000000000E+00  0.39999999674E+01  0.40000000000E+01  0.51100000000E-03 0. -1.
    9000002   -1    0    0    0    0 -0.00000000000E+00 -0.00000000000E+00  0.00000000000E+00  0.93800000000E+00  0.93800000000E+00 0.  1.
         11    1    1    2    0    0  0.28063379632E-01 -0.12792337917E-01  0.96870243172E+00  0.96919340667E+00  0.51100000000E-03 0. -1.
    9000002    1    1    2    0    0  0.26420209232E+00 -0.14554036895E-01  0.52966724820E-01  0.97604510117E+00  0.93800000000E+00 0.  1.
         22    1    1    2    0    0 -0.29226547195E+00  0.27346374812E-01  0.29783308108E+01  0.29927614922E+01  0.00000000000E+00 0. -1.
</event>
<event>
 5    1  0.2111786E+001  0.1567368E+01  0.7818608E-02  0.3389561E+00
         11   -1    0    0    0    0  0.00000000000E+00  0.00000000000E+00  0.39999999674E+01  0.40000000000E+01  0.51100000000E-03 0.  1.
    9000002   -1    0    0    0    0 -0.00000000000E+00 -0.00000000000E+00  0.00000000000E+00  0.93800000000E+00  0.93800000000E+00 0. -1.
         11    1    1    2    0    0  0.31512731001E-01 -0.19153070470E+00  0.14251803320E+01  0.14383380350E+01  0.51100000000E-03 0.  1.
    9000002    1    1    2    0    0  0.10110058028E+00 -0.12892124566E-01  0.30824871771E-01  0.94402420887E+00  0.93800000000E+00 0. -1.
         22    1    1    2    0    0 -0.13261331128E+00  0.20442282927E+00  0.25439947635E+01  0.25556377561E+01  0.00000000000E+00 0.  1.
</event>
<event>
 5    1  0.2111786E+001  0.1528530E+01  0.7818608E-02  0.3434785E+00
         11   -1    0    0    0    0  0.00000000000E+00  0.00000000000E+00  0.39999999674E+01  0.40000000000E+01  0.51100000000E-03 0. -1.
    9000002   -1    0    0    0    0 -0.00000000000E+00 -0.00000000000E+00  0.00000000000E+00  0.93800000000E+00  0.93800000000E+00 0.  1.
         11    1    1    2    0    0  0.15616108452E+00 -0.25200085931E+00  0.95993886316E+00  0.10046758679E+01  0.51100000000E-03 0. -1.
    9000002    1    1    2    0    0 -0.59049477173E-01  0.56021141489E-01  0.58060916357E-01  0.94331345748E+00  0.93800000000E+00 0.  1.
         22    1    1    2    0    0 -0.97111607343E-01  0.19597971782E+00  0.29820001878E+01  0.29900106746E+01  0.00000000000E+00 0. -1.
</event>
<event>
 5    1  0.2111786E+001  0.1568199E+01  0.7818608E-02  0.3388620E+00
         11   -1    0    0    0    0  0.00000000000E+00  0.00000000000E+00  0.39999999674E+01  0.40000000000E+01  0.51100000000E-03 0. -1.
    9000002   -1    0    0    0    0 -0.00000000000E+00 -0.00000000000E+00  0.00000000000E+00  0.93800000000E+00  0.93800000000E+00 0.  1.
         11    1    1    2    0    0  0.44868186996E+00  0.17923400922E+00  0.24657524837E+01  0.25126431944E+01  0.51100000000E-03 0. -1.
    9000002    1    1    2    0    0 -0.70866291442E+00  0.24300326568E-01  0.39687161151E+00  0.12410256678E+01  0.93800000000E+00 0.  1.
         22    1    1    2    0    0  0.25998104446E+00 -0.20353433579E+00  0.11373758722E+01  0.11843311378E+01  0.00000000000E+00 0. -1.
</event>
<event>
 5    1  0.2111786E+001  0.1549959E+01  0.7818608E-02  0.3409534E+00
         11   -1    0    0    0    0  0.00000000000E+00  0.00000000000E+00  0.39999999674E+01  0.40000000000E+01  0.51100000000E-03 0.  1.
    9000002   -1    0    0    0    0 -0.00000000000E+00 -0.00000000000E+00  0.00000000000E+00  0.93800000000E+00  0.93800000000E+00 0. -1.
         11    1    1    2    0    0 -0.11144579122E+00  0.23125538550E+00  0.25112889905E+01  0.25243755412E+01  0.51100000000E-03 0.  1.
    9000002    1    1    2    0    0 -0.56133917880E-01 -0.29103811636E-01  0.39649476534E-01  0.94096446776E+00  0.93800000000E+00 0. -1.
         22    1    1    2    0    0  0.16757970910E+00 -0.20215157386E+00  0.14490615003E+01  0.14726599911E+01  0.00000000000E+00 0.  1.
</event>
<event>
 5    1  0.2111786E+001  0.1344880E+01  0.7818608E-02  0.3699516E+00
         11   -1    0    0    0    0  0.00000000000E+00  0.00000000000E+00  0.39999999674E+01  0.40000000000E+01  0.51100000000E-03 0.  1.
    9000002   -1    0    0    0    0 -0.00000000000E+00 -0.00000000000E+00  0.00000000000E+00  0.93800000000E+00  0.93800000000E+00 0.  1.
         11    1    1    2    0    0  0.12103085600E-01 -0.66675446393E+00  0.13363091033E+01  0.14934625140E+01  0.51100000000E-03 0.  1.
    9000002    1    1    2    0    0  0.84335807538E-01  0.22282936122E+00  0.26528265291E+00  0.10034860929E+01  0.93800000000E+00 0.  1.
         22    1    1    2    0    0 -0.96438893138E-01  0.44392510271E+00  0.23984082111E+01  0.24410513932E+01  0.00000000000E+00 0.  1.
</event>
<event>
 5    1  0.2111786E+001  0.1577254E+01  0.7818608E-02  0.3378427E+00
         11   -1    0    0    0    0  0.00000000000E+00  0.00000000000E+00  0.39999999674E+01  0.40000000000E+01  0.51100000000E-03 0. -1.
    9000002   -1    0    0    0    0 -0.00000000000E+00 -0.00000000000E+00  0.00000000000E+00  0.93800000000E+00  0.93800000000E+00 0. -1.
         11    1    1    2    0    0  0.56487181507E-01 -0.11916317154E+00  0.99368095795E+00  0.10023935207E+01  0.51100000000E-03 0. -1.
    9000002    1    1    2    0    0 -0.14889308006E-01 -0.11094770519E+00  0.24851589097E-01  0.94498290263E+00  0.93800000000E+00 0. -1.
         22    1    1    2    0    0 -0.41597873501E-01  0.23011087672E+00  0.29814674203E+01  0.29906235766E+01  0.00000000000E+00 0. -1.
</event>
<event>
 5    1  0.2111786E+001  0.1583020E+01  0.7818608E-02  0.3372002E+00
         11   -1    0    0    0    0  0.00000000000E+00  0.00000000000E+00  0.39999999674E+01  0.40000000000E+01  0.51100000000E-03 0. -1.
    9000002   -1    0    0    0    0 -0.00000000000E+00 -0.00000000000E+00  0.00000000000E+00  0.93800000000E+00  0.93800000000E+00 0. -1.
         11    1    1    2    0    0 -0.92757972057E-01 -0.46992949621E-01  0.13125522737E+01  0.13166647679E+01  0.51100000000E-03 0. -1.
    9000002    1    1    2    0    0  0.35305127308E+00 -0.28686742202E+00  0.15523932946E+00  0.10539835713E+01  0.93800000000E+00 0. -1.
         22    1    1    2    0    0 -0.26029330102E+00  0.33386037164E+00  0.25322083642E+01  0.25673516608E+01  0.00000000000E+00 0. -1.
</event>
<event>
 5    1  0.2111786E+001  0.1509923E+01  0.7818608E-02  0.3457334E+00
         11   -1    0    0    0    0  0.00000000000E+00  0.00000000000E+00  0.39999999674E+01  0.40000000000E+01  0.51100000000E-03 0. -1.
    9000002   -1    0    0    0    0 -0.00000000000E+00 -0.00000000000E+00  0.00000000000E+00  0.93800000000E+00  0.93800000000E+00 0. -1.
         11    1    1    2    0    0 -0.10434492036E+00  0.10888536892E+00  0.15882073390E+00  0.21901637520E+00  0.51100000000E-03 0. -1.
    9000002    1    1    2    0    0 -0.82187146208E-02  0.73960017220E-01  0.72004656101E-01  0.94369820489E+00  0.93800000000E+00 0. -1.
         22    1    1    2    0    0  0.11256363498E+00 -0.18284538614E+00  0.37691745774E+01  0.37752854199E+01  0.00000000000E+00 0. -1.
</event>
<event>
 5    1  0.2111786E+001  0.1552040E+01  0.7818608E-02  0.3407121E+00
         11   -1    0    0    0    0  0.00000000000E+00  0.00000000000E+00  0.39999999674E+01  0.40000000000E+01  0.51100000000E-03 0. -1.
    9000002   -1    0    0    0    0 -0.00000000000E+00 -0.00000000000E+00  0.00000000000E+00  0.93800000000E+00  0.93800000000E+00 0.  1.
         11    1    1    2    0    0  0.11216223969E+00 -0.12164584361E+00  0.40124580491E+00  0.43402365876E+00  0.51100000000E-03 0. -1.
    9000002    1    1    2    0    0  0.10473672274E+00  0.16543995810E+00  0.61910095655E-01  0.96021717375E+00  0.93800000000E+00 0.  1.
         22    1    1    2    0    0 -0.21689896243E+00 -0.43794114490E-01  0.35368440668E+01  0.35437591675E+01  0.00000000000E+00 0. -1.
</event>
<event>
 5    1  0.2111786E+001  0.1519638E+01  0.7818608E-02  0.3445487E+00
         11   -1    0    0    0    0  0.00000000000E+00  0.00000000000E+00  0.39999999674E+01  0.40000000000E+01  0.51100000000E-03 0.  1.
    9000002   -1    0    0    0    0 -0.00000000000E+00 -0.00000000000E+00  0.00000000000E+00  0.93800000000E+00  0.93800000000E+00 0.  1.
         11    1    1    2    0    0  0.25656140969E+00 -0.11065156568E+00  0.79449836663E+00  0.84219679507E+00  0.51100000000E-03 0.  1.
    9000002    1    1    2    0    0  0.96038450750E-02  0.74645306985E-01  0.64374459807E-01  0.94321377575E+00  0.93800000000E+00 0.  1.
         22    1    1    2    0    0 -0.26616525476E+00  0.36006258692E-01  0.31411271409E+01  0.31525894292E+01  0.00000000000E+00 0.  1.
</event>
<event>
 5    1  0.2111786E+001  0.1542367E+01  0.7818608E-02  0.3418394E+00
         11   -1    0    0    0    0  0.00000000000E+00  0.00000000000E+00  0.39999999674E+01  0.40000000000E+01  0.51100000000E-03 0.  1.
    9000002   -1    0    0    0    0 -0.00000000000E+00 -0.00000000000E+00  0.00000000000E+00  0.93800000000E+00  0.93800000000E+00 0. -1.
         11    1    1    2    0    0  0.68326133540E-02  0.22366589582E+00  0.74504975218E+00  0.77792834626E+00  0.51100000000E-03 0.  1.
    9000002    1    1    2    0    0 -0.17793416161E+00  0.91330292852E-02  0.64909988952E-01  0.95697507008E+00  0.93800000000E+00 0. -1.
         22    1    1    2    0    0  0.17110154825E+00 -0.23279892511E+00  0.31900402262E+01  0.32030965837E+01  0.00000000000E+00 0.  1.
</event>
<event>
 5    1  0.2111786E+001  0.1532606E+01  0.7818608E-02  0.3429924E+00
         11   -1    0    0    0    0  0.00000000000E+00  0.00000000000E+00  0.39999999674E+01  0.40000000000E+01  0.51100000000E-03 0.  1.
    9000002   -1    0    0    0    0 -0.00000000000E+00 -0.00000000000E+00  0.00000000000E+00  0.93800000000E+00  0.93800000000E+00 0.  1.
         11    1    1    2    0    0  0.16475034057E+00  0.20585853037E+00  0.10817499600E+00  0.28499561423E+00  0.51100000000E-03 0.  1.
    9000002    1    1    2    0    0 -0.26184396929E+00  0.67664622486E-01  0.26086575725E+00  0.10104631159E+01  0.93800000000E+00 0.  1.
         22    1    1    2    0    0  0.97093628716E-01 -0.27352315286E+00  0.36309592141E+01  0.36425412698E+01  0.00000000000E+00 0.  1.
</event>
<event>
 5    1  0.2111786E+001  0.1463824E+01  0.7818608E-02  0.3515865E+00
         11   -1    0    0    0    0  0.00000000000E+00  0.00000000000E+00  0.39999999674E+01  0.40000000000E+01  0.51100000000E-03 0. -1.
    9000002   -1    0    0    0    0 -0.00000000000E+00 -0.00000000000E+00  0.00000000000E+00  0.93800000000E+00  0.93800000000E+00 0. -1.
         11    1    1    2    0    0 -0.44975830846E+00  0.16521014073E+00  0.91858882899E+00  0.10360418063E+01  0.51100000000E-03 0. -1.
    9000002    1    1    2    0    0  0.19332589451E+00 -0.70795850860E-01  0.16697166050E+00  0.97473611270E+00  0.93800000000E+00 0. -1.
         22    1    1    2    0    0  0.25643241395E+00 -0.94414289865E-01  0.29144394779E+01  0.29272220810E+01  0.00000000000E+00 0. -1.
</event>
<event>
 5    1  0.2111786E+001  0.1553401E+01  0.7818608E-02  0.3405548E+00
         11   -1    0    0    0    0  0.00000000000E+00  0.00000000000E+00  0.39999999674E+01  0.40000000000E+01  0.51100000000E-03 0. -1.
    9000002   -1    0    0    0    0 -0.00000000000E+00 -0.00000000000E+00  0.00000000000E+00  0.93800000000E+00  0.93800000000E+00 0.  1.
         11    1    1    2    0    0  0.20823475943E+00  0.20894337278E+00  0.28311184829E+01  0.28464453576E+01  0.51100000000E-03 0. -1.
    9000002    1    1    2    0    0 -0.17576290114E+00  0.13139347874E-01  0.55773441125E-01  0.95604388843E+00  0.93800000000E+00 0.  1.
         22    1    1    2    0    0 -0.32471858294E-01 -0.22208272065E+00  0.11131080433E+01  0.11355107540E+01  0.00000000000E+00 0. -1.
</event>
<event>
 5    1  0.2111786E+001  0.1536921E+01  0.7818608E-02  0.3424808E+00
         11   -1    0    0    0    0  0.00000000000E+00  0.00000000000E+00  0.39999999674E+01  0.40000000000E+01  0.51100000000E-03 0.  1.
    9000002   -1    0    0    0    0 -0.00000000000E+00 -0.00000000000E+00  0.00000000000E+00  0.93800000000E+00  0.93800000000E+00 0.  1.
         11    1    1    2    0    0 -0.14987499758E+00 -0.24408535190E+00  0.10808879023E+01  0.11181945682E+01  0.51100000000E-03 0.  1.
    9000002    1    1    2    0    0 -0.53994905627E-01  0.10982135850E+00  0.57387799941E-01  0.94768852489E+00  0.93800000000E+00 0.  1.
         22    1    1    2    0    0  0.20386990321E+00  0.13426399340E+00  0.28617242652E+01  0.28721169069E+01  0.00000000000E+00 0.  1.
</event>
<event>
 5    1  0.2111786E+001  0.1578004E+01  0.7818608E-02  0.3377588E+00
         11   -1    0    0    0    0  0.00000000000E+00  0.00000000000E+00  0.39999999674E+01  0.40000000000E+01  0.51100000000E-03 0. -1.
    9000002   -1    0    0    0    0 -0.00000000000E+00 -0.00000000000E+00  0.00000000000E+00  0.93800000000E+00  0.93800000000E+00 0.  1.
         11    1    1    2    0    0  0.16539534774E-01 -0.13968704403E+00  0.10358894052E+01  0.10453961677E+01  0.51100000000E-03 0. -1.
    9000002    1    1    2    0    0  0.60801146642E-01 -0.47805349435E-01  0.19877393339E-01  0.94139324495E+00  0.93800000000E+00 0.  1.
         22    1    1    2    0    0 -0.77340681416E-01  0.18749239347E+00  0.29442331688E+01  0.29512105873E+01  0.00000000000E+00 0. -1.
</event>
<event>
 5    1  0.2111786E+001  0.1378412E+01  0.7818608E-02  0.3642113E+00
         11   -1    0    0    0    0  0.00000000000E+00  0.00000000000E+00  0.39999999674E+01  0.40000000000E+01  0.51100000000E-03 0.  1.
    9000002   -1    0    0    0    0 -0.00000000000E+00 -0.00000000000E+00  0.00000000000E+00  0.93800000000E+00  0.93800000000E+00 0. -1.
         11    1    1    2    0    0  0.16276472838E+00 -0.58877853975E+00  0.95669077247E+00  0.11350815041E+01  0.51100000000E-03 0.  1.
    9000002    1    1    2    0    0 -0.50295974556E-01  0.37964252090E+00  0.31030604769E+00  0.10596187861E+01  0.93800000000E+00 0. -1.
         22    1    1    2    0    0 -0.11246875382E+00  0.20913601885E+00  0.27330031472E+01  0.27432997098E+01  0.00000000000E+00 0.  1.
</event>
<event>
 5    1  0.2111786E+001  0.1525309E+01  0.7818608E-02  0.3438646E+00
         11   -1    0    0    0    0  0.00000000000E+00  0.00000000000E+00  0.39999999674E+01  0.40000000000E+01  0.51100000000E-03 0. -1.
    9000002   -1    0    0    0    0 -0.00000000000E+00 -0.00000000000E+00  0.00000000000E+00  0.93800000000E+00  0.93800000000E+00 0.  1.
         11    1    1    2    0    0 -0.16817611806E+00  0.15961865035E+00  0.53197600838E+00  0.58031030910E+00  0.51100000000E-03 0. -1.
    9000002    1    1    2    0    0  0.30296802176E-01 -0.10781858483E-01  0.56619465233E-01  0.94025736293E+00  0.93800000000E+00 0.  1.
         22    1    1    2    0    0  0.13787931589E+00 -0.14883679187E+00  0.34114044937E+01  0.34174323280E+01  0.00000000000E+00 0. -1.
</event>
<event>
 5    1  0.2111786E+001  0.1505490E+01  0.7818608E-02  0.3462794E+00
         11   -1    0    0    0    0  0.00000000000E+00  0.00000000000E+00  0.39999999674E+01  0.40000000000E+01  0.51100000000E-03 0.  1.
    9000002   -1    0    0    0    0 -0.00000000000E+00 -0.00000000000E+00  0.00000000000E+00  0.93800000000E+00  0.93800000000E+00 0.  1.
         11    1    1    2    0    0 -0.54377555739E+00 -0.17331261585E+00  0.82096715147E+00  0.99985821222E+00  0.51100000000E-03 0.  1.
    9000002    1    1    2    0    0  0.32520332653E+00  0.33784713481E+00  0.36432337471E+00  0.11101681906E+01  0.93800000000E+00 0.  1.
         22    1    1    2    0    0  0.21857223086E+00 -0.16453451895E+00  0.28147094412E+01  0.28279735972E+01  0.00000000000E+00 0.  1.
</event>
<event>
 5    1  0.2111786E+001  0.1545471E+01  0.7818608E-02  0.3414760E+00
         11   -1    0    0    0    0  0.00000000000E+00  0.00000000000E+00  0.39999999674E+01  0.40000000000E+01  0.51100000000E-03 0. -1.
    9000002   -1    0    0    0    0 -0.00000000000E+00 -0.00000000000E+00  0.00000000000E+00  0.93800000000E+00  0.93800000000E+00 0. -1.
         11    1    1    2    0    0  0.29721513031E-01  0.25400212884E+00  0.13038964670E+01  0.13287387658E+01  0.51100000000E-03 0. -1.
    9000002    1    1    2    0    0 -0.63410705572E-01  0.28724591918E-01  0.43673600128E-01  0.94159301352E+00  0.93800000000E+00 0. -1.
         22    1    1    2    0    0  0.33689192540E-01 -0.28272672076E+00  0.26524299002E+01  0.26676682207E+01  0.00000000000E+00 0. -1.
</event>
<event>
 5    1  0.2111786E+001  0.1480574E+01  0.7818608E-02  0.3494142E+00
         11   -1    0    0    0    0  0.00000000000E+00  0.00000000000E+00  0.39999999674E+01  0.40000000000E+01  0.51100000000E-03 0.  1.
    9000002   -1    0    0    0    0 -0.00000000000E+00 -0.00000000000E+00  0.00000000000E+00  0.93800000000E+00  0.93800000000E+00 0. -1.
         11    1    1    2    0    0  0.56105769812E-02  0.58607564194E+00  0.18203035176E+01  0.19123339912E+01  0.51100000000E-03 0.  1.
    9000002    1    1    2    0    0 -0.84634278272E-01 -0.35678123305E+00  0.19453027096E+00  0.10257396530E+01  0.93800000000E+00 0. -1.
         22    1    1    2    0    0  0.79023701291E-01 -0.22929440889E+00  0.19851661788E+01  0.19999263559E+01  0.00000000000E+00 0.  1.
</event>
<event>
 5    1  0.2111786E+001  0.1524645E+01  0.7818608E-02  0.3439444E+00
         11   -1    0    0    0    0  0.00000000000E+00  0.00000000000E+00  0.39999999674E+01  0.40000000000E+01  0.51100000000E-03 0. -1.
    9000002   -1    0    0    0    0 -0.00000000000E+00 -0.00000000000E+00  0.00000000000E+00  0.93800000000E+00  0.93800000000E+00 0.  1.
         11    1    1    2    0    0 -0.20019365865E+00  0.60587661102E-01  0.30412568452E+01  0.30484408843E+01  0.51100000000E-03 0. -1.
    9000002    1    1    2    0    0 -0.75620469831E-02  0.16247400359E+00  0.75260002309E-01  0.95496756717E+00  0.93800000000E+00 0.  1.
         22    1    1    2    0    0  0.20775570563E+00 -0.22306166469E+00  0.88348311989E+00  0.93459154854E+00  0.00000000000E+00 0. -1.
</event>
<event>
 5    1  0.2111786E+001  0.1581072E+01  0.7818608E-02  0.3374167E+00
         11   -1    0    0    0    0  0.00000000000E+00  0.00000000000E+00  0.39999999674E+01  0.40000000000E+01  0.51100000000E-03 0. -1.
    9000002   -1    0    0    0    0 -0.00000000000E+00 -0.00000000000E+00  0.00000000000E+00  0.93800000000E+00  0.93800000000E+00 0.  1.
         11    1    1    2    0    0  0.17014793483E+00 -0.10574987084E+00  0.19944992794E+01  0.20045351060E+01  0.51100000000E-03 0. -1.
    9000002    1    1    2    0    0 -0.22641053188E+00 -0.96185087707E-01  0.54516730407E-01  0.97125144733E+00  0.93800000000E+00 0.  1.
         22    1    1    2    0    0  0.56262597046E-01  0.20193495855E+00  0.19509839576E+01  0.19622134466E+01  0.00000000000E+00 0. -1.
</event>
<event>
 5    1  0.2111786E+001  0.1535602E+01  0.7818608E-02  0.3426368E+00
         11   -1    0    0    0    0  0.00000000000E+00  0.00000000000E+00  0.39999999674E+01  0.40000000000E+01  0.51100000000E-03 0.  1.
    9000002   -1    0    0    0    0 -0.00000000000E+00 -0.00000000000E+00  0.00000000000E+00  0.93800000000E+00  0.93800000000E+00 0.  1.
         11    1    1    2    0    0 -0.31807967348E+00 -0.22358902980E+00  0.24195149987E+01  0.24505550031E+01  0.51100000000E-03 0.  1.
    9000002    1    1    2    0    0  0.10028047679E+00  0.12177006021E+00  0.65416406274E-01  0.95341881028E+00  0.93800000000E+00 0.  1.
         22    1    1    2    0    0  0.21779919669E+00  0.10181896959E+00  0.15150685624E+01  0.15340261867E+01  0.00000000000E+00 0.  1.
</event>
<event>
 5    1  0.2111786E+001  0.1543331E+01  0.7818608E-02  0.3417264E+00
         11   -1    0    0    0    0  0.00000000000E+00  0.00000000000E+00  0.39999999674E+01  0.40000000000E+01  0.51100000000E-03 0. -1.
    9000002   -1    0    0    0    0 -0.00000000000E+00 -0.00000000000E+00  0.00000000000E+00  0.93800000000E+00  0.93800000000E+00 0.  1.
         11    1    1    2    0    0 -0.30560316091E+00  0.19033917721E+00  0.21830158946E+01  0.22125055823E+01  0.51100000000E-03 0. -1.
    9000002    1    1    2    0    0  0.11186314445E+00 -0.80322373607E-01  0.55181254217E-01  0.94965994841E+00  0.93800000000E+00 0.  1.
         22    1    1    2    0    0  0.19374001646E+00 -0.11001680360E+00  0.17618028185E+01  0.17758344693E+01  0.00000000000E+00 0. -1.
</event>
<event>
 5    1  0.2111786E+001  0.1569980E+01  0.7818608E-02  0.3386605E+00
         11   -1    0    0    0    0  0.00000000000E+00  0.00000000000E+00  0.39999999674E+01  0.40000000000E+01  0.51100000000E-03 0.  1.
    9000002   -1    0    0    0    0 -0.00000000000E+00 -0.00000000000E+00  0.00000000000E+00  0.93800000000E+00  0.93800000000E+00 0.  1.
         11    1    1    2    0    0 -0.13316652946E-03 -0.83928846355E-01  0.30972583118E+01  0.30983952911E+01  0.51100000000E-03 0.  1.
    9000002    1    1    2    0    0 -0.12966271834E+00 -0.70812162425E-01  0.36644683585E-01  0.95027028561E+00  0.93800000000E+00 0.  1.
         22    1    1    2    0    0  0.12979588487E+00  0.15474100878E+00  0.86609697197E+00  0.88933442325E+00  0.00000000000E+00 0. -1.
</event>
<event>
 5    1  0.2111786E+001  0.1502535E+01  0.7818608E-02  0.3466454E+00
         11   -1    0    0    0    0  0.00000000000E+00  0.00000000000E+00  0.39999999674E+01  0.40000000000E+01  0.51100000000E-03 0. -1.
    9000002   -1    0    0    0    0 -0.00000000000E+00 -0.00000000000E+00  0.00000000000E+00  0.93800000000E+00  0.93800000000E+00 0.  1.
         11    1    1    2    0    0 -0.17299073670E+00 -0.14231366078E+00  0.35738644370E+00  0.42178703666E+00  0.51100000000E-03 0. -1.
    9000002    1    1    2    0    0 -0.33565565737E-01  0.51750658521E-01  0.76673517303E-01  0.94314771172E+00  0.93800000000E+00 0.  1.
         22    1    1    2    0    0  0.20655630244E+00  0.90563002261E-01  0.35659400064E+01  0.35730652516E+01  0.00000000000E+00 0. -1.
</event>
<event>
 5    1  0.2111786E+001  0.1413349E+01  0.7818608E-02  0.3585716E+00
         11   -1    0    0    0    0  0.00000000000E+00  0.00000000000E+00  0.39999999674E+01  0.40000000000E+01  0.51100000000E-03 0.  1.
    9000002   -1    0    0    0    0 -0.00000000000E+00 -0.00000000000E+00  0.00000000000E+00  0.93800000000E+00  0.93800000000E+00 0. -1.
         11    1    1    2    0    0  0.24338357363E+00  0.70140942283E+00  0.17187615456E+01  0.18722585970E+01  0.51100000000E-03 0.  1.
    9000002    1    1    2    0    0 -0.24548121338E+00 -0.41233753318E+00  0.34592874954E+00  0.11089607600E+01  0.93800000000E+00 0. -1.
         22    1    1    2    0    0  0.20976397487E-02 -0.28907188965E+00  0.19353096722E+01  0.19567806430E+01  0.00000000000E+00 0.  1.
</event>
<event>
 5    1  0.2111786E+001  0.1498361E+01  0.7818608E-02  0.3471649E+00
         11   -1    0    0    0    0  0.00000000000E+00  0.00000000000E+00  0.39999999674E+01  0.40000000000E+01  0.51100000000E-03 0.  1.
    9000002   -1    0    0    0    0 -0.00000000000E+00 -0.00000000000E+00  0.00000000000E+00  0.93800000000E+00  0.93800000000E+00 0. -1.
         11    1    1    2    0    0  0.36352714754E+00  0.10674116512E+00  0.32223842133E+01  0.32445810118E+01  0.51100000000E-03 0.  1.
    9000002    1    1    2    0    0 -0.96833909727E-01 -0.31839945535E-01  0.84858845396E-01  0.94733078270E+00  0.93800000000E+00 0. -1.
         22    1    1    2    0    0 -0.26669323781E+00 -0.74901219589E-01  0.69275690870E+00  0.74608820547E+00  0.00000000000E+00 0.  1.
</event>
<event>
 5    1  0.2111786E+001  0.1553364E+01  0.7818608E-02  0.3405590E+00
         11   -1    0    0    0    0  0.00000000000E+00  0.00000000000E+00  0.39999999674E+01  0.40000000000E+01  0.51100000000E-03 0.  1.
    9000002   -1    0    0    0    0 -0.00000000000E+00 -0.00000000000E+00  0.00000000000E+00  0.93800000000E+00  0.93800000000E+00 0.  1.
         11    1    1    2    0    0 -0.16745055406E+00 -0.18162562677E+00  0.13339175768E+01  0.13566001324E+01  0.51100000000E-03 0.  1.
    9000002    1    1    2    0    0 -0.83687215802E-01  0.10095998623E+00  0.46174691954E-01  0.94824710444E+00  0.93800000000E+00 0.  1.
         22    1    1    2    0    0  0.25113776986E+00  0.80665640533E-01  0.26199076986E+01  0.26331527632E+01  0.00000000000E+00 0.  1.
</event>
<event>
 5    1  0.2111786E+001  0.1573883E+01  0.7818608E-02  0.3382208E+00
         11   -1    0    0    0    0  0.00000000000E+00  0.00000000000E+00  0.39999999674E+01  0.40000000000E+01  0.51100000000E-03 0.  1.
    9000002   -1    0    0    0    0 -0.00000000000E+00 -0.00000000000E+00  0.00000000000E+00  0.93800000000E+00  0.93800000000E+00 0.  1.
         11    1    1    2    0    0 -0.26256948763E-02  0.11434877145E+00  0.55499020851E+00  0.56665415243E+00  0.51100000000E-03 0.  1.
    9000002    1    1    2    0    0 -0.20440088868E+00  0.11783119949E+00  0.56796721268E-01  0.96888274957E+00  0.93800000000E+00 0.  1.
         22    1    1    2    0    0  0.20702658355E+00 -0.23217997094E+00  0.33882130376E+01  0.34024630980E+01  0.00000000000E+00 0.  1.
</event>
<event>
 5    1  0.2111786E+001  0.1583597E+01  0.7818608E-02  0.3371361E+00
         11   -1    0    0    0    0  0.00000000000E+00  0.00000000000E+00  0.39999999674E+01  0.40000000000E+01  0.51100000000E-03 0.  1.
    9000002   -1    0    0    0    0 -0.00000000000E+00 -0.00000000000E+00  0.00000000000E+00  0.93800000000E+00  0.93800000000E+00 0.  1.
         11    1    1    2    0    0  0.35587942241E-01  0.22494214641E-01  0.25946138108E+01  0.25949554099E+01  0.51100000000E-03 0.  1.
    9000002    1    1    2    0    0 -0.19622119193E-01  0.18520168888E+00  0.35035262139E-01  0.95695149444E+00  0.93800000000E+00 0.  1.
         22    1    1    2    0    0 -0.15965823048E-01 -0.20769590352E+00  0.13703508945E+01  0.13860930956E+01  0.00000000000E+00 0. -1.
</event>
<event>
 5    1  0.2111786E+001  0.1571056E+01  0.7818608E-02  0.3385390E+00
         11   -1    0    0    0    0  0.00000000000E+00  0.00000000000E+00  0.39999999674E+01  0.40000000000E+01  0.51100000000E-03 0. -1.
    9000002   -1    0    0    0    0 -0.00000000000E+00 -0.00000000000E+00  0.00000000000E+00  0.93800000000E+00  0.93800000000E+00 0. -1.
         11    1    1    2    0    0  0.17949153464E+00 -0.55798749071E-01  0.13565450518E+01  0.13695055495E+01  0.51100000000E-03 0. -1.
    9000002    1    1    2    0    0  0.23834669718E-01  0.29934154995E-01  0.21998936433E-01  0.93903785777E+00  0.93800000000E+00 0. -1.
         22    1    1    2    0    0 -0.20332620436E+00  0.25864594076E-01  0.26214559791E+01  0.26294565927E+01  0.00000000000E+00 0. -1.
</event>
<event>
 5    1  0.2111786E+001  0.1557225E+01  0.7818608E-02  0.3401140E+00
         11   -1    0    0    0    0  0.00000000000E+00  0.00000000000E+00  0.39999999674E+01  0.40000000000E+01  0.51100000000E-03 0. -1.
    9000002   -1    0    0    0    0 -0.00000000000E+00 -0.00000000000E+00  0.00000000000E+00  0.93800000000E+00  0.93800000000E+00 0.  1.
         11    1    1    2    0    0 -0.20486378202E+00  0.18093539496E-01  0.97055459263E+00  0.99210534912E+00  0.51100000000E-03 0. -1.
    9000002    1    1    2    0    0 -0.34925607034E-01 -0.36866474730E-01  0.33147371604E-01  0.93995834122E+00  0.93800000000E+00 0.  1.
         22    1    1    2    0    0  0.23978938905E+00  0.18772935235E-01  0.29962980031E+01  0.30059363097E+01  0.00000000000E+00 0. -1.
</event>
<event>
 5    1  0.2111786E+001  0.1511529E+01  0.7818608E-02  0.3455364E+00
         11   -1    0    0    0    0  0.00000000000E+00  0.00000000000E+00  0.39999999674E+01  0.40000000000E+01  0.51100000000E-03 0. -1.
    9000002   -1    0    0    0    0 -0.00000000000E+00 -0.00000000000E+00  0.00000000000E+00  0.93800000000E+00  0.93800000000E+00 0. -1.
         11    1    1    2    0    0  0.13472202073E+00  0.23618691109E+00  0.30856023264E+01  0.30975597263E+01  0.51100000000E-03 0. -1.
    9000002    1    1    2    0    0  0.53178412646E-01  0.20737664794E-02  0.68773550698E-01  0.94202231680E+00  0.93800000000E+00 0. -1.
         22    1    1    2    0    0 -0.18790043338E+00 -0.23826067757E+00  0.84562409024E+00  0.89841795693E+00  0.00000000000E+00 0. -1.
</event>
<event>
 5    1  0.2111786E+001  0.1593143E+01  0.7818608E-02  0.3360839E+00
         11   -1    0    0    0    0  0.00000000000E+00  0.00000000000E+00  0.39999999674E+01  0.40000000000E+01  0.51100000000E-03 0. -1.
    9000002   -1    0    0    0    0 -0.00000000000E+00 -0.00000000000E+00  0.00000000000E+00  0.93800000000E+00  0.93800000000E+00 0.  1.
         11    1    1    2    0    0  0.36078508194E-01 -0.41212941011E-01  0.10691054754E+01  0.10705077972E+01  0.51100000000E-03 0. -1.
    9000002    1    1    2    0    0  0.18081941342E+00  0.93298542652E-01  0.32331887277E-01  0.96035911474E+00  0.93800000000E+00 0.  1.
         22    1    1    2    0    0 -0.21689792162E+00 -0.52085601641E-01  0.28985626047E+01  0.29071330881E+01  0.00000000000E+00 0. -1.
</event>
<event>
 5    1  0.2111786E+001  0.1570249E+01  0.7818608E-02  0.3386301E+00
         11   -1    0    0    0    0  0.00000000000E+00  0.00000000000E+00  0.39999999674E+01  0.40000000000E+01  0.51100000000E-03 0. -1.
    9000002   -1    0    0    0    0 -0.00000000000E+00 -0.00000000000E+00  0.00000000000E+00  0.93800000000E+00  0.93800000000E+00 0. -1.
         11    1    1    2    0    0  0.55873235028E+00  0.51280569929E-01  0.17915739029E+01  0.18773781842E+01  0.51100000000E-03 0. -1.
    9000002    1    1    2    0    0 -0.75167970125E+00  0.11333282779E+00  0.45704083329E+00  0.12909674769E+01  0.93800000000E+00 0. -1.
         22    1    1    2    0    0  0.19294735097E+00 -0.16461339772E+00  0.17513852312E+01  0.17696543389E+01  0.00000000000E+00 0. -1.
</event>
<event>
 5    1  0.2111786E+001  0.1564626E+01  0.7818608E-02  0.3392675E+00
         11   -1    0    0    0    0  0.00000000000E+00  0.00000000000E+00  0.39999999674E+01  0.40000000000E+01  0.51100000000E-03 0.  1.
    9000002   -1    0    0    0    0 -0.00000000000E+00 -0.00000000000E+00  0.00000000000E+00  0.93800000000E+00  0.93800000000E+00 0. -1.
         11    1    1    2    0    0  0.29698812847E+00 -0.24248357551E+00  0.23509490043E+01  0.23820079166E+01  0.51100000000E-03 0.  1.
    9000002    1    1    2    0    0 -0.12905589077E+00  0.35820057303E+00  0.12691217109E+00  0.10202518182E+01  0.93800000000E+00 0. -1.
         22    1    1    2    0    0 -0.16793223770E+00 -0.11571699751E+00  0.15221387919E+01  0.15357402651E+01  0.00000000000E+00 0.  1.
</event>
<event>
 5    1  0.2111786E+001  0.1582722E+01  0.7818608E-02  0.3372332E+00
         11   -1    0    0    0    0  0.00000000000E+00  0.00000000000E+00  0.39999999674E+01  0.40000000000E+01  0.51100000000E-03 0. -1.
    9000002   -1    0    0    0    0 -0.00000000000E+00 -0.00000000000E+00  0.00000000000E+00  0.93800000000E+00  0.93800000000E+00 0.  1.
         11    1    1    2    0    0  0.98243231914E-01 -0.18466110001E-01  0.79426855977E+00  0.80053453142E+00  0.51100000000E-03 0. -1.
    9000002    1    1    2    0    0 -0.11842217391E-02  0.47901453990E+00  0.17169105116E+00  0.10671354876E+01  0.93800000000E+00 0.  1.
         22    1    1    2    0    0 -0.97059010175E-01 -0.46054842990E+00  0.30340403564E+01  0.30703299810E+01  0.00000000000E+00 0. -1.
</event>
<event>
 5    1  0.2111786E+001  0.1565994E+01  0.7818608E-02  0.3391120E+00
         11   -1    0    0    0    0  0.00000000000E+00  0.00000000000E+00  0.39999999674E+01  0.40000000000E+01  0.51100000000E-03 0. -1.
    9000002   -1    0    0    0    0 -0.00000000000E+00 -0.00000000000E+00  0.00000000000E+00  0.93800000000E+00  0.93800000000E+00 0. -1.
         11    1    1    2    0    0 -0.23283014639E+00  0.12928692910E-01  0.22206420213E+01  0.22328520498E+01  0.51100000000E-03 0. -1.
    9000002    1    1    2    0    0  0.31165399775E-01  0.50367908727E-01  0.27173280049E-01  0.94026091885E+00  0.93800000000E+00 0. -1.
         22    1    1    2    0    0  0.20166474662E+00 -0.63296601638E-01  0.17521846660E+01  0.17648870314E+01  0.00000000000E+00 0. -1.
</event>
<event>
 5    1  0.2111786E+001  0.1515041E+01  0.7818608E-02  0.3451072E+00
         11   -1    0    0    0    0  0.00000000000E+00  0.00000000000E+00  0.39999999674E+01  0.40000000000E+01  0.51100000000E-03 0. -1.
    9000002   -1    0    0    0    0 -0.00000000000E+00 -0.00000000000E+00  0.00000000000E+00  0.93800000000E+00  0.93800000000E+00 0.  1.
         11    1    1    2    0    0 -0.27220902694E+00 -0.16885999976E+00  0.30232423421E+01  0.30401654518E+01  0.51100000000E-03 0. -1.
    9000002    1    1    2    0    0 -0.18605151369E-01  0.12138971982E+00  0.74791862494E-01  0.94895702665E+00  0.93800000000E+00 0.  1.
         22    1    1    2    0    0  0.29081417831E+00  0.47470279932E-01  0.90196576275E+00  0.94887752158E+00  0.00000000000E+00 0.  1.
</event>
<event>
 5    1  0.2111786E+001  0.1494332E+01  0.7818608E-02  0.3476693E+00
         11   -1    0    0    0    0  0.00000000000E+00  0.00000000000E+00  0.39999999674E+01  0.40000000000E+01  0.51100000000E-03 0.  1.
    9000002   -1    0    0    0    0 -0.00000000000E+00 -0.00000000000E+00  0.00000000000E+00  0.93800000000E+00  0.93800000000E+00 0.  1.
         11    1    1    2    0    0  0.86826730844E-01 -0.47776420671E+00  0.32983212327E+01  0.33338747328E+01  0.51100000000E-03 0.  1.
    9000002    1    1    2    0    0 -0.14508101308E+00  0.23607245453E+00  0.13761715057E+00  0.98770500873E+00  0.93800000000E+00 0.  1.
         22    1    1    2    0    0  0.58254282235E-01  0.24169175218E+00  0.56406158405E+00  0.61642025848E+00  0.00000000000E+00 0.  1.
</event>
<event>
 5    1  0.2111786E+001  0.1580349E+01  0.7818608E-02  0.3374972E+00
         11   -1    0    0    0    0  0.00000000000E+00  0.00000000000E+00  0.39999999674E+01  0.40000000000E+01  0.51100000000E-03 0.  1.
    9000002   -1    0    0    0    0 -0.00000000000E+00 -0.00000000000E+00  0.00000000000E+00  0.93800000000E+00  0.93800000000E+00 0.  1.
         11    1    1    2    0    0  0.12622109794E+00 -0.47117819855E-01  0.18009871981E+01  0.18060196575E+01  0.51100000000E-03 0.  1.
    9000002    1    1    2    0    0  0.71611221134E-01 -0.79787212642E-02  0.17605783334E-01  0.94092815379E+00  0.93800000000E+00 0.  1.
         22    1    1    2    0    0 -0.19783231908E+00  0.55096541119E-01  0.21814069859E+01  0.21910521887E+01  0.00000000000E+00 0. -1.
</event>
<event>
 5    1  0.2111786E+001  0.1579909E+01  0.7818608E-02  0.3375463E+00
         11   -1    0    0    0    0  0.00000000000E+00  0.00000000000E+00  0.39999999674E+01  0.40000000000E+01  0.51100000000E-03 0. -1.
    9000002   -1    0    0    0    0 -0.00000000000E+00 -0.00000000000E+00  0.00000000000E+00  0.93800000000E+00  0.93800000000E+00 0. -1.
         11    1    1    2    0    0  0.37580800436E-01  0.68277144975E-01  0.31130505811E+00  0.32091304962E+00  0.51100000000E-03 0. -1.
    9000002    1    1    2    0    0  0.12733141507E+00  0.12400764172E+00  0.35740573206E-01  0.95535991806E+00  0.93800000000E+00 0. -1.
         22    1    1    2    0    0 -0.16491221551E+00 -0.19228478669E+00  0.36529543360E+01  0.36617270323E+01  0.00000000000E+00 0. -1.
</event>
<event>
 5    1  0.2111786E+001  0.1597321E+01  0.7818608E-02  0.3356276E+00
         11   -1    0    0    0    0  0.00000000000E+00  0.00000000000E+00  0.39999999674E+01  0.40000000000E+01  0.51100000000E-03 0.  1.
    9000002   -1    0    0    0    0 -0.00000000000E+00 -0.00000000000E+00  0.00000000000E+00  0.93800000000E+00  0.93800000000E+00 0. -1.
         11    1    1    2    0    0 -0.29319854101E-01 -0.21614592627E-01  0.42903931940E+00  0.43058314316E+00  0.51100000000E-03 0.  1.
    9000002    1    1    2    0    0 -0.62428340064E-01  0.23691911053E+00  0.41659761041E-01  0.97036462130E+00  0.93800000000E+00 0. -1.
         22    1    1    2    0    0  0.91748194165E-01 -0.21530451790E+00  0.35293008869E+01  0.35370522355E+01  0.00000000000E+00 0.  1.
</event>
<event>
 5    1  0.2111786E+001  0.1538393E+01  0.7818608E-02  0.3423070E+00
         11   -1    0    0    0    0  0.00000000000E+00  0.00000000000E+00  0.39999999674E+01  0.40000000000E+01  0.51100000000E-03 0.  1.
    9000002   -1    0    0    0    0 -0.00000000000E+00 -0.00000000000E+00  0.00000000000E+00  0.93800000000E+00  0.93800000000E+00 0. -1.
         11    1    1    2    0    0 -0.54319649266E+00 -0.52064437616E+00  0.22816012782E+01  0.24024649113E+01  0.51100000000E-03 0.  1.
    9000002    1    1    2    0    0  0.39964183511E+00  0.70402878945E+00  0.57017829739E+00  0.13639345379E+01  0.93800000000E+00 0. -1.
         22    1    1    2    0    0  0.14355465755E+00 -0.18338441329E+00  0.11482203918E+01  0.11716005509E+01  0.00000000000E+00 0.  1.
</event>
<event>
 5    1  0.2111786E+001  0.1550308E+01  0.7818608E-02  0.3409129E+00
         11   -1    0    0    0    0  0.00000000000E+00  0.00000000000E+00  0.39999999674E+01  0.40000000000E+01  0.51100000000E-03 0.  1.
    9000002   -1    0    0    0    0 -0.00000000000E+00 -0.00000000000E+00  0.00000000000E+00  0.93800000000E+00  0.93800000000E+00 0.  1.
         11    1    1    2    0    0  0.13227915139E+00 -0.32445076572E+00  0.15736488213E+01  0.16121839061E+01  0.51100000000E-03 0.  1.
    9000002    1    1    2    0    0 -0.26134953010E+00  0.15555367416E+00  0.10152031548E+00  0.99128749457E+00  0.93800000000E+00 0.  1.
         22    1    1    2    0    0  0.12907037871E+00  0.16889709156E+00  0.23248308306E+01  0.23345285993E+01  0.00000000000E+00 0.  1.
</event>
<event>
 5    1  0.2111786E+001  0.1578988E+01  0.7818608E-02  0.3376490E+00
         11   -1    0    0    0    0  0.00000000000E+00  0.00000000000E+00  0.39999999674E+01  0.40000000000E+01  0.51100000000E-03 0. -1.
    9000002   -1    0    0    0    0 -0.00000000000E+00 -0.00000000000E+00  0.00000000000E+00  0.93800000000E+00  0.93800000000E+00 0.  1.
         11    1    1    2    0    0 -0.62087792790E-01 -0.86363753332E-01  0.60567027431E+00  0.61493929311E+00  0.51100000000E-03 0. -1.
    9000002    1    1    2    0    0 -0.26067498577E+00  0.93112210588E-01  0.67190415375E-01  0.98029581448E+00  0.93800000000E+00 0.  1.
         22    1    1    2    0    0  0.32276277856E+00 -0.67484572566E-02  0.33271392777E+01  0.33427648924E+01  0.00000000000E+00 0. -1.
</event>
<event>
 5    1  0.2111786E+001  0.1572029E+01  0.7818608E-02  0.3384293E+00
         11   -1    0    0    0    0  0.00000000000E+00  0.00000000000E+00  0.39999999674E+01  0.40000000000E+01  0.51100000000E-03 0. -1.
    9000002   -1    0    0    0    0 -0.00000000000E+00 -0.00000000000E+00  0.00000000000E+00  0.93800000000E+00  0.93800000000E+00 0. -1.
         11    1    1    2    0    0  0.76035106179E-01  0.15418728803E+00  0.75802878938E+00  0.77727920583E+00  0.51100000000E-03 0. -1.
    9000002    1    1    2    0    0  0.24441529622E+00 -0.27831720885E+00  0.11511196149E+00  0.10150340238E+01  0.93800000000E+00 0. -1.
         22    1    1    2    0    0 -0.32045040240E+00  0.12412992081E+00  0.31268592165E+01  0.31456867704E+01  0.00000000000E+00 0. -1.
</event>
<event>
 5    1  0.2111786E+001  0.1560510E+01  0.7818608E-02  0.3397372E+00
         11   -1    0    0    0    0  0.00000000000E+00  0.00000000000E+00  0.39999999674E+01  0.40000000000E+01  0.51100000000E-03 0.  1.
    9000002   -1    0    0    0    0 -0.00000000000E+00 -0.00000000000E+00  0.00000000000E+00  0.93800000000E+00  0.93800000000E+00 0.  1.
         11    1    1    2    0    0  0.19097291682E+00 -0.13980080443E+00  0.15410878037E+01  0.15591557971E+01  0.51100000000E-03 0.  1.
    9000002    1    1    2    0    0  0.13458279496E-01  0.40214160636E-01  0.30131343824E-01  0.93944143079E+00  0.93800000000E+00 0.  1.
         22    1    1    2    0    0 -0.20443119632E+00  0.99586643792E-01  0.24287808199E+01  0.24394027721E+01  0.00000000000E+00 0.  1.
</event>
<event>
 5    1  0.2111786E+001  0.1591761E+01  0.7818608E-02  0.3362355E+00
         11   -1    0    0    0    0  0.00000000000E+00  0.00000000000E+00  0.39999999674E+01  0.40000000000E+01  0.51100000000E-03 0. -1.
    9000002   -1    0    0    0    0 -0.00000000000E+00 -0.00000000000E+00  0.00000000000E+00  0.93800000000E+00  0.93800000000E+00 0.  1.
         11    1    1    2    0    0 -0.16002339402E-01 -0.52841123339E-01  0.10333169086E+01  0.10347909711E+01  0.51100000000E-03 0. -1.
    9000002    1    1    2    0    0 -0.11089878326E+00 -0.11420338419E+00  0.22619480724E-01  0.95168093077E+00  0.93800000000E+00 0.  1.
         22    1    1    2    0    0  0.12690112266E+00  0.16704450753E+00  0.29440635781E+01  0.29515280981E+01  0.00000000000E+00 0. -1.
</event>
<event>
 5    1  0.2111786E+001  0.1550004E+01  0.7818608E-02  0.3409482E+00
         11   -1    0    0    0    0  0.00000000000E+00  0.00000000000E+00  0.39999999674E+01  0.40000000000E+01  0.51100000000E-03 0.  1.
    9000002   -1    0    0    0    0 -0.00000000000E+00 -0.00000000000E+00  0.00000000000E+00  0.93800000000E+00  0.93800000000E+00 0.  1.
         11    1    1    2    0    0  0.73931035999E-01  0.13538151865E+00  0.31373937111E+01  0.31411834574E+01  0.51100000000E-03 0.  1.
    9000002    1    1    2    0    0 -0.17013237348E+00  0.92138057802E-01  0.62879639287E-01  0.95980846800E+00  0.93800000000E+00 0.  1.
         22    1    1    2    0    0  0.96201337485E-01 -0.22751957645E+00  0.79972661701E+00  0.83700807460E+00  0.00000000000E+00 0.  1.
</event>
<event>
 5    1  0.2111786E+001  0.1587153E+01  0.7818608E-02  0.3367426E+00
         11   -1    0    0    0    0  0.00000000000E+00  0.00000000000E+00  0.39999999674E+01  0.40000000000E+01  0.51100000000E-03 0.  1.
    9000002   -1    0    0    0    0 -0.00000000000E+00 -0.00000000000E+00  0.00000000000E+00  0.93800000000E+00  0.93800000000E+00 0. -1.
         11    1    1    2    0    0  0.64798287967E-01 -0.65875127935E-02  0.17800256267E+01  0.17812169172E+01  0.51100000000E-03 0.  1.
    9000002    1    1    2    0    0  0.45595069349E-01 -0.21542202166E+00  0.41655105765E-01  0.96439862381E+00  0.93800000000E+00 0. -1.
         22    1    1    2    0    0 -0.11039335732E+00  0.22200953445E+00  0.21783192349E+01  0.21923844590E+01  0.00000000000E+00 0.  1.
</event>
<event>
 5    1  0.2111786E+001  0.1584004E+01  0.7818608E-02  0.3370909E+00
         11   -1    0    0    0    0  0.00000000000E+00  0.00000000000E+00  0.39999999674E+01  0.40000000000E+01  0.51100000000E-03 0. -1.
    9000002   -1    0    0    0    0 -0.00000000000E+00 -0.00000000000E+00  0.00000000000E+00  0.93800000000E+00  0.93800000000E+00 0. -1.
         11    1    1    2    0    0 -0.65617909274E-01  0.10748044867E+00  0.17665189844E+01  0.17710017900E+01  0.51100000000E-03 0. -1.
    9000002    1    1    2    0    0 -0.12537892658E+00 -0.44507466809E-01  0.23288246162E-01  0.94767459196E+00  0.93800000000E+00 0. -1.
         22    1    1    2    0    0  0.19099683585E+00 -0.62972981860E-01  0.22101927368E+01  0.22193236180E+01  0.00000000000E+00 0. -1.
</event>
<event>
 5    1  0.2111786E+001  0.1572520E+01  0.7818608E-02  0.3383740E+00
         11   -1    0    0    0    0  0.00000000000E+00  0.00000000000E+00  0.39999999674E+01  0.40000000000E+01  0.51100000000E-03 0.  1.
    9000002   -1    0    0    0    0 -0.00000000000E+00 -0.00000000000E+00  0.00000000000E+00  0.93800000000E+00  0.93800000000E+00 0.  1.
         11    1    1    2    0    0  0.13993071554E+00 -0.96822010820E-01  0.13337475327E+01  0.13445586075E+01  0.51100000000E-03 0.  1.
    9000002    1    1    2    0    0  0.46317542249E-01 -0.22569797652E-01  0.21713402871E-01  0.93966493089E+00  0.93800000000E+00 0.  1.
         22    1    1    2    0    0 -0.18624825779E+00  0.11939180847E+00  0.26445390318E+01  0.26537764616E+01  0.00000000000E+00 0.  1.
</event>
<event>
 5    1  0.2111786E+001  0.1569104E+01  0.7818608E-02  0.3387595E+00
         11   -1    0    0    0    0  0.00000000000E+00  0.00000000000E+00  0.39999999674E+01  0.40000000000E+01  0.51100000000E-03 0.  1.
    9000002   -1    0    0    0    0 -0.00000000000E+00 -0.00000000000E+00  0.00000000000E+00  0.93800000000E+00  0.93800000000E+00 0. -1.
         11    1    1    2    0    0 -0.17196272728E+00 -0.42583594658E-01  0.13280870573E+01  0.13398507511E+01  0.51100000000E-03 0.  1.
    9000002    1    1    2    0    0 -0.50063091041E-01 -0.57199741896E-01  0.26383350186E-01  0.94144474332E+00  0.93800000000E+00 0. -1.
         22    1    1    2    0    0  0.22202581832E+00  0.99783336554E-01  0.26455295598E+01  0.26567045056E+01  0.00000000000E+00 0.  1.
</event>
<event>
 5    1  0.2111786E+001  0.1484645E+01  0.7818608E-02  0.3488943E+00
         11   -1    0    0    0    0  0.00000000000E+00  0.00000000000E+00  0.39999999674E+01  0.40000000000E+01  0.51100000000E-03 0. -1.
    9000002   -1    0    0    0    0 -0.00000000000E+00 -0.00000000000E+00  0.00000000000E+00  0.93800000000E+00  0.93800000000E+00 0. -1.
         11    1    1    2    0    0 -0.94741951192E-01 -0.21118634057E+00  0.53062172116E+00  0.57890878370E+00  0.51100000000E-03 0. -1.
    9000002    1    1    2    0    0  0.13579646001E+00 -0.46051084467E+00  0.26736146576E+00  0.10871233003E+01  0.93800000000E+00 0. -1.
         22    1    1    2    0    0 -0.41054508821E-01  0.67169718523E+00  0.32020167804E+01  0.32719679160E+01  0.00000000000E+00 0. -1.
</event>
<event>
 5    1  0.2111786E+001  0.1575375E+01  0.7818608E-02  0.3380532E+00
         11   -1    0    0    0    0  0.00000000000E+00  0.00000000000E+00  0.39999999674E+01  0.40000000000E+01  0.51100000000E-03 0.  1.
    9000002   -1    0    0    0    0 -0.00000000000E+00 -0.00000000000E+00  0.00000000000E+00  0.93800000000E+00  0.93800000000E+00 0. -1.
         11    1    1    2    0    0  0.96784513371E-01 -0.24099157731E-01  0.25675196090E+01  0.25694562100E+01  0.51100000000E-03 0.  1.
    9000002    1    1    2    0    0 -0.19918904663E-01  0.27935651175E+00  0.71306979174E-01  0.98151184847E+00  0.93800000000E+00 0. -1.
         22    1    1    2    0    0 -0.76865608707E-01 -0.25525735401E+00  0.13611733792E+01  0.13870319415E+01  0.00000000000E+00 0.  1.
</event>
<event>
 5    1  0.2111786E+001  0.1539426E+01  0.7818608E-02  0.3421852E+00
         11   -1    0    0    0    0  0.00000000000E+00  0.00000000000E+00  0.39999999674E+01  0.40000000000E+01  0.51100000000E-03 0.  1.
    9000002   -1    0    0    0    0 -0.00000000000E+00 -0.00000000000E+00  0.00000000000E+00  0.93800000000E+00  0.93800000000E+00 0. -1.
         11    1    1    2    0    0  0.21590504706E+00  0.10176873782E+00  0.70912070418E+00  0.74821407335E+00  0.51100000000E-03 0.  1.
    9000002    1    1    2    0    0 -0.68248020470E-02 -0.12401235818E+00  0.55746510545E-01  0.94782768283E+00  0.93800000000E+00 0. -1.
         22    1    1    2    0    0 -0.20908024501E+00  0.22243620359E-01  0.32351327526E+01  0.32419582438E+01  0.00000000000E+00 0.  1.
</event>
<event>
 5    1  0.2111786E+001  0.1580720E+01  0.7818608E-02  0.3374558E+00
         11   -1    0    0    0    0  0.00000000000E+00  0.00000000000E+00  0.39999999674E+01  0.40000000000E+01  0.51100000000E-03 0.  1.
    9000002   -1    0    0    0    0 -0.00000000000E+00 -0.00000000000E+00  0.00000000000E+00  0.93800000000E+00  0.93800000000E+00 0.  1.
         11    1    1    2    0    0  0.13202325698E+00  0.61760116561E-01  0.17226192967E+01  0.17287746975E+01  0.51100000000E-03 0.  1.
    9000002    1    1    2    0    0  0.70444762543E-01 -0.89116610288E-01  0.22514105712E-01  0.94512174864E+00  0.93800000000E+00 0.  1.
         22    1    1    2    0    0 -0.20246801952E+00  0.27356493727E-01  0.22548665650E+01  0.22641035539E+01  0.00000000000E+00 0. -1.
</event>
<event>
 5    1  0.2111786E+001  0.1550936E+01  0.7818608E-02  0.3408400E+00
         11   -1    0    0    0    0  0.00000000000E+00  0.00000000000E+00  0.39999999674E+01  0.40000000000E+01  0.51100000000E-03 0. -1.
    9000002   -1    0    0    0    0 -0.00000000000E+00 -0.00000000000E+00  0.00000000000E+00  0.93800000000E+00  0.93800000000E+00 0.  1.
         11    1    1    2    0    0 -0.20632532534E+00 -0.58234368910E-01  0.17921331323E+01  0.18049107475E+01  0.51100000000E-03 0. -1.
    9000002    1    1    2    0    0 -0.12436653479E+00  0.60649728654E-01  0.49400719916E-01  0.94943659909E+00  0.93800000000E+00 0.  1.
         22    1    1    2    0    0  0.33069186013E+00 -0.24153597442E-02  0.21584661152E+01  0.21836526534E+01  0.00000000000E+00 0. -1.
</event>
<event>
 5    1  0.2111786E+001  0.1447601E+01  0.7818608E-02  0.3537426E+00
         11   -1    0    0    0    0  0.00000000000E+00  0.00000000000E+00  0.39999999674E+01  0.40000000000E+01  0.51100000000E-03 0.  1.
    9000002   -1    0    0    0    0 -0.00000000000E+00 -0.00000000000E+00  0.00000000000E+00  0.93800000000E+00  0.93800000000E+00 0. -1.
         11    1    1    2    0    0  0.61863879136E+00  0.36697273435E+00  0.16632283003E+01  0.18121014270E+01  0.51100000000E-03 0.  1.
    9000002    1    1    2    0    0 -0.40864601336E+00 -0.37294776383E+00  0.37328051850E+00  0.11512010877E+01  0.93800000000E+00 0. -1.
         22    1    1    2    0    0 -0.20999277800E+00  0.59750294781E-02  0.19634911486E+01  0.19746974853E+01  0.00000000000E+00 0.  1.
</event>
<event>
 5    1  0.2111786E+001  0.1556955E+01  0.7818608E-02  0.3401451E+00
         11   -1    0    0    0    0  0.00000000000E+00  0.00000000000E+00  0.39999999674E+01  0.40000000000E+01  0.51100000000E-03 0. -1.
    9000002   -1    0    0    0    0 -0.00000000000E+00 -0.00000000000E+00  0.00000000000E+00  0.93800000000E+00  0.93800000000E+00 0. -1.
         11    1    1    2    0    0  0.14967589120E+00 -0.14230786161E+00  0.91641338485E+00  0.93939776077E+00  0.51100000000E-03 0. -1.
    9000002    1    1    2    0    0  0.38740689281E-01  0.18788292936E-01  0.32854261747E-01  0.93956226163E+00  0.93800000000E+00 0. -1.
         22    1    1    2    0    0 -0.18841658048E+00  0.12351956867E+00  0.30507323208E+01  0.30590399776E+01  0.00000000000E+00 0. -1.
</event>
<event>
 5    1  0.2111786E+001  0.1586409E+01  0.7818608E-02  0.3368248E+00
         11   -1    0    0    0    0  0.00000000000E+00  0.00000000000E+00  0.39999999674E+01  0.40000000000E+01  0.51100000000E-03 0.  1.
    9000002   -1    0    0    0    0 -0.00000000000E+00 -0.00000000000E+00  0.00000000000E+00  0.93800000000E+00  0.93800000000E+00 0.  1.
         11    1    1    2    0    0  0.13819681986E+00  0.10959105194E+00  0.18771761853E+01  0.18854440462E+01  0.51100000000E-03 0.  1.
    9000002    1    1    2    0    0 -0.27424614359E+00  0.60108405752E-01  0.62849500823E-01  0.98113099404E+00  0.93800000000E+00 0.  1.
         22    1    1    2    0    0  0.13604932372E+00 -0.16969945770E+00  0.20599742813E+01  0.20714249598E+01  0.00000000000E+00 0.  1.
</event>
<event>
 5    1  0.2111786E+001  0.1553154E+01  0.7818608E-02  0.3405832E+00
         11   -1    0    0    0    0  0.00000000000E+00  0.00000000000E+00  0.39999999674E+01  0.40000000000E+01  0.51100000000E-03 0. -1.
    9000002   -1    0    0    0    0 -0.00000000000E+00 -0.00000000000E+00  0.00000000000E+00  0.93800000000E+00  0.93800000000E+00 0.  1.
         11    1    1    2    0    0  0.19979781759E+00  0.65103140608E-01  0.13760658295E+01  0.13920183243E+01  0.51100000000E-03 0. -1.
    9000002    1    1    2    0    0  0.38610346952E-01  0.17282716473E+00  0.56170585286E-01  0.95622127272E+00  0.93800000000E+00 0.  1.
         22    1    1    2    0    0 -0.23840816454E+00 -0.23793030533E+00  0.25677635526E+01  0.25897604030E+01  0.00000000000E+00 0. -1.
</event>
<event>
 5    1  0.2111786E+001  0.1549018E+01  0.7818608E-02  0.3410627E+00
         11   -1    0    0    0    0  0.00000000000E+00  0.00000000000E+00  0.39999999674E+01  0.40000000000E+01  0.51100000000E-03 0.  1.
    9000002   -1    0    0    0    0 -0.00000000000E+00 -0.00000000000E+00  0.00000000000E+00  0.93800000000E+00  0.93800000000E+00 0. -1.
         11    1    1    2    0    0 -0.26782634613E+00  0.27034418247E+00  0.20484196719E+01  0.20834683443E+01  0.51100000000E-03 0.  1.
    9000002    1    1    2    0    0 -0.38364089218E-02 -0.49788654134E+00  0.21671304020E+00  0.10838423630E+01  0.93800000000E+00 0. -1.
         22    1    1    2    0    0  0.27166275505E+00  0.22754235888E+00  0.17348672553E+01  0.17706892926E+01  0.00000000000E+00 0.  1.
</event>
<event>
 5    1  0.2111786E+001  0.1447749E+01  0.7818608E-02  0.3537227E+00
         11   -1    0    0    0    0  0.00000000000E+00  0.00000000000E+00  0.39999999674E+01  0.40000000000E+01  0.51100000000E-03 0.  1.
    9000002   -1    0    0    0    0 -0.00000000000E+00 -0.00000000000E+00  0.00000000000E+00  0.93800000000E+00  0.93800000000E+00 0. -1.
         11    1    1    2    0    0  0.10180177798E+00 -0.28246584518E+00  0.36652561813E+00  0.47380570444E+00  0.51100000000E-03 0.  1.
    9000002    1    1    2    0    0  0.79781978006E-02  0.10618569428E+00  0.12810312970E+00  0.95267699938E+00  0.93800000000E+00 0. -1.
         22    1    1    2    0    0 -0.10977997578E+00  0.17628015089E+00  0.35053712195E+01  0.35115172962E+01  0.00000000000E+00 0.  1.
</event>
<event>
 5    1  0.2111786E+001  0.1577291E+01  0.7818608E-02  0.3378386E+00
         11   -1    0    0    0    0  0.00000000000E+00  0.00000000000E+00  0.39999999674E+01  0.40000000000E+01  0.51100000000E-03 0. -1.
    9000002   -1    0    0    0    0 -0.00000000000E+00 -0.00000000000E+00  0.00000000000E+00  0.93800000000E+00  0.93800000000E+00 0.  1.
         11    1    1    2    0    0  0.97319748155E-01  0.39744521890E+00  0.16641676004E+01  0.17137350725E+01  0.51100000000E-03 0. -1.
    9000002    1    1    2    0    0 -0.36444049991E+00 -0.51176084443E+00  0.30046479825E+00  0.11682632986E+01  0.93800000000E+00 0.  1.
         22    1    1    2    0    0  0.26712075175E+00  0.11431562553E+00  0.20353675687E+01  0.20560016289E+01  0.00000000000E+00 0. -1.
</event>
<event>
 5    1  0.2111786E+001  0.1557921E+01  0.7818608E-02  0.3400340E+00
         11   -1    0    0    0    0  0.00000000000E+00  0.00000000000E+00  0.39999999674E+01  0.40000000000E+01  0.51100000000E-03 0. -1.
    9000002   -1    0    0    0    0 -0.00000000000E+00 -0.00000000000E+00  0.00000000000E+00  0.93800000000E+00  0.93800000000E+00 0.  1.
         11    1    1    2    0    0 -0.10478686907E+00  0.80756284903E-01  0.25570890082E+00  0.28790479079E+00  0.51100000000E-03 0. -1.
    9000002    1    1    2    0    0 -0.40428447252E-01 -0.25919801968E+00  0.78564506120E-01  0.97715631010E+00  0.93800000000E+00 0.  1.
         22    1    1    2    0    0  0.14521531632E+00  0.17844173478E+00  0.36657265604E+01  0.36729388991E+01  0.00000000000E+00 0. -1.
</event>
<event>
 5    1  0.2111786E+001  0.1586981E+01  0.7818608E-02  0.3367616E+00
         11   -1    0    0    0    0  0.00000000000E+00  0.00000000000E+00  0.39999999674E+01  0.40000000000E+01  0.51100000000E-03 0. -1.
    9000002   -1    0    0    0    0 -0.00000000000E+00 -0.00000000000E+00  0.00000000000E+00  0.93800000000E+00  0.93800000000E+00 0. -1.
         11    1    1    2    0    0 -0.64989315702E-01  0.11960974912E-01  0.13628815671E+01  0.13644827237E+01  0.51100000000E-03 0. -1.
    9000002    1    1    2    0    0 -0.15474915192E+00  0.11440344106E+00  0.34057519092E-01  0.95814370632E+00  0.93800000000E+00 0. -1.
         22    1    1    2    0    0  0.21973846762E+00 -0.12636441597E+00  0.26030608812E+01  0.26153735700E+01  0.00000000000E+00 0. -1.
</event>
<event>
 5    1  0.2523158E+001  0.1562289E+01  0.7818608E-02  0.3395339E+00
         11   -1    0    0    0    0  0.00000000000E+00  0.00000000000E+00  0.39999999674E+01  0.40000000000E+01  0.51100000000E-03 0.  1.
    9000002   -1    0    0    0    0 -0.00000000000E+00 -0.00000000000E+00  0.00000000000E+00  0.93800000000E+00  0.93800000000E+00 0.  1.
         11    1    1    2    0    0 -0.42388042219E-01  0.20650799753E+00  0.28823510622E+01  0.28900502082E+01  0.51100000000E-03 0.  1.
    9000002    1    1    2    0    0  0.30708832173E-01  0.65054710694E-03  0.28208045802E-01  0.93892659427E+00  0.93800000000E+00 0.  1.
         22    1    1    2    0    0  0.11679210047E-01 -0.20715854464E+00  0.10894408594E+01  0.11090231975E+01  0.00000000000E+00 0.  1.
</event>
<event>
 5    1  0.2111786E+001  0.1463364E+01  0.7818608E-02  0.3516470E+00
         11   -1    0    0    0    0  0.00000000000E+00  0.00000000000E+00  0.39999999674E+01  0.40000000000E+01  0.51100000000E-03 0. -1.
    9000002   -1    0    0    0    0 -0.00000000000E+00 -0.00000000000E+00  0.00000000000E+00  0.93800000000E+00  0.93800000000E+00 0.  1.
         11    1    1    2    0    0  0.28643329578E+00  0.14884793231E+00  0.29119632804E+01  0.29298003596E+01  0.51100000000E-03 0. -1.
    9000002    1    1    2    0    0  0.69244613296E-01  0.59162134154E-01  0.11235865276E+00  0.94908558172E+00  0.93800000000E+00 0.  1.
         22    1    1    2    0    0 -0.35567790908E+00 -0.20801006646E+00  0.97567803421E+00  0.10591140586E+01  0.00000000000E+00 0. -1.
</event>
<event>
 5    1  0.2111786E+001  0.1527758E+01  0.7818608E-02  0.3435709E+00
         11   -1    0    0    0    0  0.00000000000E+00  0.00000000000E+00  0.39999999674E+01  0.40000000000E+01  0.51100000000E-03 0. -1.
    9000002   -1    0    0    0    0 -0.00000000000E+00 -0.00000000000E+00  0.00000000000E+00  0.93800000000E+00  0.93800000000E+00 0.  1.
         11    1    1    2    0    0  0.10733293197E+00 -0.30649420156E+00  0.97227468571E+00  0.10250743288E+01  0.51100000000E-03 0. -1.
    9000002    1    1    2    0    0  0.13889294282E+00  0.25179544483E+00  0.11330403634E+00  0.98761024714E+00  0.93800000000E+00 0.  1.
         22    1    1    2    0    0 -0.24622587479E+00  0.54698756734E-01  0.29144212453E+01  0.29253154241E+01  0.00000000000E+00 0. -1.
</event>
<event>
 5    1  0.2111786E+001  0.1552788E+01  0.7818608E-02  0.3406255E+00
         11   -1    0    0    0    0  0.00000000000E+00  0.00000000000E+00  0.39999999674E+01  0.40000000000E+01  0.51100000000E-03 0. -1.
    9000002   -1    0    0    0    0 -0.00000000000E+00 -0.00000000000E+00  0.00000000000E+00  0.93800000000E+00  0.93800000000E+00 0.  1.
         11    1    1    2    0    0 -0.68069525061E-01  0.27346852247E+00  0.22372946733E+01  0.22549736604E+01  0.51100000000E-03 0. -1.
    9000002    1    1    2    0    0  0.17898553133E+00 -0.30766304536E-01  0.57586297938E-01  0.95715336683E+00  0.93800000000E+00 0.  1.
         22    1    1    2    0    0 -0.11091600627E+00 -0.24270221793E+00  0.17051189962E+01  0.17258729728E+01  0.00000000000E+00 0. -1.
</event>
<event>
 5    1  0.2111786E+001  0.1591772E+01  0.7818608E-02  0.3362342E+00
         11   -1    0    0    0    0  0.00000000000E+00  0.00000000000E+00  0.39999999674E+01  0.40000000000E+01  0.51100000000E-03 0.  1.
    9000002   -1    0    0    0    0 -0.00000000000E+00 -0.00000000000E+00  0.00000000000E+00  0.93800000000E+00  0.93800000000E+00 0. -1.
         11    1    1    2    0    0 -0.29522010903E-01 -0.22449225127E-01  0.21182731245E+00  0.21505019939E+00  0.51100000000E-03 0.  1.
    9000002    1    1    2    0    0 -0.63373876620E-01 -0.23925473004E+00  0.46744972332E-01  0.97123023353E+00  0.93800000000E+00 0. -1.
         22    1    1    2    0    0  0.92895887522E-01  0.26170395516E+00  0.37414276826E+01  0.37517195671E+01  0.00000000000E+00 0.  1.
</event>
<event>
 5    1  0.2111786E+001  0.1568957E+01  0.7818608E-02  0.3387761E+00
         11   -1    0    0    0    0  0.00000000000E+00  0.00000000000E+00  0.39999999674E+01  0.40000000000E+01  0.51100000000E-03 0.  1.
    9000002   -1    0    0    0    0 -0.00000000000E+00 -0.00000000000E+00  0.00000000000E+00  0.93800000000E+00  0.93800000000E+00 0. -1.
         11    1    1    2    0    0 -0.73446332283E-03  0.18539512096E+00  0.27488570090E+01  0.27551019958E+01  0.51100000000E-03 0.  1.
    9000002    1    1    2    0    0  0.11012522826E+00 -0.82745072311E-02  0.30857601691E-01  0.94498265855E+00  0.93800000000E+00 0. -1.
         22    1    1    2    0    0 -0.10939076494E+00 -0.17712061373E+00  0.12202853567E+01  0.12379153457E+01  0.00000000000E+00 0.  1.
</event>
<event>
 5    1  0.2111786E+001  0.1561464E+01  0.7818608E-02  0.3396281E+00
         11   -1    0    0    0    0  0.00000000000E+00  0.00000000000E+00  0.39999999674E+01  0.40000000000E+01  0.51100000000E-03 0.  1.
    9000002   -1    0    0    0    0 -0.00000000000E+00 -0.00000000000E+00  0.00000000000E+00  0.93800000000E+00  0.93800000000E+00 0.  1.
         11    1    1    2    0    0  0.15556353126E+00 -0.98153452323E-01  0.78905134141E+00  0.81020762337E+00  0.51100000000E-03 0.  1.
    9000002    1    1    2    0    0 -0.89278637723E-01 -0.15407292992E+00  0.49954895379E-01  0.95605890742E+00  0.93800000000E+00 0.  1.
         22    1    1    2    0    0 -0.66284893535E-01  0.25222638224E+00  0.31609937306E+01  0.31717334692E+01  0.00000000000E+00 0.  1.
</event>
<event>
 5    1  0.2111786E+001  0.1548931E+01  0.7818608E-02  0.3410728E+00
         11   -1    0    0    0    0  0.00000000000E+00  0.00000000000E+00  0.39999999674E+01  0.40000000000E+01  0.51100000000E-03 0. -1.
    9000002   -1    0    0    0    0 -0.00000000000E+00 -0.00000000000E+00  0.00000000000E+00  0.93800000000E+00  0.93800000000E+00 0. -1.
         11    1    1    2    0    0 -0.92142223963E-01 -0.26861726478E+00  0.13032411273E+01  0.13338227474E+01  0.51100000000E-03 0. -1.
    9000002    1    1    2    0    0 -0.97236043437E-02  0.96075606445E-01  0.44127853276E-01  0.94398958578E+00  0.93800000000E+00 0. -1.
         22    1    1    2    0    0  0.10186582831E+00  0.17254165833E+00  0.26526309867E+01  0.26601876668E+01  0.00000000000E+00 0. -1.
</event>
<event>
 5    1  0.2111786E+001  0.1550447E+01  0.7818608E-02  0.3408967E+00
         11   -1    0    0    0    0  0.00000000000E+00  0.00000000000E+00  0.39999999674E+01  0.40000000000E+01  0.51100000000E-03 0. -1.
    9000002   -1    0    0    0    0 -0.00000000000E+00 -0.00000000000E+00  0.00000000000E+00  0.93800000000E+00  0.93800000000E+00 0. -1.
         11    1    1    2    0    0 -0.64485020115E+00  0.63382322894E-01  0.12154524707E+01  0.13773794214E+01  0.51100000000E-03 0. -1.
    9000002    1    1    2    0    0  0.97222731275E+00 -0.36806751952E-01  0.84592250358E+00  0.15943680775E+01  0.93800000000E+00 0. -1.
         22    1    1    2    0    0 -0.32737711160E+00 -0.26575570942E-01  0.19386249931E+01  0.19662525011E+01  0.00000000000E+00 0. -1.
</event>
<event>
 5    1  0.2111786E+001  0.1523093E+01  0.7818608E-02  0.3441313E+00
         11   -1    0    0    0    0  0.00000000000E+00  0.00000000000E+00  0.39999999674E+01  0.40000000000E+01  0.51100000000E-03 0. -1.
    9000002   -1    0    0    0    0 -0.00000000000E+00 -0.00000000000E+00  0.00000000000E+00  0.93800000000E+00  0.93800000000E+00 0. -1.
         11    1    1    2    0    0  0.36265561437E-01 -0.10091846946E+00  0.61002326500E-01  0.12337452486E+00  0.51100000000E-03 0. -1.
    9000002    1    1    2    0    0 -0.22886196395E+00  0.19960500025E+00  0.12423503690E+00  0.99372948988E+00  0.93800000000E+00 0. -1.
         22    1    1    2    0    0  0.19259640251E+00 -0.98686530792E-01  0.38147626040E+01  0.38208959853E+01  0.00000000000E+00 0. -1.
</event>
<event>
 5    1  0.2111786E+001  0.1448850E+01  0.7818608E-02  0.3535747E+00
         11   -1    0    0    0    0  0.00000000000E+00  0.00000000000E+00  0.39999999674E+01  0.40000000000E+01  0.51100000000E-03 0.  1.
    9000002   -1    0    0    0    0 -0.00000000000E+00 -0.00000000000E+00  0.00000000000E+00  0.93800000000E+00  0.93800000000E+00 0. -1.
         11    1    1    2    0    0  0.32578238154E+00  0.38117115159E+00  0.88785858409E+00  0.10196659911E+01  0.51100000000E-03 0.  1.
    9000002    1    1    2    0    0  0.77643695636E-01 -0.59599730175E+00  0.42461244262E+00  0.11922168652E+01  0.93800000000E+00 0. -1.
         22    1    1    2    0    0 -0.40342607718E+00  0.21482615016E+00  0.26875289407E+01  0.27261171437E+01  0.00000000000E+00 0.  1.
</event>
<event>
 5    1  0.2111786E+001  0.1470597E+01  0.7818608E-02  0.3507016E+00
         11   -1    0    0    0    0  0.00000000000E+00  0.00000000000E+00  0.39999999674E+01  0.40000000000E+01  0.51100000000E-03 0. -1.
    9000002   -1    0    0    0    0 -0.00000000000E+00 -0.00000000000E+00  0.00000000000E+00  0.93800000000E+00  0.93800000000E+00 0. -1.
         11    1    1    2    0    0 -0.33306348455E+00 -0.30464783246E+00  0.10804534281E+01  0.11709489562E+01  0.51100000000E-03 0. -1.
    9000002    1    1    2    0    0  0.25447684309E+00  0.39287924886E-01  0.15057789550E+00  0.98428639497E+00  0.93800000000E+00 0. -1.
         22    1    1    2    0    0  0.78586641451E-01  0.26535990758E+00  0.27689686438E+01  0.27827646489E+01  0.00000000000E+00 0. -1.
</event>
<event>
 5    1  0.2111786E+001  0.1560245E+01  0.7818608E-02  0.3397676E+00
         11   -1    0    0    0    0  0.00000000000E+00  0.00000000000E+00  0.39999999674E+01  0.40000000000E+01  0.51100000000E-03 0.  1.
    9000002   -1    0    0    0    0 -0.00000000000E+00 -0.00000000000E+00  0.00000000000E+00  0.93800000000E+00  0.93800000000E+00 0.  1.
         11    1    1    2    0    0  0.14196803057E+00 -0.18149886020E+00  0.13237420348E+01  0.13436480170E+01  0.51100000000E-03 0.  1.
    9000002    1    1    2    0    0 -0.31543157616E-01 -0.52346366189E-02  0.29800579681E-01  0.93901780961E+00  0.93800000000E+00 0.  1.
         22    1    1    2    0    0 -0.11042487296E+00  0.18673349682E+00  0.26464573529E+01  0.26553341733E+01  0.00000000000E+00 0.  1.
</event>
<event>
 5    1  0.2111786E+001  0.1518507E+01  0.7818608E-02  0.3446858E+00
         11   -1    0    0    0    0  0.00000000000E+00  0.00000000000E+00  0.39999999674E+01  0.40000000000E+01  0.51100000000E-03 0. -1.
    9000002   -1    0    0    0    0 -0.00000000000E+00 -0.00000000000E+00  0.00000000000E+00  0.93800000000E+00  0.93800000000E+00 0.  1.
         11    1    1    2    0    0  0.19075580543E+00  0.77415206196E-02  0.32441435862E+00  0.37642083583E+00  0.51100000000E-03 0. -1.
    9000002    1    1    2    0    0  0.44565781926E-01 -0.10060490222E+00  0.69884228387E-01  0.94701386508E+00  0.93800000000E+00 0.  1.
         22    1    1    2    0    0 -0.23532158736E+00  0.92863381604E-01  0.36057013804E+01  0.36145652991E+01  0.00000000000E+00 0. -1.
</event>
<event>
 5    1  0.2111786E+001  0.1569959E+01  0.7818608E-02  0.3386629E+00
         11   -1    0    0    0    0  0.00000000000E+00  0.00000000000E+00  0.39999999674E+01  0.40000000000E+01  0.51100000000E-03 0. -1.
    9000002   -1    0    0    0    0 -0.00000000000E+00 -0.00000000000E+00  0.00000000000E+00  0.93800000000E+00  0.93800000000E+00 0.  1.
         11    1    1    2    0    0  0.15123143254E+00  0.10672504519E+00  0.12516822594E+01  0.12652944010E+01  0.51100000000E-03 0. -1.
    9000002    1    1    2    0    0  0.45377978233E-01 -0.25038857390E-01  0.23645770073E-01  0.93972827335E+00  0.93800000000E+00 0.  1.
         22    1    1    2    0    0 -0.19660941078E+00 -0.81686187804E-01  0.27246719379E+01  0.27329773257E+01  0.00000000000E+00 0. -1.
</event>
<event>
 5    1  0.2111786E+001  0.1492016E+01  0.7818608E-02  0.3479606E+00
         11   -1    0    0    0    0  0.00000000000E+00  0.00000000000E+00  0.39999999674E+01  0.40000000000E+01  0.51100000000E-03 0.  1.
    9000002   -1    0    0    0    0 -0.00000000000E+00 -0.00000000000E+00  0.00000000000E+00  0.93800000000E+00  0.93800000000E+00 0. -1.
         11    1    1    2    0    0  0.36999665658E+00 -0.86912522003E-01  0.88711696356E+00  0.96510521733E+00  0.51100000000E-03 0.  1.
    9000002    1    1    2    0    0 -0.13686843648E+00  0.64341742161E+00  0.43113205729E+00  0.12241069390E+01  0.93800000000E+00 0. -1.
         22    1    1    2    0    0 -0.23312822010E+00 -0.55650489960E+00  0.26817509465E+01  0.27487878437E+01  0.00000000000E+00 0.  1.
</event>
<event>
 5    1  0.2111786E+001  0.1470452E+01  0.7818608E-02  0.3507205E+00
         11   -1    0    0    0    0  0.00000000000E+00  0.00000000000E+00  0.39999999674E+01  0.40000000000E+01  0.51100000000E-03 0. -1.
    9000002   -1    0    0    0    0 -0.00000000000E+00 -0.00000000000E+00  0.00000000000E+00  0.93800000000E+00  0.93800000000E+00 0. -1.
         11    1    1    2    0    0 -0.30849292694E+00  0.29962094128E-01  0.55443803246E+00  0.63519084220E+00  0.51100000000E-03 0. -1.
    9000002    1    1    2    0    0  0.91932337761E-02  0.58793392900E-01  0.10278811674E+00  0.94548959568E+00  0.93800000000E+00 0. -1.
         22    1    1    2    0    0  0.29929969317E+00 -0.88755487028E-01  0.33427738182E+01  0.33573195621E+01  0.00000000000E+00 0. -1.
</event>
<event>
 5    1  0.2111786E+001  0.1569521E+01  0.7818608E-02  0.3387123E+00
         11   -1    0    0    0    0  0.00000000000E+00  0.00000000000E+00  0.39999999674E+01  0.40000000000E+01  0.51100000000E-03 0.  1.
    9000002   -1    0    0    0    0 -0.00000000000E+00 -0.00000000000E+00  0.00000000000E+00  0.93800000000E+00  0.93800000000E+00 0. -1.
         11    1    1    2    0    0  0.50052597046E-01 -0.15895885891E+00  0.88212749273E+00  0.89773178391E+00  0.51100000000E-03 0.  1.
    9000002    1    1    2    0    0  0.13386353570E+00  0.19074668005E-01  0.34576862853E-01  0.94832634077E+00  0.93800000000E+00 0. -1.
         22    1    1    2    0    0 -0.18391613275E+00  0.13988419090E+00  0.30832956118E+01  0.30919418753E+01  0.00000000000E+00 0.  1.
</event>
<event>
 5    1  0.2111786E+001  0.1589442E+01  0.7818608E-02  0.3364903E+00
         11   -1    0    0    0    0  0.00000000000E+00  0.00000000000E+00  0.39999999674E+01  0.40000000000E+01  0.51100000000E-03 0. -1.
    9000002   -1    0    0    0    0 -0.00000000000E+00 -0.00000000000E+00  0.00000000000E+00  0.93800000000E+00  0.93800000000E+00 0. -1.
         11    1    1    2    0    0  0.75246431531E-01  0.44435138214E-01  0.48051382727E+00  0.48839564523E+00  0.51100000000E-03 0. -1.
    9000002    1    1    2    0    0 -0.24264077376E+00  0.17357172756E+00  0.67412225208E-01  0.98660534045E+00  0.93800000000E+00 0. -1.
         22    1    1    2    0    0  0.16739434223E+00 -0.21800686578E+00  0.34520739149E+01  0.34629990143E+01  0.00000000000E+00 0. -1.
</event>
<event>
 5    1  0.2111786E+001  0.1533196E+01  0.7818608E-02  0.3429223E+00
         11   -1    0    0    0    0  0.00000000000E+00  0.00000000000E+00  0.39999999674E+01  0.40000000000E+01  0.51100000000E-03 0.  1.
    9000002   -1    0    0    0    0 -0.00000000000E+00 -0.00000000000E+00  0.00000000000E+00  0.93800000000E+00  0.93800000000E+00 0.  1.
         11    1    1    2    0    0  0.62657447450E+00 -0.36226134503E+00  0.23167892370E+01  0.24272085786E+01  0.51100000000E-03 0.  1.
    9000002    1    1    2    0    0 -0.50294878010E+00  0.54828225757E+00  0.48469941730E+00  0.12916456304E+01  0.93800000000E+00 0.  1.
         22    1    1    2    0    0 -0.12362569440E+00 -0.18602091254E+00  0.11985113131E+01  0.12191457911E+01  0.00000000000E+00 0. -1.
</event>
<event>
 5    1  0.4991147E+001  0.1568224E+01  0.7818608E-02  0.3388591E+00
         11   -1    0    0    0    0  0.00000000000E+00  0.00000000000E+00  0.39999999674E+01  0.40000000000E+01  0.51100000000E-03 0. -1.
    9000002   -1    0    0    0    0 -0.00000000000E+00 -0.00000000000E+00  0.00000000000E+00  0.93800000000E+00  0.93800000000E+00 0. -1.
         11    1    1    2    0    0  0.21748553936E+00  0.69711859936E-02  0.20174142941E+01  0.20291153866E+01  0.51100000000E-03 0. -1.
    9000002    1    1    2    0    0 -0.95062149229E-02  0.20471190004E-01  0.23465645397E-01  0.93856490146E+00  0.93800000000E+00 0. -1.
         22    1    1    2    0    0 -0.20797932444E+00 -0.27442375998E-01  0.19591200279E+01  0.19703197119E+01  0.00000000000E+00 0. -1.
</event>
<event>
 5    1  0.2111786E+001  0.1566857E+01  0.7818608E-02  0.3390140E+00
         11   -1    0    0    0    0  0.00000000000E+00  0.00000000000E+00  0.39999999674E+01  0.40000000000E+01  0.51100000000E-03 0. -1.
    9000002   -1    0    0    0    0 -0.00000000000E+00 -0.00000000000E+00  0.00000000000E+00  0.93800000000E+00  0.93800000000E+00 0.  1.
         11    1    1    2    0    0 -0.98237048496E-01  0.15207871579E+00  0.94591651315E+00  0.96308710118E+00  0.51100000000E-03 0. -1.
    9000002    1    1    2    0    0 -0.14344995400E+00 -0.88774387375E-01  0.43564101213E-01  0.95404434492E+00  0.93800000000E+00 0.  1.
         22    1    1    2    0    0  0.24168700249E+00 -0.63304328418E-01  0.30105193530E+01  0.30208685539E+01  0.00000000000E+00 0. -1.
</event>
<event>
 5    1  0.2111786E+001  0.1549689E+01  0.7818608E-02  0.3409848E+00
         11   -1    0    0    0    0  0.00000000000E+00  0.00000000000E+00  0.39999999674E+01  0.40000000000E+01  0.51100000000E-03 0. -1.
    9000002   -1    0    0    0    0 -0.00000000000E+00 -0.00000000000E+00  0.00000000000E+00  0.93800000000E+00  0.93800000000E+00 0.  1.
         11    1    1    2    0    0  0.15336732963E+00  0.13460775478E+00  0.74433521554E+00  0.77180046622E+00  0.51100000000E-03 0. -1.
    9000002    1    1    2    0    0  0.88541889641E-02  0.46757175036E-01  0.38656153336E-01  0.94000155759E+00  0.93800000000E+00 0.  1.
         22    1    1    2    0    0 -0.16222151859E+00 -0.18136492981E+00  0.32170085985E+01  0.32261979762E+01  0.00000000000E+00 0. -1.
</event>
<event>
 5    1  0.2111786E+001  0.1533729E+01  0.7818608E-02  0.3428589E+00
         11   -1    0    0    0    0  0.00000000000E+00  0.00000000000E+00  0.39999999674E+01  0.40000000000E+01  0.51100000000E-03 0.  1.
    9000002   -1    0    0    0    0 -0.00000000000E+00 -0.00000000000E+00  0.00000000000E+00  0.93800000000E+00  0.93800000000E+00 0. -1.
         11    1    1    2    0    0  0.12378073064E+00 -0.26357508117E+00  0.16109356392E+01  0.16370422680E+01  0.51100000000E-03 0.  1.
    9000002    1    1    2    0    0 -0.14435496151E+00 -0.81588887464E-01  0.68750524113E-01  0.95502132753E+00  0.93800000000E+00 0. -1.
         22    1    1    2    0    0  0.20574230870E-01  0.34516396864E+00  0.23203138041E+01  0.23459364044E+01  0.00000000000E+00 0.  1.
</event>
<event>
 5    1  0.2111786E+001  0.1525312E+01  0.7818608E-02  0.3438643E+00
         11   -1    0    0    0    0  0.00000000000E+00  0.00000000000E+00  0.39999999674E+01  0.40000000000E+01  0.51100000000E-03 0.  1.
    9000002   -1    0    0    0    0 -0.00000000000E+00 -0.00000000000E+00  0.00000000000E+00  0.93800000000E+00  0.93800000000E+00 0.  1.
         11    1    1    2    0    0  0.21925804180E+00  0.43397804208E-01  0.47572992353E+00  0.52562028078E+00  0.51100000000E-03 0.  1.
    9000002    1    1    2    0    0 -0.71225695587E-01  0.11552694390E+00  0.68984382011E-01  0.95027491782E+00  0.93800000000E+00 0.  1.
         22    1    1    2    0    0 -0.14803234621E+00 -0.15892474811E+00  0.34552856618E+01  0.34621048014E+01  0.00000000000E+00 0.  1.
</event>
<event>
 5    1  0.2111786E+001  0.1369993E+01  0.7818608E-02  0.3656211E+00
         11   -1    0    0    0    0  0.00000000000E+00  0.00000000000E+00  0.39999999674E+01  0.40000000000E+01  0.51100000000E-03 0. -1.
    9000002   -1    0    0    0    0 -0.00000000000E+00 -0.00000000000E+00  0.00000000000E+00  0.93800000000E+00  0.93800000000E+00 0.  1.
         11    1    1    2    0    0 -0.14655352780E+00 -0.46034824587E+00  0.26450345077E+01  0.26887927128E+01  0.51100000000E-03 0. -1.
    9000002    1    1    2    0    0 -0.37300833711E+00  0.19397823628E+00  0.34801536796E+00  0.10852287648E+01  0.93800000000E+00 0.  1.
         22    1    1    2    0    0  0.51956186492E+00  0.26637000959E+00  0.10069500917E+01  0.11639785224E+01  0.00000000000E+00 0.  1.
</event>
<event>
 5    1  0.2111786E+001  0.1590313E+01  0.7818608E-02  0.3363945E+00
         11   -1    0    0    0    0  0.00000000000E+00  0.00000000000E+00  0.39999999674E+01  0.40000000000E+01  0.51100000000E-03 0.  1.
    9000002   -1    0    0    0    0 -0.00000000000E+00 -0.00000000000E+00  0.00000000000E+00  0.93800000000E+00  0.93800000000E+00 0.  1.
         11    1    1    2    0    0  0.34612129094E-01 -0.71908570731E-01  0.18464546152E+01  0.18481784949E+01  0.51100000000E-03 0.  1.
    9000002    1    1    2    0    0 -0.22887563001E+00 -0.41212743650E-01  0.43017861816E-01  0.96735571569E+00  0.93800000000E+00 0.  1.
         22    1    1    2    0    0  0.19426350091E+00  0.11312131438E+00  0.21105274904E+01  0.21224657894E+01  0.00000000000E+00 0.  1.
</event>
<event>
 5    1  0.2111786E+001  0.1571670E+01  0.7818608E-02  0.3384698E+00
         11   -1    0    0    0    0  0.00000000000E+00  0.00000000000E+00  0.39999999674E+01  0.40000000000E+01  0.51100000000E-03 0.  1.
    9000002   -1    0    0    0    0 -0.00000000000E+00 -0.00000000000E+00  0.00000000000E+00  0.93800000000E+00  0.93800000000E+00 0.  1.
         11    1    1    2    0    0 -0.16990323549E+00 -0.58583902484E-01  0.15742962283E+01  0.15845213973E+01  0.51100000000E-03 0.  1.
    9000002    1    1    2    0    0 -0.89864158651E-02 -0.87722322078E-01  0.25815924620E-01  0.94248948186E+00  0.93800000000E+00 0.  1.
         22    1    1    2    0    0  0.17888965136E+00  0.14630622456E+00  0.23998878144E+01  0.24109891208E+01  0.00000000000E+00 0.  1.
</event>
<event>
 5    1  0.2111786E+001  0.1529560E+01  0.7818608E-02  0.3433554E+00
         11   -1    0    0    0    0  0.00000000000E+00  0.00000000000E+00  0.39999999674E+01  0.40000000000E+01  0.51100000000E-03 0.  1.
    9000002   -1    0    0    0    0 -0.00000000000E+00 -0.00000000000E+00  0.00000000000E+00  0.93800000000E+00  0.93800000000E+00 0.  1.
         11    1    1    2    0    0 -0.17286757978E+00 -0.26382596668E+00  0.29244093849E+01  0.29413700639E+01  0.51100000000E-03 0.  1.
    9000002    1    1    2    0    0 -0.43477929578E-01  0.99593786783E-01  0.60924594393E-01  0.94623731639E+00  0.93800000000E+00 0.  1.
         22    1    1    2    0    0  0.21634550935E+00  0.16423217990E+00  0.10146659880E+01  0.10503926197E+01  0.00000000000E+00 0.  1.
</event>
<event>
 5    1  0.2111786E+001  0.1598649E+01  0.7818608E-02  0.3354831E+00
         11   -1    0    0    0    0  0.00000000000E+00  0.00000000000E+00  0.39999999674E+01  0.40000000000E+01  0.51100000000E-03 0.  1.
    9000002   -1    0    0    0    0 -0.00000000000E+00 -0.00000000000E+00  0.00000000000E+00  0.93800000000E+00  0.93800000000E+00 0. -1.
         11    1    1    2    0    0 -0.86057956876E-02  0.89049490804E-01  0.15169452868E+01  0.15195812370E+01  0.51100000000E-03 0.  1.
    9000002    1    1    2    0    0  0.25328633207E-01 -0.32802313952E+00  0.73232212332E-01  0.99671845405E+00  0.93800000000E+00 0. -1.
         22    1    1    2    0    0 -0.16722837519E-01  0.23897364871E+00  0.24098224682E+01  0.24217003090E+01  0.00000000000E+00 0.  1.
</event>
<event>
 5    1  0.2111786E+001  0.1354647E+01  0.7818608E-02  0.3682447E+00
         11   -1    0    0    0    0  0.00000000000E+00  0.00000000000E+00  0.39999999674E+01  0.40000000000E+01  0.51100000000E-03 0.  1.
    9000002   -1    0    0    0    0 -0.00000000000E+00 -0.00000000000E+00  0.00000000000E+00  0.93800000000E+00  0.93800000000E+00 0.  1.
         11    1    1    2    0    0 -0.44409271601E+00  0.46510378252E+00  0.16061068081E+01  0.17300633541E+01  0.51100000000E-03 0.  1.
    9000002    1    1    2    0    0 -0.10695915937E+00 -0.30967735181E+00  0.30103611510E+00  0.10381748728E+01  0.93800000000E+00 0.  1.
         22    1    1    2    0    0  0.55105187538E+00 -0.15542643071E+00  0.20928570441E+01  0.21697617731E+01  0.00000000000E+00 0.  1.
</event>
<event>
 5    1  0.2111786E+001  0.1560812E+01  0.7818608E-02  0.3397027E+00
         11   -1    0    0    0    0  0.00000000000E+00  0.00000000000E+00  0.39999999674E+01  0.40000000000E+01  0.51100000000E-03 0.  1.
    9000002   -1    0    0    0    0 -0.00000000000E+00 -0.00000000000E+00  0.00000000000E+00  0.93800000000E+00  0.93800000000E+00 0. -1.
         11    1    1    2    0    0 -0.62647357689E-01  0.22105982819E+00  0.14320628449E+01  0.14503780169E+01  0.51100000000E-03 0.  1.
    9000002    1    1    2    0    0  0.10348347388E+00  0.15383250940E-01  0.36169046838E-01  0.94450922374E+00  0.93800000000E+00 0. -1.
         22    1    1    2    0    0 -0.40836116195E-01 -0.23644307913E+00  0.25317680757E+01  0.25431127594E+01  0.00000000000E+00 0.  1.
</event>
<event>
 5    1  0.2111786E+001  0.1531020E+01  0.7818608E-02  0.3431812E+00
         11   -1    0    0    0    0  0.00000000000E+00  0.00000000000E+00  0.39999999674E+01  0.40000000000E+01  0.51100000000E-03 0.  1.
    9000002   -1    0    0    0    0 -0.00000000000E+00 -0.00000000000E+00  0.00000000000E+00  0.93800000000E+00  0.93800000000E+00 0. -1.
         11    1    1    2    0    0 -0.27146980682E+00  0.20693511647E+00  0.63312845226E+00  0.71928429472E+00  0.51100000000E-03 0.  1.
    9000002    1    1    2    0    0  0.57530707455E+00 -0.16858312730E+00  0.32250924503E+00  0.11589886600E+01  0.93800000000E+00 0. -1.
         22    1    1    2    0    0 -0.30383726774E+00 -0.38351989161E-01  0.30443622701E+01  0.30597270453E+01  0.00000000000E+00 0.  1.
</event>
<event>
 5    1  0.2111786E+001  0.1450177E+01  0.7818608E-02  0.3533967E+00
         11   -1    0    0    0    0  0.00000000000E+00  0.00000000000E+00  0.39999999674E+01  0.40000000000E+01  0.51100000000E-03 0.  1.
    9000002   -1    0    0    0    0 -0.00000000000E+00 -0.00000000000E+00  0.00000000000E+00  0.93800000000E+00  0.93800000000E+00 0.  1.
         11    1    1    2    0    0 -0.56282064984E+00 -0.91201231592E-01  0.12468547071E+01  0.13710330668E+01  0.51100000000E-03 0.  1.
    9000002    1    1    2    0    0  0.35904492415E+00  0.26213213975E-01  0.22475147853E+00  0.10295424310E+01  0.93800000000E+00 0.  1.
         22    1    1    2    0    0  0.20377572569E+00  0.64988017617E-01  0.25283937817E+01  0.25374245022E+01  0.00000000000E+00 0.  1.
</event>
<event>
 5    1  0.2111786E+001  0.1548140E+01  0.7818608E-02  0.3411648E+00
         11   -1    0    0    0    0  0.00000000000E+00  0.00000000000E+00  0.39999999674E+01  0.40000000000E+01  0.51100000000E-03 0.  1.
    9000002   -1    0    0    0    0 -0.00000000000E+00 -0.00000000000E+00  0.00000000000E+00  0.93800000000E+00  0.93800000000E+00 0.  1.
         11    1    1    2    0    0 -0.14709972610E+00 -0.13591271105E+00  0.73304324338E+00  0.75991002904E+00  0.51100000000E-03 0.  1.
    9000002    1    1    2    0    0 -0.66869503250E-01 -0.29613857311E-01  0.41975553591E-01  0.94178259599E+00  0.93800000000E+00 0.  1.
         22    1    1    2    0    0  0.21396922935E+00  0.16552656836E+00  0.32249811704E+01  0.32363073750E+01  0.00000000000E+00 0.  1.
</event>
<event>
 5    1  0.2111786E+001  0.1592133E+01  0.7818608E-02  0.3361946E+00
         11   -1    0    0    0    0  0.00000000000E+00  0.00000000000E+00  0.39999999674E+01  0.40000000000E+01  0.51100000000E-03 0.  1.
    9000002   -1    0    0    0    0 -0.00000000000E+00 -0.00000000000E+00  0.00000000000E+00  0.93800000000E+00  0.93800000000E+00 0.  1.
         11    1    1    2    0    0 -0.11357549097E+00  0.18790015250E+00  0.15124191853E+01  0.15282728528E+01  0.51100000000E-03 0.  1.
    9000002    1    1    2    0    0  0.48649867957E-01 -0.38538529125E+00  0.10788228696E+00  0.10209658271E+01  0.93800000000E+00 0.  1.
         22    1    1    2    0    0  0.64925623013E-01  0.19748513875E+00  0.23796984951E+01  0.23887613201E+01  0.00000000000E+00 0.  1.
</event>
<event>
 5    1  0.2111786E+001  0.1576823E+01  0.7818608E-02  0.3378909E+00
         11   -1    0    0    0    0  0.00000000000E+00  0.00000000000E+00  0.39999999674E+01  0.40000000000E+01  0.51100000000E-03 0. -1.
    9000002   -1    0    0    0    0 -0.00000000000E+00 -0.00000000000E+00  0.00000000000E+00  0.93800000000E+00  0.93800000000E+00 0. -1.
         11    1    1    2    0    0 -0.41521927105E+00  0.53441010648E+00  0.20523614564E+01  0.21610620106E+01  0.51100000000E-03 0. -1.
    9000002    1    1    2    0    0  0.41577919726E+00 -0.76005440393E+00  0.60049152929E+00  0.14110241368E+01  0.93800000000E+00 0. -1.
         22    1    1    2    0    0 -0.55992620470E-03  0.22564429745E+00  0.13471469817E+01  0.13659138526E+01  0.00000000000E+00 0. -1.
</event>
<event>
 5    1  0.2111786E+001  0.1523437E+01  0.7818608E-02  0.3440898E+00
         11   -1    0    0    0    0  0.00000000000E+00  0.00000000000E+00  0.39999999674E+01  0.40000000000E+01  0.51100000000E-03 0.  1.
    9000002   -1    0    0    0    0 -0.00000000000E+00 -0.00000000000E+00  0.00000000000E+00  0.93800000000E+00  0.93800000000E+00 0. -1.
         11    1    1    2    0    0 -0.22284645858E-01  0.27693640928E+00  0.74726701263E+00  0.79724439760E+00  0.51100000000E-03 0.  1.
    9000002    1    1    2    0    0  0.39522312154E-01 -0.73065989404E-01  0.62257839023E-01  0.94372702117E+00  0.93800000000E+00 0. -1.
         22    1    1    2    0    0 -0.17237666295E-01 -0.20387041987E+00  0.31904751157E+01  0.31970285812E+01  0.00000000000E+00 0.  1.
</event>
<event>
 5    1  0.2111786E+001  0.1540416E+01  0.7818608E-02  0.3420687E+00
         11   -1    0    0    0    0  0.00000000000E+00  0.00000000000E+00  0.39999999674E+01  0.40000000000E+01  0.51100000000E-03 0. -1.
    9000002   -1    0    0    0    0 -0.00000000000E+00 -0.00000000000E+00  0.00000000000E+00  0.93800000000E+00  0.93800000000E+00 0. -1.
         11    1    1    2    0    0  0.30732791983E+00  0.48092159989E-01  0.66193652531E+00  0.73138466679E+00  0.51100000000E-03 0. -1.
    9000002    1    1    2    0    0 -0.43814330628E+00 -0.29949080524E+00  0.25100578167E+00  0.11065767943E+01  0.93800000000E+00 0. -1.
         22    1    1    2    0    0  0.13081538645E+00  0.25139864525E+00  0.30870576604E+01  0.31000385389E+01  0.00000000000E+00 0. -1.
</event>
<event>
 5    1  0.2111786E+001  0.1556975E+01  0.7818608E-02  0.3401427E+00
         11   -1    0    0    0    0  0.00000000000E+00  0.00000000000E+00  0.39999999674E+01  0.40000000000E+01  0.51100000000E-03 0. -1.
    9000002   -1    0    0    0    0 -0.00000000000E+00 -0.00000000000E+00  0.00000000000E+00  0.93800000000E+00  0.93800000000E+00 0.  1.
         11    1    1    2    0    0  0.16084152320E+00  0.18619735759E+00  0.24874810149E+01  0.24996202736E+01  0.51100000000E-03 0. -1.
    9000002    1    1    2    0    0 -0.47204749723E-01  0.24623902009E-01  0.33512046143E-01  0.94010727164E+00  0.93800000000E+00 0.  1.
         22    1    1    2    0    0 -0.11363677348E+00 -0.21082125960E+00  0.14790069063E+01  0.14982724547E+01  0.00000000000E+00 0. -1.
</event>
<event>
 5    1  0.2111786E+001  0.1596068E+01  0.7818608E-02  0.3357642E+00
         11   -1    0    0    0    0  0.00000000000E+00  0.00000000000E+00  0.39999999674E+01  0.40000000000E+01  0.51100000000E-03 0. -1.
    9000002   -1    0    0    0    0 -0.00000000000E+00 -0.00000000000E+00  0.00000000000E+00  0.93800000000E+00  0.93800000000E+00 0. -1.
         11    1    1    2    0    0 -0.14149007639E-01 -0.27115319603E-01  0.22359666387E+00  0.22567933931E+00  0.51100000000E-03 0. -1.
    9000002    1    1    2    0    0 -0.18727339890E+00  0.83011340390E-01  0.30502328408E-01  0.96059179708E+00  0.93800000000E+00 0. -1.
         22    1    1    2    0    0  0.20142240654E+00 -0.55896020787E-01  0.37459009751E+01  0.37517288636E+01  0.00000000000E+00 0. -1.
</event>
<event>
 5    1  0.2111786E+001  0.1548218E+01  0.7818608E-02  0.3411558E+00
         11   -1    0    0    0    0  0.00000000000E+00  0.00000000000E+00  0.39999999674E+01  0.40000000000E+01  0.51100000000E-03 0. -1.
    9000002   -1    0    0    0    0 -0.00000000000E+00 -0.00000000000E+00  0.00000000000E+00  0.93800000000E+00  0.93800000000E+00 0.  1.
         11    1    1    2    0    0 -0.14216364976E+00 -0.52446378059E-01  0.33866463080E+01  0.33900346020E+01  0.51100000000E-03 0. -1.
    9000002    1    1    2    0    0  0.40346837428E-01  0.24286419055E+00  0.80598109790E-01  0.97311404144E+00  0.93800000000E+00 0.  1.
         22    1    1    2    0    0  0.10181681233E+00 -0.19041781249E+00  0.53275554957E+00  0.57485135660E+00  0.00000000000E+00 0.  1.
</event>
<event>
 5    1  0.2111786E+001  0.1527335E+01  0.7818608E-02  0.3436216E+00
         11   -1    0    0    0    0  0.00000000000E+00  0.00000000000E+00  0.39999999674E+01  0.40000000000E+01  0.51100000000E-03 0.  1.
    9000002   -1    0    0    0    0 -0.00000000000E+00 -0.00000000000E+00  0.00000000000E+00  0.93800000000E+00  0.93800000000E+00 0.  1.
         11    1    1    2    0    0 -0.33860495428E+00 -0.89468115939E-01  0.24501921930E+01  0.24750959380E+01  0.51100000000E-03 0.  1.
    9000002    1    1    2    0    0  0.40104459845E-01  0.15674362071E+00  0.72907774445E-01  0.95463944707E+00  0.93800000000E+00 0.  1.
         22    1    1    2    0    0  0.29850049443E+00 -0.67275504773E-01  0.14768999999E+01  0.15082646149E+01  0.00000000000E+00 0.  1.
</event>
<event>
 5    1  0.2111786E+001  0.1561113E+01  0.7818608E-02  0.3396683E+00
         11   -1    0    0    0    0  0.00000000000E+00  0.00000000000E+00  0.39999999674E+01  0.40000000000E+01  0.51100000000E-03 0.  1.
    9000002   -1    0    0    0    0 -0.00000000000E+00 -0.00000000000E+00  0.00000000000E+00  0.93800000000E+00  0.93800000000E+00 0.  1.
         11    1    1    2    0    0 -0.25143004886E+00  0.43054185299E-01  0.27174920347E+01  0.27294383950E+01  0.51100000000E-03 0.  1.
    9000002    1    1    2    0    0  0.54137716267E-01  0.75357813823E-02  0.30490684338E-01  0.94008582702E+00  0.93800000000E+00 0.  1.
         22    1    1    2    0    0  0.19729233259E+00 -0.50589966682E-01  0.12520172484E+01  0.12684757780E+01  0.00000000000E+00 0.  1.
</event>
<event>
 5    1  0.3834306E+001  0.1564566E+01  0.7818608E-02  0.3392744E+00
         11   -1    0    0    0    0  0.00000000000E+00  0.00000000000E+00  0.39999999674E+01  0.40000000000E+01  0.51100000000E-03 0.  1.
    9000002   -1    0    0    0    0 -0.00000000000E+00 -0.00000000000E+00  0.00000000000E+00  0.93800000000E+00  0.93800000000E+00 0.  1.
         11    1    1    2    0    0  0.20632515702E+00  0.94595167035E-01  0.26590304319E+01  0.26687003232E+01  0.51100000000E-03 0.  1.
    9000002    1    1    2    0    0 -0.25951515046E-01  0.32431026162E-02  0.26321663911E-01  0.93873363040E+00  0.93800000000E+00 0.  1.
         22    1    1    2    0    0 -0.18037364197E+00 -0.97838269651E-01  0.13146478715E+01  0.13305660464E+01  0.00000000000E+00 0.  1.
</event>
<event>
 5    1  0.2111786E+001  0.1575572E+01  0.7818608E-02  0.3380311E+00
         11   -1    0    0    0    0  0.00000000000E+00  0.00000000000E+00  0.39999999674E+01  0.40000000000E+01  0.51100000000E-03 0.  1.
    9000002   -1    0    0    0    0 -0.00000000000E+00 -0.00000000000E+00  0.00000000000E+00  0.93800000000E+00  0.93800000000E+00 0.  1.
         11    1    1    2    0    0  0.13725275936E+00 -0.53738700295E-01  0.85876461505E+00  0.87132261135E+00  0.51100000000E-03 0.  1.
    9000002    1    1    2    0    0 -0.20171624156E-01 -0.11148617342E+00  0.26317351422E-01  0.94518393145E+00  0.93800000000E+00 0.  1.
         22    1    1    2    0    0 -0.11708113520E+00  0.16522487372E+00  0.31149180009E+01  0.31214934572E+01  0.00000000000E+00 0.  1.
</event>
<event>
 5    1  0.2111786E+001  0.1508041E+01  0.7818608E-02  0.3459648E+00
         11   -1    0    0    0    0  0.00000000000E+00  0.00000000000E+00  0.39999999674E+01  0.40000000000E+01  0.51100000000E-03 0. -1.
    9000002   -1    0    0    0    0 -0.00000000000E+00 -0.00000000000E+00  0.00000000000E+00  0.93800000000E+00  0.93800000000E+00 0.  1.
         11    1    1    2    0    0  0.19695104739E+00 -0.64805754644E+00  0.27157300596E+01  0.27989209200E+01  0.51100000000E-03 0. -1.
    9000002    1    1    2    0    0 -0.30993373174E+00  0.44638111876E+00  0.29543676986E+00  0.11235844010E+01  0.93800000000E+00 0.  1.
         22    1    1    2    0    0  0.11298268435E+00  0.20167642768E+00  0.98883313788E+00  0.10154946790E+01  0.00000000000E+00 0. -1.
</event>
<event>
 5    1  0.2111786E+001  0.1568251E+01  0.7818608E-02  0.3388560E+00
         11   -1    0    0    0    0  0.00000000000E+00  0.00000000000E+00  0.39999999674E+01  0.40000000000E+01  0.51100000000E-03 0. -1.
    9000002   -1    0    0    0    0 -0.00000000000E+00 -0.00000000000E+00  0.00000000000E+00  0.93800000000E+00  0.93800000000E+00 0. -1.
         11    1    1    2    0    0 -0.10640125614E+00  0.16577743279E+00  0.16047360905E+01  0.16167812362E+01  0.51100000000E-03 0. -1.
    9000002    1    1    2    0    0  0.32895927205E-01  0.53743806140E-01  0.25795177259E-01  0.94046793135E+00  0.93800000000E+00 0. -1.
         22    1    1    2    0    0  0.73505328935E-01 -0.21952123893E+00  0.23694686996E+01  0.23807508324E+01  0.00000000000E+00 0. -1.
</event>
<event>
 5    1  0.2111786E+001  0.1499759E+01  0.7818608E-02  0.3469905E+00
         11   -1    0    0    0    0  0.00000000000E+00  0.00000000000E+00  0.39999999674E+01  0.40000000000E+01  0.51100000000E-03 0. -1.
    9000002   -1    0    0    0    0 -0.00000000000E+00 -0.00000000000E+00  0.00000000000E+00  0.93800000000E+00  0.93800000000E+00 0.  1.
         11    1    1    2    0    0 -0.20391451771E+00  0.80839802517E-01  0.32306432574E+01  0.32380815805E+01  0.51100000000E-03 0. -1.
    9000002    1    1    2    0    0 -0.10678085195E+00 -0.12098230380E+00  0.95200882652E-01  0.95652813667E+00  0.93800000000E+00 0.  1.
         22    1    1    2    0    0  0.31069536966E+00  0.40142501288E-01  0.67415582734E+00  0.74339028288E+00  0.00000000000E+00 0. -1.
</event>
<event>
 5    1  0.2111786E+001  0.1539705E+01  0.7818608E-02  0.3421523E+00
         11   -1    0    0    0    0  0.00000000000E+00  0.00000000000E+00  0.39999999674E+01  0.40000000000E+01  0.51100000000E-03 0.  1.
    9000002   -1    0    0    0    0 -0.00000000000E+00 -0.00000000000E+00  0.00000000000E+00  0.93800000000E+00  0.93800000000E+00 0.  1.
         11    1    1    2    0    0 -0.26059515874E+00  0.21930245897E-01  0.33038757669E+01  0.33142097273E+01  0.51100000000E-03 0.  1.
    9000002    1    1    2    0    0  0.49722799867E+00 -0.13673129993E+00  0.23955948854E+00  0.10968882712E+01  0.93800000000E+00 0.  1.
         22    1    1    2    0    0 -0.23663283994E+00  0.11480105404E+00  0.45656471193E+00  0.52690200144E+00  0.00000000000E+00 0.  1.
</event>
<event>
 5    1  0.2111786E+001  0.1583015E+01  0.7818608E-02  0.3372007E+00
         11   -1    0    0    0    0  0.00000000000E+00  0.00000000000E+00  0.39999999674E+01  0.40000000000E+01  0.51100000000E-03 0. -1.
    9000002   -1    0    0    0    0 -0.00000000000E+00 -0.00000000000E+00  0.00000000000E+00  0.93800000000E+00  0.93800000000E+00 0. -1.
         11    1    1    2    0    0  0.84113660486E+00 -0.60207388303E+00  0.17638282856E+01  0.20447724154E+01  0.51100000000E-03 0. -1.
    9000002    1    1    2    0    0 -0.94198559601E+00  0.79294211883E+00  0.16212521709E+01  0.22415166001E+01  0.93800000000E+00 0. -1.
         22    1    1    2    0    0  0.10084899115E+00 -0.19086823579E+00  0.61491951086E+00  0.65171098448E+00  0.00000000000E+00 0. -1.
</event>
<event>
 5    1  0.2111786E+001  0.1696141E+01  0.7818608E-02  0.3255202E+00
         11   -1    0    0    0    0  0.00000000000E+00  0.00000000000E+00  0.39999999674E+01  0.40000000000E+01  0.51100000000E-03 0. -1.
    9000002   -1    0    0    0    0 -0.00000000000E+00 -0.00000000000E+00  0.00000000000E+00  0.93800000000E+00  0.93800000000E+00 0.  1.
         11    1    1    2    0    0 -0.10815091712E+00 -0.28874699736E+00  0.17556430666E-02  0.30834200616E+00  0.51100000000E-03 0. -1.
    9000002    1    1    2    0    0  0.19738745105E+00  0.40573129651E-01  0.42945019254E+00  0.10511324619E+01  0.93800000000E+00 0.  1.
         22    1    1    2    0    0 -0.89236533931E-01  0.24817386771E+00  0.35687941318E+01  0.35785255319E+01  0.00000000000E+00 0. -1.
</event>
<event>
 5    1  0.2111786E+001  0.1585276E+01  0.7818608E-02  0.3369500E+00
         11   -1    0    0    0    0  0.00000000000E+00  0.00000000000E+00  0.39999999674E+01  0.40000000000E+01  0.51100000000E-03 0.  1.
    9000002   -1    0    0    0    0 -0.00000000000E+00 -0.00000000000E+00  0.00000000000E+00  0.93800000000E+00  0.93800000000E+00 0.  1.
         11    1    1    2    0    0  0.45814270887E-01 -0.47285441139E-01  0.19288087585E+00  0.20380911106E+00  0.51100000000E-03 0.  1.
    9000002    1    1    2    0    0 -0.20067033318E+00 -0.90115553013E-01  0.43026056195E-01  0.96440895735E+00  0.93800000000E+00 0.  1.
         22    1    1    2    0    0  0.15485606229E+00  0.13740099415E+00  0.37640930353E+01  0.37697819316E+01  0.00000000000E+00 0.  1.
</event>
<event>
 5    1  0.2111786E+001  0.1547289E+01  0.7818608E-02  0.3412639E+00
         11   -1    0    0    0    0  0.00000000000E+00  0.00000000000E+00  0.39999999674E+01  0.40000000000E+01  0.51100000000E-03 0.  1.
    9000002   -1    0    0    0    0 -0.00000000000E+00 -0.00000000000E+00  0.00000000000E+00  0.93800000000E+00  0.93800000000E+00 0.  1.
         11    1    1    2    0    0  0.38536333138E-01  0.10082463714E+00  0.34268866721E+01  0.34285861782E+01  0.51100000000E-03 0.  1.
    9000002    1    1    2    0    0  0.15290288157E-02  0.98094369124E-01  0.45598306845E-01  0.94421822095E+00  0.93800000000E+00 0.  1.
         22    1    1    2    0    0 -0.40065361954E-01 -0.19891900626E+00  0.52751498839E+00  0.56519560088E+00  0.00000000000E+00 0. -1.
</event>
<event>
 5    1  0.2111786E+001  0.1505417E+01  0.7818608E-02  0.3462885E+00
         11   -1    0    0    0    0  0.00000000000E+00  0.00000000000E+00  0.39999999674E+01  0.40000000000E+01  0.51100000000E-03 0.  1.
    9000002   -1    0    0    0    0 -0.00000000000E+00 -0.00000000000E+00  0.00000000000E+00  0.93800000000E+00  0.93800000000E+00 0.  1.
         11    1    1    2    0    0  0.43131173337E-01  0.39976391868E+00  0.25790261136E+01  0.26101814965E+01  0.51100000000E-03 0.  1.
    9000002    1    1    2    0    0 -0.57352159568E-01 -0.74366573014E-01  0.77998432632E-01  0.94591089056E+00  0.93800000000E+00 0.  1.
         22    1    1    2    0    0  0.14220986230E-01 -0.32539734566E+00  0.13429754211E+01  0.13819076129E+01  0.00000000000E+00 0.  1.
</event>
<event>
 5    1  0.2111786E+001  0.1449635E+01  0.7818608E-02  0.3534693E+00
         11   -1    0    0    0    0  0.00000000000E+00  0.00000000000E+00  0.39999999674E+01  0.40000000000E+01  0.51100000000E-03 0. -1.
    9000002   -1    0    0    0    0 -0.00000000000E+00 -0.00000000000E+00  0.00000000000E+00  0.93800000000E+00  0.93800000000E+00 0. -1.
         11    1    1    2    0    0 -0.10843263100E+00  0.16501292417E+00  0.10462439038E+00  0.22345788147E+00  0.51100000000E-03 0. -1.
    9000002    1    1    2    0    0  0.38818055213E+00  0.64988931803E-01  0.24509262951E+00  0.10463374691E+01  0.93800000000E+00 0. -1.
         22    1    1    2    0    0 -0.27974792113E+00 -0.23000185598E+00  0.36502829475E+01  0.36682046494E+01  0.00000000000E+00 0. -1.
</event>
<event>
 5    1  0.2111786E+001  0.1544757E+01  0.7818608E-02  0.3415595E+00
         11   -1    0    0    0    0  0.00000000000E+00  0.00000000000E+00  0.39999999674E+01  0.40000000000E+01  0.51100000000E-03 0.  1.
    9000002   -1    0    0    0    0 -0.00000000000E+00 -0.00000000000E+00  0.00000000000E+00  0.93800000000E+00  0.93800000000E+00 0.  1.
         11    1    1    2    0    0 -0.44414821362E-01  0.23022029869E+00  0.33172819811E+01  0.33255577074E+01  0.51100000000E-03 0.  1.
    9000002    1    1    2    0    0  0.30217767973E-01 -0.26029352425E-01  0.41958410862E-01  0.93978462901E+00  0.93800000000E+00 0.  1.
         22    1    1    2    0    0  0.14197053389E-01 -0.20419094626E+00  0.64075957545E+00  0.67265766359E+00  0.00000000000E+00 0.  1.
</event>
<event>
 5    1  0.2111786E+001  0.1462126E+01  0.7818608E-02  0.3518098E+00
         11   -1    0    0    0    0  0.00000000000E+00  0.00000000000E+00  0.39999999674E+01  0.40000000000E+01  0.51100000000E-03 0. -1.
    9000002   -1    0    0    0    0 -0.00000000000E+00 -0.00000000000E+00  0.00000000000E+00  0.93800000000E+00  0.93800000000E+00 0. -1.
         11    1    1    2    0    0  0.33328044933E+00 -0.63857453317E-01  0.20936807744E+01  0.21210028473E+01  0.51100000000E-03 0. -1.
    9000002    1    1    2    0    0  0.13735380458E+00 -0.21160555340E+00  0.15610565840E+00  0.98379670382E+00  0.93800000000E+00 0. -1.
         22    1    1    2    0    0 -0.47063425392E+00  0.27546300672E+00  0.17502135346E+01  0.18332004489E+01  0.00000000000E+00 0. -1.
</event>
<event>
 5    1  0.2111786E+001  0.1315004E+01  0.7818608E-02  0.3753626E+00
         11   -1    0    0    0    0  0.00000000000E+00  0.00000000000E+00  0.39999999674E+01  0.40000000000E+01  0.51100000000E-03 0. -1.
    9000002   -1    0    0    0    0 -0.00000000000E+00 -0.00000000000E+00  0.00000000000E+00  0.93800000000E+00  0.93800000000E+00 0. -1.
         11    1    1    2    0    0 -0.17258751588E+00  0.57416182872E+00  0.30071250945E+01  0.30663088317E+01  0.51100000000E-03 0. -1.
    9000002    1    1    2    0    0 -0.90247334903E-01 -0.14271501926E+00  0.27148134917E+00  0.99098853733E+00  0.93800000000E+00 0.  1.
         22    1    1    2    0    0  0.26283485079E+00 -0.43144680946E+00  0.72139352365E+00  0.88070263094E+00  0.00000000000E+00 0. -1.
</event>
<event>
 5    1  0.2111786E+001  0.1542033E+01  0.7818608E-02  0.3418787E+00
         11   -1    0    0    0    0  0.00000000000E+00  0.00000000000E+00  0.39999999674E+01  0.40000000000E+01  0.51100000000E-03 0.  1.
    9000002   -1    0    0    0    0 -0.00000000000E+00 -0.00000000000E+00  0.00000000000E+00  0.93800000000E+00  0.93800000000E+00 0. -1.
         11    1    1    2    0    0 -0.14452503496E+00  0.29133467295E+00  0.22103935447E+01  0.22341896206E+01  0.51100000000E-03 0.  1.
    9000002    1    1    2    0    0 -0.41665415184E-01 -0.10497998838E+00  0.51846469016E-01  0.94619705196E+00  0.93800000000E+00 0. -1.
         22    1    1    2    0    0  0.18619045015E+00 -0.18635468457E+00  0.17377599537E+01  0.17576133274E+01  0.00000000000E+00 0.  1.
</event>
<event>
 5    1  0.2111786E+001  0.1578047E+01  0.7818608E-02  0.3377541E+00
         11   -1    0    0    0    0  0.00000000000E+00  0.00000000000E+00  0.39999999674E+01  0.40000000000E+01  0.51100000000E-03 0.  1.
    9000002   -1    0    0    0    0 -0.00000000000E+00 -0.00000000000E+00  0.00000000000E+00  0.93800000000E+00  0.93800000000E+00 0. -1.
         11    1    1    2    0    0 -0.54256138421E-01 -0.13758317245E+00  0.12813475326E+01  0.12898544950E+01  0.51100000000E-03 0.  1.
    9000002    1    1    2    0    0 -0.63513295744E-01 -0.30968767127E-01  0.19179919904E-01  0.94085326837E+00  0.93800000000E+00 0. -1.
         22    1    1    2    0    0  0.11776943416E+00  0.16855193958E+00  0.26994725149E+01  0.27072922366E+01  0.00000000000E+00 0.  1.
</event>
<event>
 5    1  0.2111786E+001  0.1566929E+01  0.7818608E-02  0.3390058E+00
         11   -1    0    0    0    0  0.00000000000E+00  0.00000000000E+00  0.39999999674E+01  0.40000000000E+01  0.51100000000E-03 0.  1.
    9000002   -1    0    0    0    0 -0.00000000000E+00 -0.00000000000E+00  0.00000000000E+00  0.93800000000E+00  0.93800000000E+00 0.  1.
         11    1    1    2    0    0  0.22653473085E-01 -0.20812346706E+00  0.15763475352E+01  0.15901887845E+01  0.51100000000E-03 0.  1.
    9000002    1    1    2    0    0  0.46599739030E-01 -0.23852337477E-02  0.25566634340E-01  0.93950778486E+00  0.93800000000E+00 0.  1.
         22    1    1    2    0    0 -0.69253212115E-01  0.21050870081E+00  0.23980857978E+01  0.24083034306E+01  0.00000000000E+00 0.  1.
</event>
<event>
 5    1  0.2111786E+001  0.1549213E+01  0.7818608E-02  0.3410401E+00
         11   -1    0    0    0    0  0.00000000000E+00  0.00000000000E+00  0.39999999674E+01  0.40000000000E+01  0.51100000000E-03 0. -1.
    9000002   -1    0    0    0    0 -0.00000000000E+00 -0.00000000000E+00  0.00000000000E+00  0.93800000000E+00  0.93800000000E+00 0.  1.
         11    1    1    2    0    0  0.26852621470E+00  0.68743867767E-01  0.16070246278E+01  0.16307545685E+01  0.51100000000E-03 0. -1.
    9000002    1    1    2    0    0 -0.28711927679E-01 -0.32590644303E-02  0.38029942887E-01  0.93921524309E+00  0.93800000000E+00 0.  1.
         22    1    1    2    0    0 -0.23981428702E+00 -0.65484803337E-01  0.23549453967E+01  0.23680301884E+01  0.00000000000E+00 0. -1.
</event>
<event>
 5    1  0.2111786E+001  0.1581373E+01  0.7818608E-02  0.3373832E+00
         11   -1    0    0    0    0  0.00000000000E+00  0.00000000000E+00  0.39999999674E+01  0.40000000000E+01  0.51100000000E-03 0. -1.
    9000002   -1    0    0    0    0 -0.00000000000E+00 -0.00000000000E+00  0.00000000000E+00  0.93800000000E+00  0.93800000000E+00 0.  1.
         11    1    1    2    0    0 -0.10307829009E+00  0.55715867443E-01  0.17993175196E+01  0.18031287223E+01  0.51100000000E-03 0. -1.
    9000002    1    1    2    0    0 -0.78144856321E-01  0.63229192365E-01  0.20145411569E-01  0.94358591922E+00  0.93800000000E+00 0.  1.
         22    1    1    2    0    0  0.18122314641E+00 -0.11894505981E+00  0.21805370362E+01  0.21912853585E+01  0.00000000000E+00 0. -1.
</event>
<event>
 5    1  0.2111786E+001  0.1559888E+01  0.7818608E-02  0.3398084E+00
         11   -1    0    0    0    0  0.00000000000E+00  0.00000000000E+00  0.39999999674E+01  0.40000000000E+01  0.51100000000E-03 0. -1.
    9000002   -1    0    0    0    0 -0.00000000000E+00 -0.00000000000E+00  0.00000000000E+00  0.93800000000E+00  0.93800000000E+00 0. -1.
         11    1    1    2    0    0  0.20165795939E+00  0.49130746584E-01  0.99897475087E+00  0.10203090595E+01  0.51100000000E-03 0. -1.
    9000002    1    1    2    0    0  0.20524146186E-01 -0.80432055643E-01  0.34089131472E-01  0.94228266727E+00  0.93800000000E+00 0. -1.
         22    1    1    2    0    0 -0.22218210558E+00  0.31301309059E-01  0.29669360850E+01  0.29754082733E+01  0.00000000000E+00 0. -1.
</event>
<event>
 5    1  0.2111786E+001  0.1580079E+01  0.7818608E-02  0.3375273E+00
         11   -1    0    0    0    0  0.00000000000E+00  0.00000000000E+00  0.39999999674E+01  0.40000000000E+01  0.51100000000E-03 0.  1.
    9000002   -1    0    0    0    0 -0.00000000000E+00 -0.00000000000E+00  0.00000000000E+00  0.93800000000E+00  0.93800000000E+00 0. -1.
         11    1    1    2    0    0  0.29659370262E+00  0.14466708776E+00  0.20189887080E+01  0.20457790827E+01  0.51100000000E-03 0.  1.
    9000002    1    1    2    0    0 -0.58693940988E+00  0.40969182385E-01  0.26043758152E+00  0.11374744299E+01  0.93800000000E+00 0. -1.
         22    1    1    2    0    0  0.29034570726E+00 -0.18563627014E+00  0.17205736778E+01  0.17547464875E+01  0.00000000000E+00 0.  1.
</event>
<event>
 5    1  0.2111786E+001  0.1480145E+01  0.7818608E-02  0.3494692E+00
         11   -1    0    0    0    0  0.00000000000E+00  0.00000000000E+00  0.39999999674E+01  0.40000000000E+01  0.51100000000E-03 0. -1.
    9000002   -1    0    0    0    0 -0.00000000000E+00 -0.00000000000E+00  0.00000000000E+00  0.93800000000E+00  0.93800000000E+00 0. -1.
         11    1    1    2    0    0  0.12291109740E+00  0.44933411330E+00  0.32037454140E+01  0.32374362113E+01  0.51100000000E-03 0. -1.
    9000002    1    1    2    0    0 -0.80063632128E-01 -0.16426900559E+00  0.11712399047E+00  0.96278581239E+00  0.93800000000E+00 0. -1.
         22    1    1    2    0    0 -0.42847465270E-01 -0.28506510771E+00  0.67913056288E+00  0.73777797632E+00  0.00000000000E+00 0.  1.
</event>
<event>
 5    1  0.2111786E+001  0.1556810E+01  0.7818608E-02  0.3401617E+00
         11   -1    0    0    0    0  0.00000000000E+00  0.00000000000E+00  0.39999999674E+01  0.40000000000E+01  0.51100000000E-03 0.  1.
    9000002   -1    0    0    0    0 -0.00000000000E+00 -0.00000000000E+00  0.00000000000E+00  0.93800000000E+00  0.93800000000E+00 0. -1.
         11    1    1    2    0    0  0.41147757224E-01  0.15691344767E+00  0.52867013882E+00  0.55299850342E+00  0.51100000000E-03 0.  1.
    9000002    1    1    2    0    0  0.14388771488E-01  0.60805007196E-01  0.34372058582E-01  0.94070703413E+00  0.93800000000E+00 0. -1.
         22    1    1    2    0    0 -0.55536528713E-01 -0.21771845486E+00  0.34369577700E+01  0.34442944624E+01  0.00000000000E+00 0.  1.
</event>
<event>
 5    1  0.2111786E+001  0.1573331E+01  0.7818608E-02  0.3382827E+00
         11   -1    0    0    0    0  0.00000000000E+00  0.00000000000E+00  0.39999999674E+01  0.40000000000E+01  0.51100000000E-03 0. -1.
    9000002   -1    0    0    0    0 -0.00000000000E+00 -0.00000000000E+00  0.00000000000E+00  0.93800000000E+00  0.93800000000E+00 0. -1.
         11    1    1    2    0    0 -0.14865990895E+00 -0.42721074608E-01  0.17586263963E+01  0.17654155096E+01  0.51100000000E-03 0. -1.
    9000002    1    1    2    0    0 -0.99455116858E-01  0.45093621188E-01  0.27381674034E-01  0.94473197840E+00  0.93800000000E+00 0. -1.
         22    1    1    2    0    0  0.24811502580E+00 -0.23725465794E-02  0.22139918971E+01  0.22278525120E+01  0.00000000000E+00 0.  1.
</event>
<event>
 5    1  0.2111786E+001  0.1560282E+01  0.7818608E-02  0.3397633E+00
         11   -1    0    0    0    0  0.00000000000E+00  0.00000000000E+00  0.39999999674E+01  0.40000000000E+01  0.51100000000E-03 0.  1.
    9000002   -1    0    0    0    0 -0.00000000000E+00 -0.00000000000E+00  0.00000000000E+00  0.93800000000E+00  0.93800000000E+00 0.  1.
         11    1    1    2    0    0  0.28015442510E-01 -0.23104940894E+00  0.15720845833E+01  0.15892195860E+01  0.51100000000E-03 0.  1.
    9000002    1    1    2    0    0  0.79524726818E-01  0.12786838471E-01  0.33514354184E-01  0.94204824577E+00  0.93800000000E+00 0.  1.
         22    1    1    2    0    0 -0.10754016933E+00  0.21826257047E+00  0.23944010298E+01  0.24067321682E+01  0.00000000000E+00 0.  1.
</event>
<event>
 5    1  0.2111786E+001  0.1565253E+01  0.7818608E-02  0.3391962E+00
         11   -1    0    0    0    0  0.00000000000E+00  0.00000000000E+00  0.39999999674E+01  0.40000000000E+01  0.51100000000E-03 0. -1.
    9000002   -1    0    0    0    0 -0.00000000000E+00 -0.00000000000E+00  0.00000000000E+00  0.93800000000E+00  0.93800000000E+00 0.  1.
         11    1    1    2    0    0 -0.12495248527E+00  0.72196726535E-01  0.67308917721E+00  0.68838564228E+00  0.51100000000E-03 0. -1.
    9000002    1    1    2    0    0 -0.14017637142E+00  0.34728345427E-01  0.39580389348E-01  0.94987687639E+00  0.93800000000E+00 0.  1.
         22    1    1    2    0    0  0.26512885669E+00 -0.10692507196E+00  0.32873304008E+01  0.32997374813E+01  0.00000000000E+00 0. -1.
</event>
<event>
 5    1  0.2111786E+001  0.1517781E+01  0.7818608E-02  0.3447739E+00
         11   -1    0    0    0    0  0.00000000000E+00  0.00000000000E+00  0.39999999674E+01  0.40000000000E+01  0.51100000000E-03 0.  1.
    9000002   -1    0    0    0    0 -0.00000000000E+00 -0.00000000000E+00  0.00000000000E+00  0.93800000000E+00  0.93800000000E+00 0. -1.
         11    1    1    2    0    0 -0.89398180043E-01  0.29054492362E+00  0.11559843123E+01  0.11952858983E+01  0.51100000000E-03 0.  1.
    9000002    1    1    2    0    0 -0.72175439531E-01  0.12901483056E-01  0.65637538016E-01  0.94314793576E+00  0.93800000000E+00 0. -1.
         22    1    1    2    0    0  0.16157361957E+00 -0.30344640668E+00  0.27783781171E+01  0.27995661660E+01  0.00000000000E+00 0.  1.
</event>
<event>
 5    1  0.2111786E+001  0.1557483E+01  0.7818608E-02  0.3400844E+00
         11   -1    0    0    0    0  0.00000000000E+00  0.00000000000E+00  0.39999999674E+01  0.40000000000E+01  0.51100000000E-03 0.  1.
    9000002   -1    0    0    0    0 -0.00000000000E+00 -0.00000000000E+00  0.00000000000E+00  0.93800000000E+00  0.93800000000E+00 0.  1.
         11    1    1    2    0    0  0.29242744909E+00  0.55336006290E-01  0.16381036175E+01  0.16649203012E+01  0.51100000000E-03 0.  1.
    9000002    1    1    2    0    0 -0.19269093780E+00  0.15666652521E+00  0.73910648038E-01  0.97312947829E+00  0.93800000000E+00 0.  1.
         22    1    1    2    0    0 -0.99736511285E-01 -0.21200253150E+00  0.22879857018E+01  0.22999502205E+01  0.00000000000E+00 0. -1.
</event>
<event>
 5    1  0.2111786E+001  0.1560057E+01  0.7818608E-02  0.3397891E+00
         11   -1    0    0    0    0  0.00000000000E+00  0.00000000000E+00  0.39999999674E+01  0.40000000000E+01  0.51100000000E-03 0. -1.
    9000002   -1    0    0    0    0 -0.00000000000E+00 -0.00000000000E+00  0.00000000000E+00  0.93800000000E+00  0.93800000000E+00 0. -1.
         11    1    1    2    0    0  0.65373438641E-02 -0.18088374658E+00  0.30215211671E+01  0.30269377415E+01  0.51100000000E-03 0. -1.
    9000002    1    1    2    0    0 -0.32953848136E-02 -0.31543734213E-01  0.29930695841E-01  0.93901315927E+00  0.93800000000E+00 0. -1.
         22    1    1    2    0    0 -0.32419590504E-02  0.21242748079E+00  0.94854810447E+00  0.97204909926E+00  0.00000000000E+00 0. -1.
</event>
<event>
 5    1  0.2111786E+001  0.1556886E+01  0.7818608E-02  0.3401530E+00
         11   -1    0    0    0    0  0.00000000000E+00  0.00000000000E+00  0.39999999674E+01  0.40000000000E+01  0.51100000000E-03 0.  1.
    9000002   -1    0    0    0    0 -0.00000000000E+00 -0.00000000000E+00  0.00000000000E+00  0.93800000000E+00  0.93800000000E+00 0.  1.
         11    1    1    2    0    0 -0.22094053170E-01 -0.22888005535E+00  0.10893164462E+01  0.11133215205E+01  0.51100000000E-03 0.  1.
    9000002    1    1    2    0    0  0.49982620791E-01  0.23019867871E-01  0.33712963902E-01  0.94021739009E+00  0.93800000000E+00 0.  1.
         22    1    1    2    0    0 -0.27888567621E-01  0.20586018747E+00  0.28769705573E+01  0.28844610894E+01  0.00000000000E+00 0.  1.
</event>
<event>
 5    1  0.2111786E+001  0.1566677E+01  0.7818608E-02  0.3390345E+00
         11   -1    0    0    0    0  0.00000000000E+00  0.00000000000E+00  0.39999999674E+01  0.40000000000E+01  0.51100000000E-03 0. -1.
    9000002   -1    0    0    0    0 -0.00000000000E+00 -0.00000000000E+00  0.00000000000E+00  0.93800000000E+00  0.93800000000E+00 0. -1.
         11    1    1    2    0    0  0.21215936191E+00 -0.86399249054E-01  0.21269593999E+01  0.21392599129E+01  0.51100000000E-03 0. -1.
    9000002    1    1    2    0    0 -0.10965920880E+00 -0.12769338178E+00  0.43614558266E-01  0.95397954460E+00  0.93800000000E+00 0. -1.
         22    1    1    2    0    0 -0.10250015311E+00  0.21409263084E+00  0.18294260092E+01  0.18447605425E+01  0.00000000000E+00 0. -1.
</event>
<event>
 5    1  0.2111786E+001  0.1534792E+01  0.7818608E-02  0.3427328E+00
         11   -1    0    0    0    0  0.00000000000E+00  0.00000000000E+00  0.39999999674E+01  0.40000000000E+01  0.51100000000E-03 0. -1.
    9000002   -1    0    0    0    0 -0.00000000000E+00 -0.00000000000E+00  0.00000000000E+00  0.93800000000E+00  0.93800000000E+00 0. -1.
         11    1    1    2    0    0  0.43110472167E+00 -0.11429523400E+00  0.21956097910E+01  0.22404502442E+01  0.51100000000E-03 0. -1.
    9000002    1    1    2    0    0 -0.22911445061E+00  0.13833387662E+00  0.99420800639E-01  0.98048874981E+00  0.93800000000E+00 0. -1.
         22    1    1    2    0    0 -0.20199027106E+00 -0.24038642622E-01  0.17049693758E+01  0.17170610060E+01  0.00000000000E+00 0. -1.
</event>
<event>
 5    1  0.2111786E+001  0.1553565E+01  0.7818608E-02  0.3405357E+00
         11   -1    0    0    0    0  0.00000000000E+00  0.00000000000E+00  0.39999999674E+01  0.40000000000E+01  0.51100000000E-03 0.  1.
    9000002   -1    0    0    0    0 -0.00000000000E+00 -0.00000000000E+00  0.00000000000E+00  0.93800000000E+00  0.93800000000E+00 0.  1.
         11    1    1    2    0    0 -0.25042782733E+00 -0.14705322571E+00  0.24046884736E+01  0.24221613621E+01  0.51100000000E-03 0.  1.
    9000002    1    1    2    0    0  0.17186827866E+00 -0.96271066141E-01  0.61037148279E-01  0.96040426741E+00  0.93800000000E+00 0.  1.
         22    1    1    2    0    0  0.78559548674E-01  0.24332429185E+00  0.15342743455E+01  0.15554343705E+01  0.00000000000E+00 0.  1.
</event>
<event>
 5    1  0.2111786E+001  0.1514785E+01  0.7818608E-02  0.3451385E+00
         11   -1    0    0    0    0  0.00000000000E+00  0.00000000000E+00  0.39999999674E+01  0.40000000000E+01  0.51100000000E-03 0. -1.
    9000002   -1    0    0    0    0 -0.00000000000E+00 -0.00000000000E+00  0.00000000000E+00  0.93800000000E+00  0.93800000000E+00 0.  1.
         11    1    1    2    0    0 -0.96821966762E-01 -0.22835635966E+00  0.53044590119E+00  0.58557171675E+00  0.51100000000E-03 0. -1.
    9000002    1    1    2    0    0  0.59132300368E-01  0.81652889781E-02  0.66712803968E-01  0.94226211805E+00  0.93800000000E+00 0.  1.
         22    1    1    2    0    0  0.37689666394E-01  0.22019107069E+00  0.34028412622E+01  0.34101661652E+01  0.00000000000E+00 0. -1.
</event>
<event>
 5    1  0.2111786E+001  0.1415302E+01  0.7818608E-02  0.3582660E+00
         11   -1    0    0    0    0  0.00000000000E+00  0.00000000000E+00  0.39999999674E+01  0.40000000000E+01  0.51100000000E-03 0. -1.
    9000002   -1    0    0    0    0 -0.00000000000E+00 -0.00000000000E+00  0.00000000000E+00  0.93800000000E+00  0.93800000000E+00 0. -1.
         11    1    1    2    0    0 -0.26031726749E+00  0.37738477443E+00  0.32130850733E+01  0.32456278741E+01  0.51100000000E-03 0. -1.
    9000002    1    1    2    0    0  0.64388089166E-01 -0.52977759972E-01  0.15334169580E+00  0.95410174759E+00  0.93800000000E+00 0. -1.
         22    1    1    2    0    0  0.19592917832E+00 -0.32440701446E+00  0.63357319828E+00  0.73827037834E+00  0.00000000000E+00 0. -1.
</event>
<event>
 5    1  0.2111786E+001  0.1493149E+01  0.7818608E-02  0.3478180E+00
         11   -1    0    0    0    0  0.00000000000E+00  0.00000000000E+00  0.39999999674E+01  0.40000000000E+01  0.51100000000E-03 0. -1.
    9000002   -1    0    0    0    0 -0.00000000000E+00 -0.00000000000E+00  0.00000000000E+00  0.93800000000E+00  0.93800000000E+00 0. -1.
         11    1    1    2    0    0  0.25313702394E+00 -0.36915988149E+00  0.14968196249E+01  0.15623145079E+01  0.51100000000E-03 0. -1.
    9000002    1    1    2    0    0 -0.29250327155E+00  0.29337655363E-01  0.14595185613E+00  0.99376295272E+00  0.93800000000E+00 0. -1.
         22    1    1    2    0    0  0.39366247614E-01  0.33982222613E+00  0.23572284863E+01  0.23819225393E+01  0.00000000000E+00 0. -1.
</event>
<event>
 5    1  0.2111786E+001  0.1526835E+01  0.7818608E-02  0.3436815E+00
         11   -1    0    0    0    0  0.00000000000E+00  0.00000000000E+00  0.39999999674E+01  0.40000000000E+01  0.51100000000E-03 0. -1.
    9000002   -1    0    0    0    0 -0.00000000000E+00 -0.00000000000E+00  0.00000000000E+00  0.93800000000E+00  0.93800000000E+00 0. -1.
         11    1    1    2    0    0 -0.11073263040E+00 -0.19626524042E+00  0.54108206077E+00  0.58613293513E+00  0.51100000000E-03 0. -1.
    9000002    1    1    2    0    0 -0.20552716028E-01  0.12560016891E-02  0.54995355685E-01  0.93983641174E+00  0.93800000000E+00 0. -1.
         22    1    1    2    0    0  0.13128534643E+00  0.19500923874E+00  0.34039225509E+01  0.34120306531E+01  0.00000000000E+00 0. -1.
</event>
<event>
 5    1  0.2111786E+001  0.1589229E+01  0.7818608E-02  0.3365138E+00
         11   -1    0    0    0    0  0.00000000000E+00  0.00000000000E+00  0.39999999674E+01  0.40000000000E+01  0.51100000000E-03 0. -1.
    9000002   -1    0    0    0    0 -0.00000000000E+00 -0.00000000000E+00  0.00000000000E+00  0.93800000000E+00  0.93800000000E+00 0. -1.
         11    1    1    2    0    0  0.30368923786E-01  0.26305643123E+00  0.26275006894E+01  0.26408106883E+01  0.51100000000E-03 0. -1.
    9000002    1    1    2    0    0  0.10922329926E+00 -0.45298390062E+00  0.15702099272E+00  0.10590673895E+01  0.93800000000E+00 0. -1.
         22    1    1    2    0    0 -0.13959222304E+00  0.18992746939E+00  0.12154782853E+01  0.12381219222E+01  0.00000000000E+00 0.  1.
</event>
<event>
 5    1  0.2111786E+001  0.1484390E+01  0.7818608E-02  0.3489267E+00
         11   -1    0    0    0    0  0.00000000000E+00  0.00000000000E+00  0.39999999674E+01  0.40000000000E+01  0.51100000000E-03 0.  1.
    9000002   -1    0    0    0    0 -0.00000000000E+00 -0.00000000000E+00  0.00000000000E+00  0.93800000000E+00  0.93800000000E+00 0.  1.
         11    1    1    2    0    0  0.73360022635E-01 -0.46821550219E+00  0.81737887989E+00  0.94483646406E+00  0.51100000000E-03 0.  1.
    9000002    1    1    2    0    0 -0.81657691117E-01  0.15257221659E+00  0.17590547872E+00  0.96991391228E+00  0.93800000000E+00 0.  1.
         22    1    1    2    0    0  0.82976684815E-02  0.31564328560E+00  0.30067156088E+01  0.30232496237E+01  0.00000000000E+00 0.  1.
</event>
<event>
 5    1  0.2111786E+001  0.1557285E+01  0.7818608E-02  0.3401071E+00
         11   -1    0    0    0    0  0.00000000000E+00  0.00000000000E+00  0.39999999674E+01  0.40000000000E+01  0.51100000000E-03 0. -1.
    9000002   -1    0    0    0    0 -0.00000000000E+00 -0.00000000000E+00  0.00000000000E+00  0.93800000000E+00  0.93800000000E+00 0. -1.
         11    1    1    2    0    0 -0.78393338831E-01 -0.10196008590E+00  0.32200911240E+00  0.34674414816E+00  0.51100000000E-03 0. -1.
    9000002    1    1    2    0    0 -0.19492704609E+00  0.24299963501E-01  0.57968765668E-01  0.96009969238E+00  0.93800000000E+00 0. -1.
         22    1    1    2    0    0  0.27332038492E+00  0.77660122400E-01  0.36200220893E+01  0.36311561595E+01  0.00000000000E+00 0. -1.
</event>
<event>
 5    1  0.2111786E+001  0.1579715E+01  0.7818608E-02  0.3375679E+00
         11   -1    0    0    0    0  0.00000000000E+00  0.00000000000E+00  0.39999999674E+01  0.40000000000E+01  0.51100000000E-03 0.  1.
    9000002   -1    0    0    0    0 -0.00000000000E+00 -0.00000000000E+00  0.00000000000E+00  0.93800000000E+00  0.93800000000E+00 0. -1.
         11    1    1    2    0    0  0.14575621084E+00  0.13721349903E+00  0.12684599184E+01  0.12841585739E+01  0.51100000000E-03 0.  1.
    9000002    1    1    2    0    0  0.17510994964E-01 -0.27382626858E+00  0.65699188116E-01  0.97951408547E+00  0.93800000000E+00 0. -1.
         22    1    1    2    0    0 -0.16326720580E+00  0.13661276955E+00  0.26658408609E+01  0.26743273406E+01  0.00000000000E+00 0.  1.
</event>
<event>
 5    1  0.2111786E+001  0.1560268E+01  0.7818608E-02  0.3397650E+00
         11   -1    0    0    0    0  0.00000000000E+00  0.00000000000E+00  0.39999999674E+01  0.40000000000E+01  0.51100000000E-03 0. -1.
    9000002   -1    0    0    0    0 -0.00000000000E+00 -0.00000000000E+00  0.00000000000E+00  0.93800000000E+00  0.93800000000E+00 0. -1.
         11    1    1    2    0    0 -0.10519292380E-02  0.25536583259E+00  0.17320988446E+01  0.17508225163E+01  0.51100000000E-03 0. -1.
    9000002    1    1    2    0    0  0.38296425215E-01 -0.43265493736E-01  0.31368318538E-01  0.94030127647E+00  0.93800000000E+00 0. -1.
         22    1    1    2    0    0 -0.37244495977E-01 -0.21210033885E+00  0.22365328042E+01  0.22468762072E+01  0.00000000000E+00 0. -1.
</event>
<event>
 5    1  0.2111786E+001  0.1483860E+01  0.7818608E-02  0.3489943E+00
         11   -1    0    0    0    0  0.00000000000E+00  0.00000000000E+00  0.39999999674E+01  0.40000000000E+01  0.51100000000E-03 0. -1.
    9000002   -1    0    0    0    0 -0.00000000000E+00 -0.00000000000E+00  0.00000000000E+00  0.93800000000E+00  0.93800000000E+00 0. -1.
         11    1    1    2    0    0 -0.42298099195E+00 -0.12113310262E+00  0.66517767982E+00  0.79752602149E+00  0.51100000000E-03 0. -1.
    9000002    1    1    2    0    0  0.20013482431E+00 -0.67903541816E-01  0.18751306236E+00  0.97962747381E+00  0.93800000000E+00 0. -1.
         22    1    1    2    0    0  0.22284616763E+00  0.18903664444E+00  0.31473092252E+01  0.31608465047E+01  0.00000000000E+00 0. -1.
</event>
<event>
 5    1  0.2111786E+001  0.1574124E+01  0.7818608E-02  0.3381936E+00
         11   -1    0    0    0    0  0.00000000000E+00  0.00000000000E+00  0.39999999674E+01  0.40000000000E+01  0.51100000000E-03 0. -1.
    9000002   -1    0    0    0    0 -0.00000000000E+00 -0.00000000000E+00  0.00000000000E+00  0.93800000000E+00  0.93800000000E+00 0.  1.
         11    1    1    2    0    0 -0.36872304020E-01 -0.22413633913E+00  0.14777085504E+01  0.14950650442E+01  0.51100000000E-03 0. -1.
    9000002    1    1    2    0    0 -0.16283288796E+00  0.17489542921E+00  0.57596406662E-01  0.96967226764E+00  0.93800000000E+00 0.  1.
         22    1    1    2    0    0  0.19970519198E+00  0.49240909924E-01  0.24646950103E+01  0.24732626881E+01  0.00000000000E+00 0. -1.
</event>
<event>
 5    1  0.2111786E+001  0.1498022E+01  0.7818608E-02  0.3472072E+00
         11   -1    0    0    0    0  0.00000000000E+00  0.00000000000E+00  0.39999999674E+01  0.40000000000E+01  0.51100000000E-03 0.  1.
    9000002   -1    0    0    0    0 -0.00000000000E+00 -0.00000000000E+00  0.00000000000E+00  0.93800000000E+00  0.93800000000E+00 0.  1.
         11    1    1    2    0    0  0.13035902221E+00  0.22905012502E+00  0.43416315117E+00  0.50789303736E+00  0.51100000000E-03 0.  1.
    9000002    1    1    2    0    0 -0.30114376642E+00  0.22261750470E-01  0.14525401613E+00  0.99605516052E+00  0.93800000000E+00 0.  1.
         22    1    1    2    0    0  0.17078474421E+00 -0.25131187549E+00  0.34205828001E+01  0.34340518021E+01  0.00000000000E+00 0.  1.
</event>
<event>
 5    1  0.2111786E+001  0.1546617E+01  0.7818608E-02  0.3413423E+00
         11   -1    0    0    0    0  0.00000000000E+00  0.00000000000E+00  0.39999999674E+01  0.40000000000E+01  0.51100000000E-03 0. -1.
    9000002   -1    0    0    0    0 -0.00000000000E+00 -0.00000000000E+00  0.00000000000E+00  0.93800000000E+00  0.93800000000E+00 0. -1.
         11    1    1    2    0    0 -0.15373482519E+00 -0.36455121042E+00  0.19931778163E+01  0.20320654640E+01  0.51100000000E-03 0. -1.
    9000002    1    1    2    0    0  0.26066282548E+00  0.17169831803E+00  0.10811333041E+00  0.99446363092E+00  0.93800000000E+00 0. -1.
         22    1    1    2    0    0 -0.10692800029E+00  0.19285289240E+00  0.18987088207E+01  0.19114709051E+01  0.00000000000E+00 0. -1.
</event>
<event>
 5    1  0.3360508E+001  0.1563760E+01  0.7818608E-02  0.3393661E+00
         11   -1    0    0    0    0  0.00000000000E+00  0.00000000000E+00  0.39999999674E+01  0.40000000000E+01  0.51100000000E-03 0. -1.
    9000002   -1    0    0    0    0 -0.00000000000E+00 -0.00000000000E+00  0.00000000000E+00  0.93800000000E+00  0.93800000000E+00 0.  1.
         11    1    1    2    0    0  0.25121543615E-01  0.22347472520E+00  0.14774693042E+01  0.14944858148E+01  0.51100000000E-03 0. -1.
    9000002    1    1    2    0    0 -0.17475784455E-01 -0.10021643943E-01  0.26736501173E-01  0.93859718564E+00  0.93800000000E+00 0.  1.
         22    1    1    2    0    0 -0.76457591606E-02 -0.21345308126E+00  0.24957941620E+01  0.25049169996E+01  0.00000000000E+00 0.  1.
</event>
<event>
 5    1  0.2111786E+001  0.1493474E+01  0.7818608E-02  0.3477771E+00
         11   -1    0    0    0    0  0.00000000000E+00  0.00000000000E+00  0.39999999674E+01  0.40000000000E+01  0.51100000000E-03 0. -1.
    9000002   -1    0    0    0    0 -0.00000000000E+00 -0.00000000000E+00  0.00000000000E+00  0.93800000000E+00  0.93800000000E+00 0.  1.
         11    1    1    2    0    0 -0.25341860557E+00 -0.38717872708E-01  0.19624849257E+01  0.19791582575E+01  0.51100000000E-03 0. -1.
    9000002    1    1    2    0    0 -0.27433275837E+00  0.92567235944E-01  0.14369982171E+00  0.99212942414E+00  0.93800000000E+00 0.  1.
         22    1    1    2    0    0  0.52775136394E+00 -0.53849363236E-01  0.18938152199E+01  0.19667123184E+01  0.00000000000E+00 0. -1.
</event>
<event>
 5    1  0.2111786E+001  0.1553722E+01  0.7818608E-02  0.3405176E+00
         11   -1    0    0    0    0  0.00000000000E+00  0.00000000000E+00  0.39999999674E+01  0.40000000000E+01  0.51100000000E-03 0. -1.
    9000002   -1    0    0    0    0 -0.00000000000E+00 -0.00000000000E+00  0.00000000000E+00  0.93800000000E+00  0.93800000000E+00 0. -1.
         11    1    1    2    0    0  0.77383976172E-01  0.20771522502E+00  0.10905963462E+01  0.11128946697E+01  0.51100000000E-03 0. -1.
    9000002    1    1    2    0    0  0.80216298275E-01  0.19212434421E-02  0.38464121497E-01  0.94221114105E+00  0.93800000000E+00 0. -1.
         22    1    1    2    0    0 -0.15760027445E+00 -0.20963646847E+00  0.28709394997E+01  0.28828941892E+01  0.00000000000E+00 0. -1.
</event>
<event>
 5    1  0.2111786E+001  0.1497215E+01  0.7818608E-02  0.3473080E+00
         11   -1    0    0    0    0  0.00000000000E+00  0.00000000000E+00  0.39999999674E+01  0.40000000000E+01  0.51100000000E-03 0.  1.
    9000002   -1    0    0    0    0 -0.00000000000E+00 -0.00000000000E+00  0.00000000000E+00  0.93800000000E+00  0.93800000000E+00 0.  1.
         11    1    1    2    0    0  0.45804896348E+00 -0.16359549327E+00  0.17374692249E+01  0.18042649215E+01  0.51100000000E-03 0.  1.
    9000002    1    1    2    0    0 -0.23398380220E+00  0.28242489680E-01  0.11919519782E+00  0.97447296171E+00  0.93800000000E+00 0.  1.
         22    1    1    2    0    0 -0.22406516128E+00  0.13535300359E+00  0.21433355447E+01  0.21592621168E+01  0.00000000000E+00 0.  1.
</event>
<event>
 5    1  0.2111786E+001  0.1562042E+01  0.7818608E-02  0.3395621E+00
         11   -1    0    0    0    0  0.00000000000E+00  0.00000000000E+00  0.39999999674E+01  0.40000000000E+01  0.51100000000E-03 0.  1.
    9000002   -1    0    0    0    0 -0.00000000000E+00 -0.00000000000E+00  0.00000000000E+00  0.93800000000E+00  0.93800000000E+00 0.  1.
         11    1    1    2    0    0  0.18391917546E+00 -0.19627859778E+00  0.18086579372E+01  0.18285500666E+01  0.51100000000E-03 0.  1.
    9000002    1    1    2    0    0  0.35084385749E-01  0.16907603862E+00  0.48203743371E-01  0.95497917351E+00  0.93800000000E+00 0.  1.
         22    1    1    2    0    0 -0.21900356121E+00  0.27202559164E-01  0.21431382868E+01  0.21544707599E+01  0.00000000000E+00 0.  1.
</event>
<event>
 5    1  0.2111786E+001  0.1535467E+01  0.7818608E-02  0.3426528E+00
         11   -1    0    0    0    0  0.00000000000E+00  0.00000000000E+00  0.39999999674E+01  0.40000000000E+01  0.51100000000E-03 0.  1.
    9000002   -1    0    0    0    0 -0.00000000000E+00 -0.00000000000E+00  0.00000000000E+00  0.93800000000E+00  0.93800000000E+00 0. -1.
         11    1    1    2    0    0  0.85285542404E-01 -0.30654000470E+00  0.31722982291E+01  0.31882152866E+01  0.51100000000E-03 0.  1.
    9000002    1    1    2    0    0 -0.90792577328E-01  0.79566110465E-01  0.58242467915E-01  0.94752849197E+00  0.93800000000E+00 0. -1.
         22    1    1    2    0    0  0.55070349239E-02  0.22697389424E+00  0.76945927031E+00  0.80225622139E+00  0.00000000000E+00 0.  1.
</event>
<event>
 5    1  0.2111786E+001  0.1472189E+01  0.7818608E-02  0.3504950E+00
         11   -1    0    0    0    0  0.00000000000E+00  0.00000000000E+00  0.39999999674E+01  0.40000000000E+01  0.51100000000E-03 0. -1.
    9000002   -1    0    0    0    0 -0.00000000000E+00 -0.00000000000E+00  0.00000000000E+00  0.93800000000E+00  0.93800000000E+00 0.  1.
         11    1    1    2    0    0 -0.46774800742E+00 -0.13736336538E+00  0.13234138528E+01  0.14103479640E+01  0.51100000000E-03 0. -1.
    9000002    1    1    2    0    0  0.98024577972E-01 -0.21413172740E+00  0.18534081432E+00  0.98471134452E+00  0.93800000000E+00 0.  1.
         22    1    1    2    0    0  0.36972342945E+00  0.35149509278E+00  0.24912453002E+01  0.25429406915E+01  0.00000000000E+00 0. -1.
</event>
<event>
 5    1  0.2111786E+001  0.1429630E+01  0.7818608E-02  0.3561934E+00
         11   -1    0    0    0    0  0.00000000000E+00  0.00000000000E+00  0.39999999674E+01  0.40000000000E+01  0.51100000000E-03 0.  1.
    9000002   -1    0    0    0    0 -0.00000000000E+00 -0.00000000000E+00  0.00000000000E+00  0.93800000000E+00  0.93800000000E+00 0. -1.
         11    1    1    2    0    0 -0.75216433907E-01  0.62592867781E+00  0.14794818886E+01  0.16082012130E+01  0.51100000000E-03 0.  1.
    9000002    1    1    2    0    0  0.21254944897E+00 -0.34234122980E+00  0.26818038092E+00  0.10555280681E+01  0.93800000000E+00 0. -1.
         22    1    1    2    0    0 -0.13733301506E+00 -0.28358744802E+00  0.22523376979E+01  0.22742707189E+01  0.00000000000E+00 0.  1.
</event>
<event>
 5    1  0.2111786E+001  0.1524059E+01  0.7818608E-02  0.3440149E+00
         11   -1    0    0    0    0  0.00000000000E+00  0.00000000000E+00  0.39999999674E+01  0.40000000000E+01  0.51100000000E-03 0. -1.
    9000002   -1    0    0    0    0 -0.00000000000E+00 -0.00000000000E+00  0.00000000000E+00  0.93800000000E+00  0.93800000000E+00 0.  1.
         11    1    1    2    0    0 -0.17402191763E+00 -0.25223579969E+00  0.10130631056E+01  0.10583967326E+01  0.51100000000E-03 0. -1.
    9000002    1    1    2    0    0 -0.60013996282E-01  0.12150659524E+00  0.69942163918E-01  0.95031649398E+00  0.93800000000E+00 0.  1.
         22    1    1    2    0    0  0.23403591391E+00  0.13072920446E+00  0.29169946978E+01  0.29292867734E+01  0.00000000000E+00 0. -1.
</event>
<event>
 5    1  0.2111786E+001  0.1530033E+01  0.7818608E-02  0.3432990E+00
         11   -1    0    0    0    0  0.00000000000E+00  0.00000000000E+00  0.39999999674E+01  0.40000000000E+01  0.51100000000E-03 0. -1.
    9000002   -1    0    0    0    0 -0.00000000000E+00 -0.00000000000E+00  0.00000000000E+00  0.93800000000E+00  0.93800000000E+00 0.  1.
         11    1    1    2    0    0  0.32608420508E+00 -0.12212839413E+00  0.22472683078E+01  0.22740847305E+01  0.51100000000E-03 0. -1.
    9000002    1    1    2    0    0 -0.64232398896E-01 -0.11051263163E-02  0.55119197139E-01  0.94181163099E+00  0.93800000000E+00 0.  1.
         22    1    1    2    0    0 -0.26185180618E+00  0.12323352045E+00  0.16976124625E+01  0.17221036385E+01  0.00000000000E+00 0. -1.
</event>
<event>
 5    1  0.2111786E+001  0.1551187E+01  0.7818608E-02  0.3408109E+00
         11   -1    0    0    0    0  0.00000000000E+00  0.00000000000E+00  0.39999999674E+01  0.40000000000E+01  0.51100000000E-03 0.  1.
    9000002   -1    0    0    0    0 -0.00000000000E+00 -0.00000000000E+00  0.00000000000E+00  0.93800000000E+00  0.93800000000E+00 0.  1.
         11    1    1    2    0    0  0.14108985933E+00  0.87259227846E-01  0.32930976252E+01  0.32972735330E+01  0.51100000000E-03 0.  1.
    9000002    1    1    2    0    0 -0.46976224524E-02  0.70133410987E-01  0.39363796318E-01  0.94145327630E+00  0.93800000000E+00 0.  1.
         22    1    1    2    0    0 -0.13639223687E+00 -0.15739263883E+00  0.66753854582E+00  0.69927319067E+00  0.00000000000E+00 0.  1.
</event>
<event>
 5    1  0.2111786E+001  0.1529842E+01  0.7818608E-02  0.3433218E+00
         11   -1    0    0    0    0  0.00000000000E+00  0.00000000000E+00  0.39999999674E+01  0.40000000000E+01  0.51100000000E-03 0. -1.
    9000002   -1    0    0    0    0 -0.00000000000E+00 -0.00000000000E+00  0.00000000000E+00  0.93800000000E+00  0.93800000000E+00 0. -1.
         11    1    1    2    0    0  0.22303969025E+00 -0.19824821122E+00  0.33338628201E+01  0.33471914527E+01  0.51100000000E-03 0. -1.
    9000002    1    1    2    0    0 -0.10044926687E-02  0.28113370083E+00  0.10889565521E+00  0.98526109761E+00  0.93800000000E+00 0. -1.
         22    1    1    2    0    0 -0.22203519759E+00 -0.82885489611E-01  0.55724149210E+00  0.60554744972E+00  0.00000000000E+00 0. -1.
</event>
<event>
 5    1  0.2111786E+001  0.1580122E+01  0.7818608E-02  0.3375225E+00
         11   -1    0    0    0    0  0.00000000000E+00  0.00000000000E+00  0.39999999674E+01  0.40000000000E+01  0.51100000000E-03 0. -1.
    9000002   -1    0    0    0    0 -0.00000000000E+00 -0.00000000000E+00  0.00000000000E+00  0.93800000000E+00  0.93800000000E+00 0. -1.
         11    1    1    2    0    0 -0.17881081091E+00 -0.28654373254E-01  0.10904554340E+01  0.11053902903E+01  0.51100000000E-03 0. -1.
    9000002    1    1    2    0    0  0.20368168527E+00 -0.21555750055E+00  0.74092896190E-01  0.98655208794E+00  0.93800000000E+00 0. -1.
         22    1    1    2    0    0 -0.24870874360E-01  0.24421187380E+00  0.28354516372E+01  0.28460576218E+01  0.00000000000E+00 0. -1.
</event>
<event>
 5    1  0.2111786E+001  0.1479685E+01  0.7818608E-02  0.3495281E+00
         11   -1    0    0    0    0  0.00000000000E+00  0.00000000000E+00  0.39999999674E+01  0.40000000000E+01  0.51100000000E-03 0.  1.
    9000002   -1    0    0    0    0 -0.00000000000E+00 -0.00000000000E+00  0.00000000000E+00  0.93800000000E+00  0.93800000000E+00 0. -1.
         11    1    1    2    0    0 -0.28996019402E+00  0.53841587928E-01  0.68937965166E+00  0.74981357413E+00  0.51100000000E-03 0.  1.
    9000002    1    1    2    0    0 -0.14230918851E+00  0.50132956422E-01  0.10950924284E+00  0.95634799771E+00  0.93800000000E+00 0. -1.
         22    1    1    2    0    0  0.43226938253E+00 -0.10397454435E+00  0.32011110729E+01  0.32318384282E+01  0.00000000000E+00 0.  1.
</event>
<event>
 5    1  0.2111786E+001  0.1564134E+01  0.7818608E-02  0.3393235E+00
         11   -1    0    0    0    0  0.00000000000E+00  0.00000000000E+00  0.39999999674E+01  0.40000000000E+01  0.51100000000E-03 0. -1.
    9000002   -1    0    0    0    0 -0.00000000000E+00 -0.00000000000E+00  0.00000000000E+00  0.93800000000E+00  0.93800000000E+00 0.  1.
         11    1    1    2    0    0  0.21923513519E+00 -0.63167632698E-01  0.14513022815E+01  0.14691265322E+01  0.51100000000E-03 0. -1.
    9000002    1    1    2    0    0 -0.43350792824E-01 -0.46577586751E-01  0.28939295826E-01  0.94060100238E+00  0.93800000000E+00 0.  1.
         22    1    1    2    0    0 -0.17588434236E+00  0.10974521945E+00  0.25197583901E+01  0.25282724654E+01  0.00000000000E+00 0. -1.
</event>
<event>
 5    1  0.2111786E+001  0.1555651E+01  0.7818608E-02  0.3402952E+00
         11   -1    0    0    0    0  0.00000000000E+00  0.00000000000E+00  0.39999999674E+01  0.40000000000E+01  0.51100000000E-03 0.  1.
    9000002   -1    0    0    0    0 -0.00000000000E+00 -0.00000000000E+00  0.00000000000E+00  0.93800000000E+00  0.93800000000E+00 0. -1.
         11    1    1    2    0    0 -0.22297503947E+00 -0.42191232550E-01  0.11532426853E+01  0.11753582095E+01  0.51100000000E-03 0.  1.
    9000002    1    1    2    0    0 -0.36042137617E-02 -0.28547193956E-01  0.33136177887E-01  0.93902605870E+00  0.93800000000E+00 0. -1.
         22    1    1    2    0    0  0.22657925323E+00  0.70738426505E-01  0.28136211042E+01  0.28236157318E+01  0.00000000000E+00 0.  1.
</event>
<event>
 5    1  0.2111786E+001  0.1514179E+01  0.7818608E-02  0.3452124E+00
         11   -1    0    0    0    0  0.00000000000E+00  0.00000000000E+00  0.39999999674E+01  0.40000000000E+01  0.51100000000E-03 0.  1.
    9000002   -1    0    0    0    0 -0.00000000000E+00 -0.00000000000E+00  0.00000000000E+00  0.93800000000E+00  0.93800000000E+00 0. -1.
         11    1    1    2    0    0  0.15863458072E+00  0.23029594118E+00  0.30029227391E+01  0.30159155143E+01  0.51100000000E-03 0.  1.
    9000002    1    1    2    0    0  0.12682728122E+00 -0.96122311398E-01  0.82884890456E-01  0.95500710106E+00  0.93800000000E+00 0. -1.
         22    1    1    2    0    0 -0.28546186194E+00 -0.13417362978E+00  0.91419233776E+00  0.96707738468E+00  0.00000000000E+00 0. -1.
</event>
<event>
 5    1  0.2111786E+001  0.1553039E+01  0.7818608E-02  0.3405965E+00
         11   -1    0    0    0    0  0.00000000000E+00  0.00000000000E+00  0.39999999674E+01  0.40000000000E+01  0.51100000000E-03 0. -1.
    9000002   -1    0    0    0    0 -0.00000000000E+00 -0.00000000000E+00  0.00000000000E+00  0.93800000000E+00  0.93800000000E+00 0. -1.
         11    1    1    2    0    0  0.47893895071E+00 -0.23300865646E-01  0.14815137747E+01  0.15571797503E+01  0.51100000000E-03 0. -1.
    9000002    1    1    2    0    0 -0.65654279088E+00  0.43882893145E+00  0.51997264813E+00  0.13318539042E+01  0.93800000000E+00 0. -1.
         22    1    1    2    0    0  0.17760384017E+00 -0.41552806581E+00  0.19985135445E+01  0.20489663455E+01  0.00000000000E+00 0. -1.
</event>
<event>
 5    1  0.2111786E+001  0.1548186E+01  0.7818608E-02  0.3411595E+00
         11   -1    0    0    0    0  0.00000000000E+00  0.00000000000E+00  0.39999999674E+01  0.40000000000E+01  0.51100000000E-03 0. -1.
    9000002   -1    0    0    0    0 -0.00000000000E+00 -0.00000000000E+00  0.00000000000E+00  0.93800000000E+00  0.93800000000E+00 0.  1.
         11    1    1    2    0    0  0.25274133382E+00  0.25614946764E-01  0.30222782912E+01  0.30329359765E+01  0.51100000000E-03 0. -1.
    9000002    1    1    2    0    0 -0.57171255581E-01 -0.16448419173E+00  0.59333776642E-01  0.95587033579E+00  0.93800000000E+00 0.  1.
         22    1    1    2    0    0 -0.19557007824E+00  0.13886924496E+00  0.91838789955E+00  0.94919368769E+00  0.00000000000E+00 0. -1.
</event>
<event>
 5    1  0.2111786E+001  0.1558365E+01  0.7818608E-02  0.3399831E+00
         11   -1    0    0    0    0  0.00000000000E+00  0.00000000000E+00  0.39999999674E+01  0.40000000000E+01  0.51100000000E-03 0.  1.
    9000002   -1    0    0    0    0 -0.00000000000E+00 -0.00000000000E+00  0.00000000000E+00  0.93800000000E+00  0.93800000000E+00 0. -1.
         11    1    1    2    0    0  0.16399430489E+00  0.37004894365E-01  0.64129975679E+00  0.66296993402E+00  0.51100000000E-03 0.  1.
    9000002    1    1    2    0    0  0.39916633244E-01  0.14780303568E+00  0.46639209043E-01  0.95155572132E+00  0.93800000000E+00 0. -1.
         22    1    1    2    0    0 -0.20391093814E+00 -0.18480793004E+00  0.33120610015E+01  0.33234743447E+01  0.00000000000E+00 0.  1.
</event>
<event>
 5    1  0.2111786E+001  0.1550227E+01  0.7818608E-02  0.3409222E+00
         11   -1    0    0    0    0  0.00000000000E+00  0.00000000000E+00  0.39999999674E+01  0.40000000000E+01  0.51100000000E-03 0. -1.
    9000002   -1    0    0    0    0 -0.00000000000E+00 -0.00000000000E+00  0.00000000000E+00  0.93800000000E+00  0.93800000000E+00 0.  1.
         11    1    1    2    0    0  0.15856669444E+00  0.14832287989E+00  0.56224432947E+00  0.60271222024E+00  0.51100000000E-03 0. -1.
    9000002    1    1    2    0    0 -0.71053528312E-02 -0.28243832684E+00  0.92568923558E-01  0.98398927846E+00  0.93800000000E+00 0.  1.
         22    1    1    2    0    0 -0.15146134161E+00  0.13411544695E+00  0.33451867143E+01  0.33512985013E+01  0.00000000000E+00 0. -1.
</event>
<event>
 5    1  0.2111786E+001  0.1566336E+01  0.7818608E-02  0.3390732E+00
         11   -1    0    0    0    0  0.00000000000E+00  0.00000000000E+00  0.39999999674E+01  0.40000000000E+01  0.51100000000E-03 0.  1.
    9000002   -1    0    0    0    0 -0.00000000000E+00 -0.00000000000E+00  0.00000000000E+00  0.93800000000E+00  0.93800000000E+00 0.  1.
         11    1    1    2    0    0 -0.31277437774E-01  0.19302294994E+00  0.13749485412E+01  0.13887836006E+01  0.51100000000E-03 0.  1.
    9000002    1    1    2    0    0 -0.93880892695E-03  0.39486078790E-01  0.25591483192E-01  0.93917993792E+00  0.93800000000E+00 0.  1.
         22    1    1    2    0    0  0.32216246700E-01 -0.23250902873E+00  0.25994599430E+01  0.26100364614E+01  0.00000000000E+00 0.  1.
</event>
<event>
 5    1  0.2111786E+001  0.1490795E+01  0.7818608E-02  0.3481146E+00
         11   -1    0    0    0    0  0.00000000000E+00  0.00000000000E+00  0.39999999674E+01  0.40000000000E+01  0.51100000000E-03 0.  1.
    9000002   -1    0    0    0    0 -0.00000000000E+00 -0.00000000000E+00  0.00000000000E+00  0.93800000000E+00  0.93800000000E+00 0. -1.
         11    1    1    2    0    0 -0.19277018239E+00  0.14902143593E+00  0.36421151100E+00  0.43819860503E+00  0.51100000000E-03 0.  1.
    9000002    1    1    2    0    0  0.51741284287E-01  0.35379420721E-02  0.85363539963E-01  0.94330303269E+00  0.93800000000E+00 0. -1.
         22    1    1    2    0    0  0.14102889810E+00 -0.15255937800E+00  0.35504249164E+01  0.35564983623E+01  0.00000000000E+00 0.  1.
</event>
<event>
 5    1  0.2111786E+001  0.1579637E+01  0.7818608E-02  0.3375765E+00
         11   -1    0    0    0    0  0.00000000000E+00  0.00000000000E+00  0.39999999674E+01  0.40000000000E+01  0.51100000000E-03 0. -1.
    9000002   -1    0    0    0    0 -0.00000000000E+00 -0.00000000000E+00  0.00000000000E+00  0.93800000000E+00  0.93800000000E+00 0.  1.
         11    1    1    2    0    0  0.34124710683E-01 -0.82079076907E-01  0.42260290559E+00  0.43185060806E+00  0.51100000000E-03 0. -1.
    9000002    1    1    2    0    0  0.17868289662E+00 -0.83843370332E-01  0.40943232988E-01  0.95941525765E+00  0.93800000000E+00 0.  1.
         22    1    1    2    0    0 -0.21280760730E+00  0.16592244724E+00  0.35364538288E+01  0.35467341343E+01  0.00000000000E+00 0. -1.
</event>
<event>
 5    1  0.2111786E+001  0.1490351E+01  0.7818608E-02  0.3481707E+00
         11   -1    0    0    0    0  0.00000000000E+00  0.00000000000E+00  0.39999999674E+01  0.40000000000E+01  0.51100000000E-03 0.  1.
    9000002   -1    0    0    0    0 -0.00000000000E+00 -0.00000000000E+00  0.00000000000E+00  0.93800000000E+00  0.93800000000E+00 0. -1.
         11    1    1    2    0    0 -0.42698933396E+00  0.29435599138E+00  0.15736746133E+01  0.16569301103E+01  0.51100000000E-03 0.  1.
    9000002    1    1    2    0    0  0.28397384147E+00 -0.12795403536E+00  0.15651239853E+00  0.10006765255E+01  0.93800000000E+00 0. -1.
         22    1    1    2    0    0  0.14301549249E+00 -0.16640195602E+00  0.22698129556E+01  0.22803933642E+01  0.00000000000E+00 0.  1.
</event>
<event>
 5    1  0.2111786E+001  0.1563726E+01  0.7818608E-02  0.3393700E+00
         11   -1    0    0    0    0  0.00000000000E+00  0.00000000000E+00  0.39999999674E+01  0.40000000000E+01  0.51100000000E-03 0. -1.
    9000002   -1    0    0    0    0 -0.00000000000E+00 -0.00000000000E+00  0.00000000000E+00  0.93800000000E+00  0.93800000000E+00 0. -1.
         11    1    1    2    0    0 -0.18011680746E+00  0.19294364452E+00  0.22250709942E+01  0.22406718869E+01  0.51100000000E-03 0. -1.
    9000002    1    1    2    0    0 -0.79874588981E-01 -0.31896657475E+00  0.10149123952E+00  0.99913167174E+00  0.93800000000E+00 0. -1.
         22    1    1    2    0    0  0.25999139644E+00  0.12602293023E+00  0.16734377336E+01  0.16981964413E+01  0.00000000000E+00 0. -1.
</event>
<event>
 5    1  0.2111786E+001  0.1570248E+01  0.7818608E-02  0.3386302E+00
         11   -1    0    0    0    0  0.00000000000E+00  0.00000000000E+00  0.39999999674E+01  0.40000000000E+01  0.51100000000E-03 0. -1.
    9000002   -1    0    0    0    0 -0.00000000000E+00 -0.00000000000E+00  0.00000000000E+00  0.93800000000E+00  0.93800000000E+00 0. -1.
         11    1    1    2    0    0  0.10270340210E+00 -0.87424597986E-01  0.55417549638E+00  0.57035233939E+00  0.51100000000E-03 0. -1.
    9000002    1    1    2    0    0  0.13476106241E+00  0.76318878074E-01  0.37913095763E-01  0.95145494792E+00  0.93800000000E+00 0. -1.
         22    1    1    2    0    0 -0.23746446451E+00  0.11105719912E-01  0.34079113752E+01  0.34161927127E+01  0.00000000000E+00 0. -1.
</event>
<event>
 5    1  0.2111786E+001  0.1559176E+01  0.7818608E-02  0.3398900E+00
         11   -1    0    0    0    0  0.00000000000E+00  0.00000000000E+00  0.39999999674E+01  0.40000000000E+01  0.51100000000E-03 0. -1.
    9000002   -1    0    0    0    0 -0.00000000000E+00 -0.00000000000E+00  0.00000000000E+00  0.93800000000E+00  0.93800000000E+00 0.  1.
         11    1    1    2    0    0  0.97026630429E-02  0.22916930590E+00  0.10365223015E+01  0.10615985376E+01  0.51100000000E-03 0. -1.
    9000002    1    1    2    0    0 -0.23306631626E+00 -0.81656663857E-01  0.72079472781E-01  0.97263927996E+00  0.93800000000E+00 0.  1.
         22    1    1    2    0    0  0.22336365321E+00 -0.14751264205E+00  0.28913981931E+01  0.29037621824E+01  0.00000000000E+00 0. -1.
</event>
<event>
 5    1  0.2111786E+001  0.1587645E+01  0.7818608E-02  0.3366883E+00
         11   -1    0    0    0    0  0.00000000000E+00  0.00000000000E+00  0.39999999674E+01  0.40000000000E+01  0.51100000000E-03 0. -1.
    9000002   -1    0    0    0    0 -0.00000000000E+00 -0.00000000000E+00  0.00000000000E+00  0.93800000000E+00  0.93800000000E+00 0. -1.
         11    1    1    2    0    0 -0.31738033063E-01 -0.11864991314E+00  0.14317912668E+01  0.14370496155E+01  0.51100000000E-03 0. -1.
    9000002    1    1    2    0    0 -0.17127105660E+00  0.91693465754E-01  0.34030706805E-01  0.95851111391E+00  0.93800000000E+00 0. -1.
         22    1    1    2    0    0  0.20300908966E+00  0.26956447382E-01  0.25341779938E+01  0.25424392706E+01  0.00000000000E+00 0. -1.
</event>
<event>
 5    1  0.2111786E+001  0.1596840E+01  0.7818608E-02  0.3356801E+00
         11   -1    0    0    0    0  0.00000000000E+00  0.00000000000E+00  0.39999999674E+01  0.40000000000E+01  0.51100000000E-03 0.  1.
    9000002   -1    0    0    0    0 -0.00000000000E+00 -0.00000000000E+00  0.00000000000E+00  0.93800000000E+00  0.93800000000E+00 0.  1.
         11    1    1    2    0    0  0.18888815437E-02  0.22619332224E-01  0.85963257619E+00  0.85993233992E+00  0.51100000000E-03 0.  1.
    9000002    1    1    2    0    0  0.22622767682E+00 -0.39700826611E-01  0.37145539434E-01  0.96642584221E+00  0.93800000000E+00 0.  1.
         22    1    1    2    0    0 -0.22811655837E+00  0.17081494387E-01  0.31032218517E+01  0.31116418179E+01  0.00000000000E+00 0.  1.
</event>
<event>
 5    1  0.2111786E+001  0.1573202E+01  0.7818608E-02  0.3382973E+00
         11   -1    0    0    0    0  0.00000000000E+00  0.00000000000E+00  0.39999999674E+01  0.40000000000E+01  0.51100000000E-03 0.  1.
    9000002   -1    0    0    0    0 -0.00000000000E+00 -0.00000000000E+00  0.00000000000E+00  0.93800000000E+00  0.93800000000E+00 0.  1.
         11    1    1    2    0    0 -0.18125603132E+00 -0.28056219188E-01  0.14365654219E+01  0.14482269756E+01  0.51100000000E-03 0.  1.
    9000002    1    1    2    0    0  0.29437965886E-02 -0.72092711245E-01  0.22930255705E-01  0.94105038206E+00  0.93800000000E+00 0.  1.
         22    1    1    2    0    0  0.17831223473E+00  0.10014893043E+00  0.25405042898E+01  0.25487226424E+01  0.00000000000E+00 0. -1.
</event>
<event>
 5    1  0.2111786E+001  0.1559453E+01  0.7818608E-02  0.3398583E+00
         11   -1    0    0    0    0  0.00000000000E+00  0.00000000000E+00  0.39999999674E+01  0.40000000000E+01  0.51100000000E-03 0. -1.
    9000002   -1    0    0    0    0 -0.00000000000E+00 -0.00000000000E+00  0.00000000000E+00  0.93800000000E+00  0.93800000000E+00 0.  1.
         11    1    1    2    0    0  0.18636600477E-01 -0.26054585180E+00  0.22100541696E+01  0.22254372958E+01  0.51100000000E-03 0. -1.
    9000002    1    1    2    0    0  0.16814001364E-03  0.38650487480E-01  0.30720152046E-01  0.93929847024E+00  0.93800000000E+00 0.  1.
         22    1    1    2    0    0 -0.18804740491E-01  0.22189536432E+00  0.17592256457E+01  0.17732642340E+01  0.00000000000E+00 0. -1.
</event>
<event>
 5    1  0.2111786E+001  0.1549754E+01  0.7818608E-02  0.3409771E+00
         11   -1    0    0    0    0  0.00000000000E+00  0.00000000000E+00  0.39999999674E+01  0.40000000000E+01  0.51100000000E-03 0.  1.
    9000002   -1    0    0    0    0 -0.00000000000E+00 -0.00000000000E+00  0.00000000000E+00  0.93800000000E+00  0.93800000000E+00 0.  1.
         11    1    1    2    0    0  0.99840313611E-01 -0.54882006040E-01  0.19159390731E+00  0.22290941938E+00  0.51100000000E-03 0.  1.
    9000002    1    1    2    0    0  0.13699516570E+00  0.26819837577E-01  0.50552920364E-01  0.94967709084E+00  0.93800000000E+00 0.  1.
         22    1    1    2    0    0 -0.23683547931E+00  0.28062168462E-01  0.37578531397E+01  0.37654134898E+01  0.00000000000E+00 0.  1.
</event>
<event>
 5    1  0.2111786E+001  0.1577893E+01  0.7818608E-02  0.3377712E+00
         11   -1    0    0    0    0  0.00000000000E+00  0.00000000000E+00  0.39999999674E+01  0.40000000000E+01  0.51100000000E-03 0.  1.
    9000002   -1    0    0    0    0 -0.00000000000E+00 -0.00000000000E+00  0.00000000000E+00  0.93800000000E+00  0.93800000000E+00 0. -1.
         11    1    1    2    0    0 -0.38012494886E+00  0.79087669834E-01  0.15103717542E+01  0.15594784171E+01  0.51100000000E-03 0.  1.
    9000002    1    1    2    0    0  0.57524923757E+00  0.38718373997E-01  0.25223361555E+00  0.11295470750E+01  0.93800000000E+00 0. -1.
         22    1    1    2    0    0 -0.19512428871E+00 -0.11780604383E+00  0.22373945976E+01  0.22489745079E+01  0.00000000000E+00 0.  1.
</event>
<event>
 5    1  0.2111786E+001  0.1586219E+01  0.7818608E-02  0.3368458E+00
         11   -1    0    0    0    0  0.00000000000E+00  0.00000000000E+00  0.39999999674E+01  0.40000000000E+01  0.51100000000E-03 0. -1.
    9000002   -1    0    0    0    0 -0.00000000000E+00 -0.00000000000E+00  0.00000000000E+00  0.93800000000E+00  0.93800000000E+00 0. -1.
         11    1    1    2    0    0  0.64475906133E-01 -0.49228185595E-01  0.22838645074E+01  0.22853047731E+01  0.51100000000E-03 0. -1.
    9000002    1    1    2    0    0  0.12589415903E+00  0.11773559147E+00  0.29701464229E-01  0.95416832150E+00  0.93800000000E+00 0. -1.
         22    1    1    2    0    0 -0.19037006516E+00 -0.68507405870E-01  0.16864339957E+01  0.16985269054E+01  0.00000000000E+00 0. -1.
</event>
<event>
 5    1  0.2111786E+001  0.1595002E+01  0.7818608E-02  0.3358806E+00
         11   -1    0    0    0    0  0.00000000000E+00  0.00000000000E+00  0.39999999674E+01  0.40000000000E+01  0.51100000000E-03 0. -1.
    9000002   -1    0    0    0    0 -0.00000000000E+00 -0.00000000000E+00  0.00000000000E+00  0.93800000000E+00  0.93800000000E+00 0.  1.
         11    1    1    2    0    0 -0.31241208935E-01  0.56854209858E-01  0.70043968282E+00  0.70343757698E+00  0.51100000000E-03 0. -1.
    9000002    1    1    2    0    0  0.22241175901E+00  0.30573517961E-01  0.36963542801E-01  0.96520051494E+00  0.93800000000E+00 0.  1.
         22    1    1    2    0    0 -0.19117055007E+00 -0.87427727819E-01  0.32625967417E+01  0.32693619081E+01  0.00000000000E+00 0. -1.
</event>
<event>
 5    1  0.2111786E+001  0.1478475E+01  0.7818608E-02  0.3496834E+00
         11   -1    0    0    0    0  0.00000000000E+00  0.00000000000E+00  0.39999999674E+01  0.40000000000E+01  0.51100000000E-03 0.  1.
    9000002   -1    0    0    0    0 -0.00000000000E+00 -0.00000000000E+00  0.00000000000E+00  0.93800000000E+00  0.93800000000E+00 0. -1.
         11    1    1    2    0    0  0.11848366106E+00 -0.37502931111E+00  0.10921658110E+01  0.11608237514E+01  0.51100000000E-03 0.  1.
    9000002    1    1    2    0    0  0.93720420641E-01  0.89028815604E-01  0.10597730517E+00  0.95277743281E+00  0.93800000000E+00 0. -1.
         22    1    1    2    0    0 -0.21220408170E+00  0.28600049551E+00  0.28018568512E+01  0.28243988158E+01  0.00000000000E+00 0.  1.
</event>
<event>
 5    1  0.2111786E+001  0.1530205E+01  0.7818608E-02  0.3432784E+00
         11   -1    0    0    0    0  0.00000000000E+00  0.00000000000E+00  0.39999999674E+01  0.40000000000E+01  0.51100000000E-03 0. -1.
    9000002   -1    0    0    0    0 -0.00000000000E+00 -0.00000000000E+00  0.00000000000E+00  0.93800000000E+00  0.93800000000E+00 0.  1.
         11    1    1    2    0    0 -0.21098641216E+00 -0.66871021325E-01  0.55103564863E+00  0.59382450841E+00  0.51100000000E-03 0. -1.
    9000002    1    1    2    0    0  0.77664598132E-02 -0.54613627132E-01  0.54218872631E-01  0.94118364431E+00  0.93800000000E+00 0.  1.
         22    1    1    2    0    0  0.20321995234E+00  0.12148464846E+00  0.33947454461E+01  0.34029918473E+01  0.00000000000E+00 0. -1.
</event>
<event>
 5    1  0.2111786E+001  0.1469134E+01  0.7818608E-02  0.3508920E+00
         11   -1    0    0    0    0  0.00000000000E+00  0.00000000000E+00  0.39999999674E+01  0.40000000000E+01  0.51100000000E-03 0. -1.
    9000002   -1    0    0    0    0 -0.00000000000E+00 -0.00000000000E+00  0.00000000000E+00  0.93800000000E+00  0.93800000000E+00 0.  1.
         11    1    1    2    0    0 -0.60299784229E+00  0.38263824115E+00  0.19742931528E+01  0.20994885415E+01  0.51100000000E-03 0. -1.
    9000002    1    1    2    0    0  0.34134936296E+00 -0.47303128003E+00  0.37764650683E+00  0.11673640664E+01  0.93800000000E+00 0.  1.
         22    1    1    2    0    0  0.26164847933E+00  0.90393038886E-01  0.16480603077E+01  0.16711473921E+01  0.00000000000E+00 0. -1.
</event>
<event>
 5    1  0.2111786E+001  0.1538440E+01  0.7818608E-02  0.3423014E+00
         11   -1    0    0    0    0  0.00000000000E+00  0.00000000000E+00  0.39999999674E+01  0.40000000000E+01  0.51100000000E-03 0. -1.
    9000002   -1    0    0    0    0 -0.00000000000E+00 -0.00000000000E+00  0.00000000000E+00  0.93800000000E+00  0.93800000000E+00 0.  1.
         11    1    1    2    0    0  0.24062921782E+00  0.13527050171E+00  0.21802207319E+01  0.21976267268E+01  0.51100000000E-03 0. -1.
    9000002    1    1    2    0    0 -0.18674698502E-01  0.92390203983E-01  0.51923369398E-01  0.94415291688E+00  0.93800000000E+00 0.  1.
         22    1    1    2    0    0 -0.22195451932E+00 -0.22766070569E+00  0.17678558660E+01  0.17962203564E+01  0.00000000000E+00 0. -1.
</event>
<event>
 5    1  0.2111786E+001  0.1513092E+01  0.7818608E-02  0.3453452E+00
         11   -1    0    0    0    0  0.00000000000E+00  0.00000000000E+00  0.39999999674E+01  0.40000000000E+01  0.51100000000E-03 0.  1.
    9000002   -1    0    0    0    0 -0.00000000000E+00 -0.00000000000E+00  0.00000000000E+00  0.93800000000E+00  0.93800000000E+00 0.  1.
         11    1    1    2    0    0  0.31244709000E+00  0.47869545983E+00  0.31518552908E+01  0.32032740380E+01  0.51100000000E-03 0.  1.
    9000002    1    1    2    0    0 -0.26008489108E+00 -0.27515406852E+00  0.17121431668E+00  0.10259201988E+01  0.93800000000E+00 0.  1.
         22    1    1    2    0    0 -0.52362198918E-01 -0.20354139131E+00  0.67693035989E+00  0.70880576324E+00  0.00000000000E+00 0.  1.
</event>
<event>
 5    1  0.2111786E+001  0.1512160E+01  0.7818608E-02  0.3454592E+00
         11   -1    0    0    0    0  0.00000000000E+00  0.00000000000E+00  0.39999999674E+01  0.40000000000E+01  0.51100000000E-03 0. -1.
    9000002   -1    0    0    0    0 -0.00000000000E+00 -0.00000000000E+00  0.00000000000E+00  0.93800000000E+00  0.93800000000E+00 0.  1.
         11    1    1    2    0    0 -0.50508014415E+00  0.75297033133E-01  0.19772762957E+01  0.20421550886E+01  0.51100000000E-03 0. -1.
    9000002    1    1    2    0    0  0.31334152516E+00  0.32963057142E-01  0.13890775374E+00  0.99920410256E+00  0.93800000000E+00 0.  1.
         22    1    1    2    0    0  0.19173861899E+00 -0.10826009027E+00  0.18838159179E+01  0.18966408088E+01  0.00000000000E+00 0. -1.
</event>
<event>
 5    1  0.2111786E+001  0.1581210E+01  0.7818608E-02  0.3374014E+00
         11   -1    0    0    0    0  0.00000000000E+00  0.00000000000E+00  0.39999999674E+01  0.40000000000E+01  0.51100000000E-03 0.  1.
    9000002   -1    0    0    0    0 -0.00000000000E+00 -0.00000000000E+00  0.00000000000E+00  0.93800000000E+00  0.93800000000E+00 0.  1.
         11    1    1    2    0    0 -0.91867033261E-01 -0.28219937147E-01  0.37504306660E+00  0.38716079293E+00  0.51100000000E-03 0.  1.
    9000002    1    1    2    0    0 -0.41643277019E-01  0.19402766180E+00  0.40030123176E-01  0.95959747125E+00  0.93800000000E+00 0.  1.
         22    1    1    2    0    0  0.13351031028E+00 -0.16580772465E+00  0.35849267776E+01  0.35912417358E+01  0.00000000000E+00 0.  1.
</event>
<event>
 5    1  0.2111786E+001  0.1471352E+01  0.7818608E-02  0.3506036E+00
         11   -1    0    0    0    0  0.00000000000E+00  0.00000000000E+00  0.39999999674E+01  0.40000000000E+01  0.51100000000E-03 0. -1.
    9000002   -1    0    0    0    0 -0.00000000000E+00 -0.00000000000E+00  0.00000000000E+00  0.93800000000E+00  0.93800000000E+00 0. -1.
         11    1    1    2    0    0  0.30678194851E+00 -0.17346826221E+00  0.63822575728E+00  0.72906706160E+00  0.51100000000E-03 0. -1.
    9000002    1    1    2    0    0 -0.12722115355E+00  0.75834705919E-01  0.11594279352E+00  0.95667280504E+00  0.93800000000E+00 0. -1.
         22    1    1    2    0    0 -0.17956079496E+00  0.97633556287E-01  0.32458314166E+01  0.32522601334E+01  0.00000000000E+00 0. -1.
</event>
<event>
 5    1  0.2111786E+001  0.1527245E+01  0.7818608E-02  0.3436323E+00
         11   -1    0    0    0    0  0.00000000000E+00  0.00000000000E+00  0.39999999674E+01  0.40000000000E+01  0.51100000000E-03 0. -1.
    9000002   -1    0    0    0    0 -0.00000000000E+00 -0.00000000000E+00  0.00000000000E+00  0.93800000000E+00  0.93800000000E+00 0. -1.
         11    1    1    2    0    0 -0.19347393745E+00  0.12452513703E+00  0.74278075806E+00  0.77760027643E+00  0.51100000000E-03 0. -1.
    9000002    1    1    2    0    0 -0.11111308758E+00  0.67689833882E-01  0.66386711465E-01  0.94930460196E+00  0.93800000000E+00 0. -1.
         22    1    1    2    0    0  0.30458702503E+00 -0.19221497091E+00  0.31908324978E+01  0.32110951216E+01  0.00000000000E+00 0. -1.
</event>
<event>
 5    1  0.2111786E+001  0.1526300E+01  0.7818608E-02  0.3437456E+00
         11   -1    0    0    0    0  0.00000000000E+00  0.00000000000E+00  0.39999999674E+01  0.40000000000E+01  0.51100000000E-03 0.  1.
    9000002   -1    0    0    0    0 -0.00000000000E+00 -0.00000000000E+00  0.00000000000E+00  0.93800000000E+00  0.93800000000E+00 0.  1.
         11    1    1    2    0    0 -0.23938887258E+00 -0.43927553486E+00  0.31452354511E+01  0.31847725715E+01  0.51100000000E-03 0.  1.
    9000002    1    1    2    0    0  0.23252466517E+00  0.23338194079E+00  0.13347125220E+00  0.10030919327E+01  0.93800000000E+00 0.  1.
         22    1    1    2    0    0  0.68642074046E-02  0.20589359407E+00  0.72129326403E+00  0.75013549587E+00  0.00000000000E+00 0.  1.
</event>
<event>
 5    1  0.2111786E+001  0.1478738E+01  0.7818608E-02  0.3496497E+00
         11   -1    0    0    0    0  0.00000000000E+00  0.00000000000E+00  0.39999999674E+01  0.40000000000E+01  0.51100000000E-03 0.  1.
    9000002   -1    0    0    0    0 -0.00000000000E+00 -0.00000000000E+00  0.00000000000E+00  0.93800000000E+00  0.93800000000E+00 0. -1.
         11    1    1    2    0    0  0.51727913963E+00  0.89499451124E-01  0.22075955174E+01  0.22691553692E+01  0.51100000000E-03 0.  1.
    9000002    1    1    2    0    0 -0.22671363224E+00  0.98391518555E-01  0.13935879982E+00  0.97997185524E+00  0.93800000000E+00 0. -1.
         22    1    1    2    0    0 -0.29056550739E+00 -0.18789096968E+00  0.16530456501E+01  0.16888727755E+01  0.00000000000E+00 0.  1.
</event>
<event>
 5    1  0.2111786E+001  0.1563655E+01  0.7818608E-02  0.3393781E+00
         11   -1    0    0    0    0  0.00000000000E+00  0.00000000000E+00  0.39999999674E+01  0.40000000000E+01  0.51100000000E-03 0.  1.
    9000002   -1    0    0    0    0 -0.00000000000E+00 -0.00000000000E+00  0.00000000000E+00  0.93800000000E+00  0.93800000000E+00 0. -1.
         11    1    1    2    0    0  0.58380791521E+00 -0.41854665596E+00  0.16746853738E+01  0.18222470600E+01  0.51100000000E-03 0.  1.
    9000002    1    1    2    0    0 -0.91255270193E+00  0.38763899689E+00  0.85891210791E+00  0.16126346253E+01  0.93800000000E+00 0. -1.
         22    1    1    2    0    0  0.32874478672E+00  0.30907659069E-01  0.14664024856E+01  0.15031183147E+01  0.00000000000E+00 0.  1.
</event>
<event>
 5    1  0.2111786E+001  0.1425695E+01  0.7818608E-02  0.3567391E+00
         11   -1    0    0    0    0  0.00000000000E+00  0.00000000000E+00  0.39999999674E+01  0.40000000000E+01  0.51100000000E-03 0. -1.
    9000002   -1    0    0    0    0 -0.00000000000E+00 -0.00000000000E+00  0.00000000000E+00  0.93800000000E+00  0.93800000000E+00 0. -1.
         11    1    1    2    0    0 -0.21445112423E+00  0.53011091855E+00  0.28374700482E+01  0.28945195467E+01  0.51100000000E-03 0. -1.
    9000002    1    1    2    0    0  0.42224280496E-02 -0.19157471834E+00  0.16789204964E+00  0.97198273747E+00  0.93800000000E+00 0. -1.
         22    1    1    2    0    0  0.21022869618E+00 -0.33853620021E+00  0.99463786956E+00  0.10714977159E+01  0.00000000000E+00 0. -1.
</event>
<event>
 5    1  0.2111786E+001  0.1551979E+01  0.7818608E-02  0.3407192E+00
         11   -1    0    0    0    0  0.00000000000E+00  0.00000000000E+00  0.39999999674E+01  0.40000000000E+01  0.51100000000E-03 0. -1.
    9000002   -1    0    0    0    0 -0.00000000000E+00 -0.00000000000E+00  0.00000000000E+00  0.93800000000E+00  0.93800000000E+00 0. -1.
         11    1    1    2    0    0  0.11553095489E+00  0.15344727401E+00  0.66158293194E+00  0.68890181042E+00  0.51100000000E-03 0. -1.
    9000002    1    1    2    0    0 -0.13222273947E-01  0.47327043792E-01  0.37015521156E-01  0.94001533307E+00  0.93800000000E+00 0. -1.
         22    1    1    2    0    0 -0.10230868094E+00 -0.20077431780E+00  0.33014015143E+01  0.33090828565E+01  0.00000000000E+00 0. -1.
</event>
<event>
 5    1  0.2111786E+001  0.1531666E+01  0.7818608E-02  0.3431043E+00
         11   -1    0    0    0    0  0.00000000000E+00  0.00000000000E+00  0.39999999674E+01  0.40000000000E+01  0.51100000000E-03 0.  1.
    9000002   -1    0    0    0    0 -0.00000000000E+00 -0.00000000000E+00  0.00000000000E+00  0.93800000000E+00  0.93800000000E+00 0.  1.
         11    1    1    2    0    0 -0.25550581994E+00 -0.32547285706E+00  0.22459289317E+01  0.22837278367E+01  0.51100000000E-03 0.  1.
    9000002    1    1    2    0    0  0.10982246566E+00  0.14312043085E+00  0.73984926677E-01  0.95805125179E+00  0.93800000000E+00 0.  1.
         22    1    1    2    0    0  0.14568335428E+00  0.18235242622E+00  0.16800861090E+01  0.16962209115E+01  0.00000000000E+00 0.  1.
</event>
<event>
 5    1  0.2111786E+001  0.1488787E+01  0.7818608E-02  0.3483684E+00
         11   -1    0    0    0    0  0.00000000000E+00  0.00000000000E+00  0.39999999674E+01  0.40000000000E+01  0.51100000000E-03 0.  1.
    9000002   -1    0    0    0    0 -0.00000000000E+00 -0.00000000000E+00  0.00000000000E+00  0.93800000000E+00  0.93800000000E+00 0. -1.
         11    1    1    2    0    0 -0.33084641536E+00 -0.23885384107E-01  0.73209450085E+00  0.80373657464E+00  0.51100000000E-03 0.  1.
    9000002    1    1    2    0    0  0.82604787064E-01 -0.79697917813E-01  0.94758534474E-01  0.94973601006E+00  0.93800000000E+00 0. -1.
         22    1    1    2    0    0  0.24824162830E+00  0.10358330192E+00  0.31731469320E+01  0.31845274153E+01  0.00000000000E+00 0.  1.
</event>
<event>
 5    1  0.2111786E+001  0.1567050E+01  0.7818608E-02  0.3389921E+00
         11   -1    0    0    0    0  0.00000000000E+00  0.00000000000E+00  0.39999999674E+01  0.40000000000E+01  0.51100000000E-03 0.  1.
    9000002   -1    0    0    0    0 -0.00000000000E+00 -0.00000000000E+00  0.00000000000E+00  0.93800000000E+00  0.93800000000E+00 0.  1.
         11    1    1    2    0    0  0.16591069812E+00 -0.15073360938E+00  0.20595837225E+01  0.20717462084E+01  0.51100000000E-03 0.  1.
    9000002    1    1    2    0    0 -0.43984763912E-01 -0.24385276588E-01  0.25715206978E-01  0.93969919285E+00  0.93800000000E+00 0.  1.
         22    1    1    2    0    0 -0.12192593420E+00  0.17511888597E+00  0.19147010378E+01  0.19265545988E+01  0.00000000000E+00 0.  1.
</event>
<event>
 5    1  0.2111786E+001  0.1542500E+01  0.7818608E-02  0.3418238E+00
         11   -1    0    0    0    0  0.00000000000E+00  0.00000000000E+00  0.39999999674E+01  0.40000000000E+01  0.51100000000E-03 0.  1.
    9000002   -1    0    0    0    0 -0.00000000000E+00 -0.00000000000E+00  0.00000000000E+00  0.93800000000E+00  0.93800000000E+00 0. -1.
         11    1    1    2    0    0 -0.11244253455E+00 -0.22761554559E+00  0.30138370278E+01  0.30245108781E+01  0.51100000000E-03 0.  1.
    9000002    1    1    2    0    0  0.16351233905E+00 -0.22366430989E-01  0.61634499461E-01  0.95439999674E+00  0.93800000000E+00 0. -1.
         22    1    1    2    0    0 -0.51069804493E-01  0.24998197658E+00  0.92452844006E+00  0.95908912518E+00  0.00000000000E+00 0.  1.
</event>
<event>
 5    1  0.2111786E+001  0.1509537E+01  0.7818608E-02  0.3457808E+00
         11   -1    0    0    0    0  0.00000000000E+00  0.00000000000E+00  0.39999999674E+01  0.40000000000E+01  0.51100000000E-03 0.  1.
    9000002   -1    0    0    0    0 -0.00000000000E+00 -0.00000000000E+00  0.00000000000E+00  0.93800000000E+00  0.93800000000E+00 0.  1.
         11    1    1    2    0    0 -0.24791539477E+00  0.38456028321E+00  0.11620575754E+01  0.12488901969E+01  0.51100000000E-03 0.  1.
    9000002    1    1    2    0    0  0.38373078120E+00 -0.23477052867E+00  0.21991251787E+00  0.10632836071E+01  0.93800000000E+00 0.  1.
         22    1    1    2    0    0 -0.13581538643E+00 -0.14978975454E+00  0.26180298741E+01  0.26258261960E+01  0.00000000000E+00 0.  1.
</event>
<event>
 5    1  0.2111786E+001  0.1563848E+01  0.7818608E-02  0.3393561E+00
         11   -1    0    0    0    0  0.00000000000E+00  0.00000000000E+00  0.39999999674E+01  0.40000000000E+01  0.51100000000E-03 0. -1.
    9000002   -1    0    0    0    0 -0.00000000000E+00 -0.00000000000E+00  0.00000000000E+00  0.93800000000E+00  0.93800000000E+00 0. -1.
         11    1    1    2    0    0  0.94914307421E-02  0.61017859256E-01  0.19559326391E+01  0.19569072580E+01  0.51100000000E-03 0. -1.
    9000002    1    1    2    0    0  0.41271934772E+00  0.11753722858E-01  0.14591126729E+00  0.10351857359E+01  0.93800000000E+00 0. -1.
         22    1    1    2    0    0 -0.42221077846E+00 -0.72771582115E-01  0.18981560610E+01  0.19459070061E+01  0.00000000000E+00 0. -1.
</event>
<event>
 5    1  0.2111786E+001  0.1599330E+01  0.7818608E-02  0.3354091E+00
         11   -1    0    0    0    0  0.00000000000E+00  0.00000000000E+00  0.39999999674E+01  0.40000000000E+01  0.51100000000E-03 0. -1.
    9000002   -1    0    0    0    0 -0.00000000000E+00 -0.00000000000E+00  0.00000000000E+00  0.93800000000E+00  0.93800000000E+00 0. -1.
         11    1    1    2    0    0  0.24081152025E+00 -0.32250626543E-01  0.18910489341E+01  0.19065929359E+01  0.51100000000E-03 0. -1.
    9000002    1    1    2    0    0 -0.44702831898E+00  0.77646596232E-01  0.14019729569E+00  0.10513622561E+01  0.93800000000E+00 0. -1.
         22    1    1    2    0    0  0.20621679873E+00 -0.45395969688E-01  0.19687537376E+01  0.19800448079E+01  0.00000000000E+00 0. -1.
</event>
<event>
 5    1  0.2111786E+001  0.1506444E+01  0.7818608E-02  0.3461616E+00
         11   -1    0    0    0    0  0.00000000000E+00  0.00000000000E+00  0.39999999674E+01  0.40000000000E+01  0.51100000000E-03 0. -1.
    9000002   -1    0    0    0    0 -0.00000000000E+00 -0.00000000000E+00  0.00000000000E+00  0.93800000000E+00  0.93800000000E+00 0. -1.
         11    1    1    2    0    0  0.22146561841E+00 -0.23040316905E+00  0.85330182099E+00  0.91118433880E+00  0.51100000000E-03 0. -1.
    9000002    1    1    2    0    0 -0.27312786667E-01  0.60147154225E-01  0.73939689482E-01  0.94322571326E+00  0.93800000000E+00 0. -1.
         22    1    1    2    0    0 -0.19415283175E+00  0.17025601482E+00  0.30727584569E+01  0.30835899479E+01  0.00000000000E+00 0. -1.
</event>
<event>
 5    1  0.2111786E+001  0.1503700E+01  0.7818608E-02  0.3465009E+00
         11   -1    0    0    0    0  0.00000000000E+00  0.00000000000E+00  0.39999999674E+01  0.40000000000E+01  0.51100000000E-03 0. -1.
    9000002   -1    0    0    0    0 -0.00000000000E+00 -0.00000000000E+00  0.00000000000E+00  0.93800000000E+00  0.93800000000E+00 0.  1.
         11    1    1    2    0    0  0.31337247386E+00 -0.29622204307E+00  0.24819146102E+01  0.25190971001E+01  0.51100000000E-03 0. -1.
    9000002    1    1    2    0    0 -0.39769855090E-01  0.12892386259E+00  0.86224844355E-01  0.95156803619E+00  0.93800000000E+00 0.  1.
         22    1    1    2    0    0 -0.27360261877E+00  0.16729818048E+00  0.14318605128E+01  0.14673348637E+01  0.00000000000E+00 0. -1.
</event>
<event>
 5    1  0.2111786E+001  0.1592924E+01  0.7818608E-02  0.3361079E+00
         11   -1    0    0    0    0  0.00000000000E+00  0.00000000000E+00  0.39999999674E+01  0.40000000000E+01  0.51100000000E-03 0.  1.
    9000002   -1    0    0    0    0 -0.00000000000E+00 -0.00000000000E+00  0.00000000000E+00  0.93800000000E+00  0.93800000000E+00 0.  1.
         11    1    1    2    0    0  0.11831887039E+00  0.16597472046E+00  0.19639453637E+01  0.19744945215E+01  0.51100000000E-03 0.  1.
    9000002    1    1    2    0    0 -0.51592766668E-01 -0.39892952577E+00  0.11482223759E+00  0.10270514721E+01  0.93800000000E+00 0.  1.
         22    1    1    2    0    0 -0.66726103718E-01  0.23295480532E+00  0.19212323661E+01  0.19364540064E+01  0.00000000000E+00 0.  1.
</event>
<event>
 5    1  0.2111786E+001  0.1564080E+01  0.7818608E-02  0.3393297E+00
         11   -1    0    0    0    0  0.00000000000E+00  0.00000000000E+00  0.39999999674E+01  0.40000000000E+01  0.51100000000E-03 0.  1.
    9000002   -1    0    0    0    0 -0.00000000000E+00 -0.00000000000E+00  0.00000000000E+00  0.93800000000E+00  0.93800000000E+00 0.  1.
         11    1    1    2    0    0  0.18420097155E+00 -0.20941003827E-02  0.87064157809E+00  0.88991651394E+00  0.51100000000E-03 0.  1.
    9000002    1    1    2    0    0  0.18534352191E-01  0.27619024510E-01  0.26973883385E-01  0.93897706208E+00  0.93800000000E+00 0.  1.
         22    1    1    2    0    0 -0.20273532374E+00 -0.25524924128E-01  0.31023845059E+01  0.31091064240E+01  0.00000000000E+00 0.  1.
</event>
<event>
 5    1  0.2111786E+001  0.1559313E+01  0.7818608E-02  0.3398743E+00
         11   -1    0    0    0    0  0.00000000000E+00  0.00000000000E+00  0.39999999674E+01  0.40000000000E+01  0.51100000000E-03 0.  1.
    9000002   -1    0    0    0    0 -0.00000000000E+00 -0.00000000000E+00  0.00000000000E+00  0.93800000000E+00  0.93800000000E+00 0.  1.
         11    1    1    2    0    0 -0.13810556404E+00  0.13203666291E+00  0.22685297517E+01  0.22765619523E+01  0.51100000000E-03 0.  1.
    9000002    1    1    2    0    0 -0.13166535677E+00 -0.41911032756E-01  0.42912824697E-01  0.94909315210E+00  0.93800000000E+00 0.  1.
         22    1    1    2    0    0  0.26977092081E+00 -0.90125630151E-01  0.16885573909E+01  0.17123448956E+01  0.00000000000E+00 0.  1.
</event>
<event>
 5    1  0.2111786E+001  0.1554598E+01  0.7818608E-02  0.3404165E+00
         11   -1    0    0    0    0  0.00000000000E+00  0.00000000000E+00  0.39999999674E+01  0.40000000000E+01  0.51100000000E-03 0. -1.
    9000002   -1    0    0    0    0 -0.00000000000E+00 -0.00000000000E+00  0.00000000000E+00  0.93800000000E+00  0.93800000000E+00 0. -1.
         11    1    1    2    0    0  0.21459100234E+00 -0.99253369870E-01  0.12660383876E+01  0.12879262361E+01  0.51100000000E-03 0. -1.
    9000002    1    1    2    0    0  0.19608331809E-01  0.29201740838E-01  0.34214939428E-01  0.93928264672E+00  0.93800000000E+00 0. -1.
         22    1    1    2    0    0 -0.23419933415E+00  0.70051629032E-01  0.26997466403E+01  0.27107911172E+01  0.00000000000E+00 0. -1.
</event>
<event>
 5    1  0.2111786E+001  0.1508571E+01  0.7818608E-02  0.3458995E+00
         11   -1    0    0    0    0  0.00000000000E+00  0.00000000000E+00  0.39999999674E+01  0.40000000000E+01  0.51100000000E-03 0. -1.
    9000002   -1    0    0    0    0 -0.00000000000E+00 -0.00000000000E+00  0.00000000000E+00  0.93800000000E+00  0.93800000000E+00 0.  1.
         11    1    1    2    0    0  0.33597256138E+00  0.67635377497E-01  0.85613194484E+00  0.92217909019E+00  0.51100000000E-03 0. -1.
    9000002    1    1    2    0    0 -0.13301175914E+00 -0.37269547373E+00  0.18546241052E+00  0.10348112629E+01  0.93800000000E+00 0.  1.
         22    1    1    2    0    0 -0.20296080224E+00  0.30506009624E+00  0.29584056120E+01  0.29810096469E+01  0.00000000000E+00 0. -1.
</event>
<event>
 5    1  0.2111786E+001  0.1512583E+01  0.7818608E-02  0.3454075E+00
         11   -1    0    0    0    0  0.00000000000E+00  0.00000000000E+00  0.39999999674E+01  0.40000000000E+01  0.51100000000E-03 0. -1.
    9000002   -1    0    0    0    0 -0.00000000000E+00 -0.00000000000E+00  0.00000000000E+00  0.93800000000E+00  0.93800000000E+00 0.  1.
         11    1    1    2    0    0  0.26930797018E+00  0.31525096506E+00  0.26181082992E+01  0.26507359886E+01  0.51100000000E-03 0. -1.
    9000002    1    1    2    0    0 -0.10729102648E+00 -0.67543584325E-01  0.77483119466E-01  0.94969528479E+00  0.93800000000E+00 0.  1.
         22    1    1    2    0    0 -0.16201694370E+00 -0.24770738074E+00  0.13044085487E+01  0.13375687266E+01  0.00000000000E+00 0. -1.
</event>
<event>
 5    1  0.2111786E+001  0.1536785E+01  0.7818608E-02  0.3424968E+00
         11   -1    0    0    0    0  0.00000000000E+00  0.00000000000E+00  0.39999999674E+01  0.40000000000E+01  0.51100000000E-03 0. -1.
    9000002   -1    0    0    0    0 -0.00000000000E+00 -0.00000000000E+00  0.00000000000E+00  0.93800000000E+00  0.93800000000E+00 0. -1.
         11    1    1    2    0    0  0.12313438865E+00  0.81217139226E-01  0.10372746269E+01  0.10477104629E+01  0.51100000000E-03 0. -1.
    9000002    1    1    2    0    0  0.31598704219E+00  0.32155682482E+00  0.19459514559E+00  0.10587529802E+01  0.93800000000E+00 0. -1.
         22    1    1    2    0    0 -0.43912143084E+00 -0.40277396404E+00  0.27681301949E+01  0.28315365569E+01  0.00000000000E+00 0. -1.
</event>
<event>
 5    1  0.2111786E+001  0.1530083E+01  0.7818608E-02  0.3432930E+00
         11   -1    0    0    0    0  0.00000000000E+00  0.00000000000E+00  0.39999999674E+01  0.40000000000E+01  0.51100000000E-03 0. -1.
    9000002   -1    0    0    0    0 -0.00000000000E+00 -0.00000000000E+00  0.00000000000E+00  0.93800000000E+00  0.93800000000E+00 0. -1.
         11    1    1    2    0    0  0.18530789446E+00 -0.10798421772E+00  0.31461176405E+00  0.38076295805E+00  0.51100000000E-03 0. -1.
    9000002    1    1    2    0    0 -0.24450814675E+00  0.31826866163E+00  0.16910696874E+00  0.10341761657E+01  0.93800000000E+00 0. -1.
         22    1    1    2    0    0  0.59200252291E-01 -0.21028444390E+00  0.35162812346E+01  0.35230608763E+01  0.00000000000E+00 0. -1.
</event>
<event>
 5    1  0.2111786E+001  0.1575557E+01  0.7818608E-02  0.3380327E+00
         11   -1    0    0    0    0  0.00000000000E+00  0.00000000000E+00  0.39999999674E+01  0.40000000000E+01  0.51100000000E-03 0. -1.
    9000002   -1    0    0    0    0 -0.00000000000E+00 -0.00000000000E+00  0.00000000000E+00  0.93800000000E+00  0.93800000000E+00 0.  1.
         11    1    1    2    0    0 -0.15772901032E-01 -0.15731008004E+00  0.15032583788E+01  0.15115492914E+01  0.51100000000E-03 0. -1.
    9000002    1    1    2    0    0  0.96223583741E-02 -0.62166178764E-01  0.20332070949E-01  0.94032686693E+00  0.93800000000E+00 0.  1.
         22    1    1    2    0    0  0.61505426579E-02  0.21947625880E+00  0.24764095176E+01  0.24861238417E+01  0.00000000000E+00 0. -1.
</event>
<event>
 5    1  0.2111786E+001  0.1507271E+01  0.7818608E-02  0.3460597E+00
         11   -1    0    0    0    0  0.00000000000E+00  0.00000000000E+00  0.39999999674E+01  0.40000000000E+01  0.51100000000E-03 0.  1.
    9000002   -1    0    0    0    0 -0.00000000000E+00 -0.00000000000E+00  0.00000000000E+00  0.93800000000E+00  0.93800000000E+00 0.  1.
         11    1    1    2    0    0 -0.22574375177E+00  0.16774735481E+00  0.63770439025E+00  0.69696955958E+00  0.51100000000E-03 0.  1.
    9000002    1    1    2    0    0  0.59816257715E-01  0.54892589520E-02  0.72730898512E-01  0.94273108586E+00  0.93800000000E+00 0.  1.
         22    1    1    2    0    0  0.16592749406E+00 -0.17323661376E+00  0.32895646786E+01  0.32982993546E+01  0.00000000000E+00 0.  1.
</event>
<event>
 5    1  0.2111786E+001  0.1528959E+01  0.7818608E-02  0.3434272E+00
         11   -1    0    0    0    0  0.00000000000E+00  0.00000000000E+00  0.39999999674E+01  0.40000000000E+01  0.51100000000E-03 0. -1.
    9000002   -1    0    0    0    0 -0.00000000000E+00 -0.00000000000E+00  0.00000000000E+00  0.93800000000E+00  0.93800000000E+00 0. -1.
         11    1    1    2    0    0 -0.10486678078E+00  0.26412531962E+00  0.10572565223E+01  0.10947834678E+01  0.51100000000E-03 0. -1.
    9000002    1    1    2    0    0  0.11645617491E+00  0.40129856410E-01  0.63783476550E-01  0.94820081097E+00  0.93800000000E+00 0. -1.
         22    1    1    2    0    0 -0.11589394132E-01 -0.30425517603E+00  0.28789599685E+01  0.28950157212E+01  0.00000000000E+00 0. -1.
</event>
<event>
 5    1  0.2111786E+001  0.1590233E+01  0.7818608E-02  0.3364033E+00
         11   -1    0    0    0    0  0.00000000000E+00  0.00000000000E+00  0.39999999674E+01  0.40000000000E+01  0.51100000000E-03 0. -1.
    9000002   -1    0    0    0    0 -0.00000000000E+00 -0.00000000000E+00  0.00000000000E+00  0.93800000000E+00  0.93800000000E+00 0. -1.
         11    1    1    2    0    0  0.47613946842E-01  0.13249831430E+00  0.22992721379E+01  0.23035788496E+01  0.51100000000E-03 0. -1.
    9000002    1    1    2    0    0  0.10700867019E+00 -0.28511995608E+00  0.69343600913E-01  0.98863379461E+00  0.93800000000E+00 0. -1.
         22    1    1    2    0    0 -0.15462261703E+00  0.15262164178E+00  0.16313842286E+01  0.16457873558E+01  0.00000000000E+00 0. -1.
</event>
<event>
 5    1  0.2111786E+001  0.1520149E+01  0.7818608E-02  0.3444869E+00
         11   -1    0    0    0    0  0.00000000000E+00  0.00000000000E+00  0.39999999674E+01  0.40000000000E+01  0.51100000000E-03 0. -1.
    9000002   -1    0    0    0    0 -0.00000000000E+00 -0.00000000000E+00  0.00000000000E+00  0.93800000000E+00  0.93800000000E+00 0.  1.
         11    1    1    2    0    0 -0.34571991752E-01 -0.27368988400E+00  0.34531204178E+01  0.34641221480E+01  0.51100000000E-03 0. -1.
    9000002    1    1    2    0    0 -0.80784769635E-02  0.58178430140E-01  0.62390100624E-01  0.94190578944E+00  0.93800000000E+00 0.  1.
         22    1    1    2    0    0  0.42650468716E-01  0.21551145386E+00  0.48448944892E+00  0.53197206256E+00  0.00000000000E+00 0. -1.
</event>
<event>
 5    1  0.2111786E+001  0.1512500E+01  0.7818608E-02  0.3454175E+00
         11   -1    0    0    0    0  0.00000000000E+00  0.00000000000E+00  0.39999999674E+01  0.40000000000E+01  0.51100000000E-03 0.  1.
    9000002   -1    0    0    0    0 -0.00000000000E+00 -0.00000000000E+00  0.00000000000E+00  0.93800000000E+00  0.93800000000E+00 0. -1.
         11    1    1    2    0    0 -0.40904209097E+00 -0.79206682577E-03  0.24264733417E+01  0.24607090845E+01  0.51100000000E-03 0.  1.
    9000002    1    1    2    0    0  0.10322950485E+00 -0.61669083222E-02  0.73664939910E-01  0.94655421651E+00  0.93800000000E+00 0. -1.
         22    1    1    2    0    0  0.30581258612E+00  0.69589751480E-02  0.14998616858E+01  0.15307366990E+01  0.00000000000E+00 0. -1.
</event>
<event>
 5    1  0.2111786E+001  0.1469981E+01  0.7818608E-02  0.3507818E+00
         11   -1    0    0    0    0  0.00000000000E+00  0.00000000000E+00  0.39999999674E+01  0.40000000000E+01  0.51100000000E-03 0. -1.
    9000002   -1    0    0    0    0 -0.00000000000E+00 -0.00000000000E+00  0.00000000000E+00  0.93800000000E+00  0.93800000000E+00 0.  1.
         11    1    1    2    0    0 -0.51865727953E+00  0.60128921813E+00  0.13607085000E+01  0.15754624656E+01  0.51100000000E-03 0. -1.
    9000002    1    1    2    0    0  0.34628859218E+00 -0.82347998201E+00  0.84553211394E+00  0.15468689749E+01  0.93800000000E+00 0.  1.
         22    1    1    2    0    0  0.17236868735E+00  0.22219076388E+00  0.17937593534E+01  0.18156685594E+01  0.00000000000E+00 0. -1.
</event>
<event>
 5    1  0.2111786E+001  0.1568150E+01  0.7818608E-02  0.3388675E+00
         11   -1    0    0    0    0  0.00000000000E+00  0.00000000000E+00  0.39999999674E+01  0.40000000000E+01  0.51100000000E-03 0.  1.
    9000002   -1    0    0    0    0 -0.00000000000E+00 -0.00000000000E+00  0.00000000000E+00  0.93800000000E+00  0.93800000000E+00 0. -1.
         11    1    1    2    0    0  0.41689918276E-01 -0.14591225078E+00  0.27524173175E+01  0.27565975014E+01  0.51100000000E-03 0.  1.
    9000002    1    1    2    0    0 -0.11132336964E+00 -0.69400557828E-01  0.34884096985E-01  0.94777119089E+00  0.93800000000E+00 0. -1.
         22    1    1    2    0    0  0.69633451364E-01  0.21531280860E+00  0.12126985529E+01  0.12336313077E+01  0.00000000000E+00 0.  1.
</event>
<event>
 5    1  0.2111786E+001  0.1568098E+01  0.7818608E-02  0.3388734E+00
         11   -1    0    0    0    0  0.00000000000E+00  0.00000000000E+00  0.39999999674E+01  0.40000000000E+01  0.51100000000E-03 0. -1.
    9000002   -1    0    0    0    0 -0.00000000000E+00 -0.00000000000E+00  0.00000000000E+00  0.93800000000E+00  0.93800000000E+00 0.  1.
         11    1    1    2    0    0  0.72610252465E-01 -0.11943146398E+00  0.62486582592E+00  0.64030749244E+00  0.51100000000E-03 0. -1.
    9000002    1    1    2    0    0  0.13949211525E+00 -0.31341939757E-01  0.37129407610E-01  0.94955935060E+00  0.93800000000E+00 0.  1.
         22    1    1    2    0    0 -0.21210236771E+00  0.15077340374E+00  0.33380047338E+01  0.33481331570E+01  0.00000000000E+00 0. -1.
</event>
<event>
 5    1  0.2111786E+001  0.1553941E+01  0.7818608E-02  0.3404923E+00
         11   -1    0    0    0    0  0.00000000000E+00  0.00000000000E+00  0.39999999674E+01  0.40000000000E+01  0.51100000000E-03 0. -1.
    9000002   -1    0    0    0    0 -0.00000000000E+00 -0.00000000000E+00  0.00000000000E+00  0.93800000000E+00  0.93800000000E+00 0. -1.
         11    1    1    2    0    0  0.10864879484E+00 -0.38367364212E+00  0.24209890543E+01  0.24536092367E+01  0.51100000000E-03 0. -1.
    9000002    1    1    2    0    0  0.13354455685E+00  0.36008389745E+00  0.13794146720E+00  0.10229205298E+01  0.93800000000E+00 0. -1.
         22    1    1    2    0    0 -0.24219335169E+00  0.23589744662E-01  0.14410694459E+01  0.14614702335E+01  0.00000000000E+00 0.  1.
</event>
<event>
 5    1  0.2111786E+001  0.1561459E+01  0.7818608E-02  0.3396287E+00
         11   -1    0    0    0    0  0.00000000000E+00  0.00000000000E+00  0.39999999674E+01  0.40000000000E+01  0.51100000000E-03 0.  1.
    9000002   -1    0    0    0    0 -0.00000000000E+00 -0.00000000000E+00  0.00000000000E+00  0.93800000000E+00  0.93800000000E+00 0. -1.
         11    1    1    2    0    0 -0.15900380627E+00  0.13213439638E+00  0.17941306727E+01  0.18060030013E+01  0.51100000000E-03 0.  1.
    9000002    1    1    2    0    0 -0.93967417929E-01 -0.28470217451E-01  0.34783371134E-01  0.94376602599E+00  0.93800000000E+00 0. -1.
         22    1    1    2    0    0  0.25297122420E+00 -0.10366417893E+00  0.21710859235E+01  0.21882309727E+01  0.00000000000E+00 0.  1.
</event>
<event>
 5    1  0.2111786E+001  0.1370526E+01  0.7818608E-02  0.3655312E+00
         11   -1    0    0    0    0  0.00000000000E+00  0.00000000000E+00  0.39999999674E+01  0.40000000000E+01  0.51100000000E-03 0. -1.
    9000002   -1    0    0    0    0 -0.00000000000E+00 -0.00000000000E+00  0.00000000000E+00  0.93800000000E+00  0.93800000000E+00 0. -1.
         11    1    1    2    0    0 -0.79770692878E-01  0.51028879209E+00  0.15402057630E+01  0.16244974818E+01  0.51100000000E-03 0. -1.
    9000002    1    1    2    0    0 -0.13797589162E+00  0.96332797042E-01  0.21353403774E+00  0.97660541660E+00  0.93800000000E+00 0. -1.
         22    1    1    2    0    0  0.21774658450E+00 -0.60662158913E+00  0.22462601666E+01  0.23368971016E+01  0.00000000000E+00 0.  1.
</event>
<event>
 5    1  0.2111786E+001  0.1514294E+01  0.7818608E-02  0.3451984E+00
         11   -1    0    0    0    0  0.00000000000E+00  0.00000000000E+00  0.39999999674E+01  0.40000000000E+01  0.51100000000E-03 0. -1.
    9000002   -1    0    0    0    0 -0.00000000000E+00 -0.00000000000E+00  0.00000000000E+00  0.93800000000E+00  0.93800000000E+00 0. -1.
         11    1    1    2    0    0  0.51373608783E-01  0.28701645218E+00  0.19480061174E+00  0.35066398583E+00  0.51100000000E-03 0. -1.
    9000002    1    1    2    0    0 -0.11400505426E+00 -0.44569212508E-01  0.19171414419E+00  0.96518489430E+00  0.93800000000E+00 0. -1.
         22    1    1    2    0    0  0.62631445477E-01 -0.24244723967E+00  0.36134852114E+01  0.36221511199E+01  0.00000000000E+00 0. -1.
</event>
<event>
 5    1  0.2111786E+001  0.1560520E+01  0.7818608E-02  0.3397361E+00
         11   -1    0    0    0    0  0.00000000000E+00  0.00000000000E+00  0.39999999674E+01  0.40000000000E+01  0.51100000000E-03 0.  1.
    9000002   -1    0    0    0    0 -0.00000000000E+00 -0.00000000000E+00  0.00000000000E+00  0.93800000000E+00  0.93800000000E+00 0.  1.
         11    1    1    2    0    0 -0.12410081246E+00 -0.16965351180E+00  0.31228723691E+01  0.31299385650E+01  0.51100000000E-03 0.  1.
    9000002    1    1    2    0    0  0.13650559610E+00 -0.31307987965E-01  0.42346930782E-01  0.94934252534E+00  0.93800000000E+00 0.  1.
         22    1    1    2    0    0 -0.12404783639E-01  0.20096149977E+00  0.83478066743E+00  0.85871890963E+00  0.00000000000E+00 0. -1.
</event>
<event>
 5    1  0.2111786E+001  0.1536527E+01  0.7818608E-02  0.3425274E+00
         11   -1    0    0    0    0  0.00000000000E+00  0.00000000000E+00  0.39999999674E+01  0.40000000000E+01  0.51100000000E-03 0. -1.
    9000002   -1    0    0    0    0 -0.00000000000E+00 -0.00000000000E+00  0.00000000000E+00  0.93800000000E+00  0.93800000000E+00 0. -1.
         11    1    1    2    0    0 -0.27505126217E+00 -0.32956853396E+00  0.28512023093E+01  0.28833354791E+01  0.51100000000E-03 0. -1.
    9000002    1    1    2    0    0  0.14189677417E+00  0.16795430555E+00  0.81329697401E-01  0.96685152063E+00  0.93800000000E+00 0. -1.
         22    1    1    2    0    0  0.13315448800E+00  0.16161422841E+00  0.10674679606E+01  0.10878130002E+01  0.00000000000E+00 0. -1.
</event>
<event>
 5    1  0.2111786E+001  0.1489562E+01  0.7818608E-02  0.3482704E+00
         11   -1    0    0    0    0  0.00000000000E+00  0.00000000000E+00  0.39999999674E+01  0.40000000000E+01  0.51100000000E-03 0.  1.
    9000002   -1    0    0    0    0 -0.00000000000E+00 -0.00000000000E+00  0.00000000000E+00  0.93800000000E+00  0.93800000000E+00 0. -1.
         11    1    1    2    0    0  0.18194872308E+00 -0.23815654715E+00  0.18319166969E+01  0.18562712422E+01  0.51100000000E-03 0.  1.
    9000002    1    1    2    0    0  0.21893104014E+00 -0.86082918633E-01  0.12559784064E+00  0.97517172169E+00  0.93800000000E+00 0. -1.
         22    1    1    2    0    0 -0.40087976322E+00  0.32423946578E+00  0.20424854298E+01  0.21065570362E+01  0.00000000000E+00 0.  1.
</event>
<event>
 5    1  0.2111786E+001  0.1567673E+01  0.7818608E-02  0.3389215E+00
         11   -1    0    0    0    0  0.00000000000E+00  0.00000000000E+00  0.39999999674E+01  0.40000000000E+01  0.51100000000E-03 0.  1.
    9000002   -1    0    0    0    0 -0.00000000000E+00 -0.00000000000E+00  0.00000000000E+00  0.93800000000E+00  0.93800000000E+00 0.  1.
         11    1    1    2    0    0 -0.97608976740E-01 -0.45938588583E-01  0.21977491056E+01  0.22003952505E+01  0.51100000000E-03 0.  1.
    9000002    1    1    2    0    0 -0.20381885294E+00  0.16204239667E-01  0.52100828598E-01  0.96143808877E+00  0.93800000000E+00 0.  1.
         22    1    1    2    0    0  0.30142782968E+00  0.29734348916E-01  0.17501500332E+01  0.17761666607E+01  0.00000000000E+00 0. -1.
</event>
<event>
 5    1  0.2111786E+001  0.1563293E+01  0.7818608E-02  0.3394193E+00
         11   -1    0    0    0    0  0.00000000000E+00  0.00000000000E+00  0.39999999674E+01  0.40000000000E+01  0.51100000000E-03 0. -1.
    9000002   -1    0    0    0    0 -0.00000000000E+00 -0.00000000000E+00  0.00000000000E+00  0.93800000000E+00  0.93800000000E+00 0.  1.
         11    1    1    2    0    0  0.28110312544E+00 -0.38810698760E-01  0.20168357983E+01  0.20367012878E+01  0.51100000000E-03 0. -1.
    9000002    1    1    2    0    0 -0.13706352458E+00 -0.10007604927E+00  0.46539260819E-01  0.95436446298E+00  0.93800000000E+00 0.  1.
         22    1    1    2    0    0 -0.14403960085E+00  0.13888674803E+00  0.19366249083E+01  0.19469342492E+01  0.00000000000E+00 0. -1.
</event>
<event>
 5    1  0.2111786E+001  0.1547299E+01  0.7818608E-02  0.3412628E+00
         11   -1    0    0    0    0  0.00000000000E+00  0.00000000000E+00  0.39999999674E+01  0.40000000000E+01  0.51100000000E-03 0.  1.
    9000002   -1    0    0    0    0 -0.00000000000E+00 -0.00000000000E+00  0.00000000000E+00  0.93800000000E+00  0.93800000000E+00 0. -1.
         11    1    1    2    0    0 -0.80603255145E-01 -0.15171665047E+00  0.18569769734E+01  0.18649071204E+01  0.51100000000E-03 0.  1.
    9000002    1    1    2    0    0  0.15750325205E-01 -0.24010448908E+00  0.79422159321E-01  0.97162241525E+00  0.93800000000E+00 0. -1.
         22    1    1    2    0    0  0.64852929940E-01  0.39182113955E+00  0.20636008347E+01  0.21014704644E+01  0.00000000000E+00 0.  1.
</event>
<event>
 5    1  0.2111786E+001  0.1554797E+01  0.7818608E-02  0.3403935E+00
         11   -1    0    0    0    0  0.00000000000E+00  0.00000000000E+00  0.39999999674E+01  0.40000000000E+01  0.51100000000E-03 0.  1.
    9000002   -1    0    0    0    0 -0.00000000000E+00 -0.00000000000E+00  0.00000000000E+00  0.93800000000E+00  0.93800000000E+00 0.  1.
         11    1    1    2    0    0  0.67289012360E-01 -0.21491700986E+00  0.10670594545E+01  0.10905655748E+01  0.51100000000E-03 0.  1.
    9000002    1    1    2    0    0  0.15857224527E-01 -0.12529199871E-03  0.33385871190E-01  0.93872790715E+00  0.93800000000E+00 0.  1.
         22    1    1    2    0    0 -0.83146236886E-01  0.21504230186E+00  0.28995546416E+01  0.29087065181E+01  0.00000000000E+00 0.  1.
</event>
<event>
 5    1  0.2111786E+001  0.1590694E+01  0.7818608E-02  0.3363526E+00
         11   -1    0    0    0    0  0.00000000000E+00  0.00000000000E+00  0.39999999674E+01  0.40000000000E+01  0.51100000000E-03 0.  1.
    9000002   -1    0    0    0    0 -0.00000000000E+00 -0.00000000000E+00  0.00000000000E+00  0.93800000000E+00  0.93800000000E+00 0.  1.
         11    1    1    2    0    0  0.34116589977E+00 -0.12606839025E+00  0.24768777816E+01  0.25034398767E+01  0.51100000000E-03 0.  1.
    9000002    1    1    2    0    0 -0.60312439077E+00  0.52981531834E-01  0.26509143304E+00  0.11474683182E+01  0.93800000000E+00 0.  1.
         22    1    1    2    0    0  0.26195849100E+00  0.73086858413E-01  0.12580307527E+01  0.12870918051E+01  0.00000000000E+00 0.  1.
</event>
<event>
 5    1  0.2111786E+001  0.1527026E+01  0.7818608E-02  0.3436585E+00
         11   -1    0    0    0    0  0.00000000000E+00  0.00000000000E+00  0.39999999674E+01  0.40000000000E+01  0.51100000000E-03 0.  1.
    9000002   -1    0    0    0    0 -0.00000000000E+00 -0.00000000000E+00  0.00000000000E+00  0.93800000000E+00  0.93800000000E+00 0. -1.
         11    1    1    2    0    0 -0.31854816450E-01  0.27759594931E+00  0.78661201638E+00  0.83476521600E+00  0.51100000000E-03 0.  1.
    9000002    1    1    2    0    0  0.14731385618E+00 -0.76770058053E-01  0.74167404303E-01  0.95547884220E+00  0.93800000000E+00 0. -1.
         22    1    1    2    0    0 -0.11545903973E+00 -0.20082589126E+00  0.31392205467E+01  0.31477559418E+01  0.00000000000E+00 0.  1.
</event>
<event>
 5    1  0.2111786E+001  0.1574075E+01  0.7818608E-02  0.3381992E+00
         11   -1    0    0    0    0  0.00000000000E+00  0.00000000000E+00  0.39999999674E+01  0.40000000000E+01  0.51100000000E-03 0. -1.
    9000002   -1    0    0    0    0 -0.00000000000E+00 -0.00000000000E+00  0.00000000000E+00  0.93800000000E+00  0.93800000000E+00 0. -1.
         11    1    1    2    0    0 -0.10509669657E+00 -0.71726518475E-02  0.11781348042E+01  0.11828350014E+01  0.51100000000E-03 0. -1.
    9000002    1    1    2    0    0 -0.13974122124E+00  0.34706380657E+00  0.11535586074E+00  0.10164309467E+01  0.93800000000E+00 0. -1.
         22    1    1    2    0    0  0.24483791781E+00 -0.33989115472E+00  0.27065093025E+01  0.27387340520E+01  0.00000000000E+00 0. -1.
</event>
<event>
 5    1  0.2111786E+001  0.1173323E+01  0.7818608E-02  0.4057207E+00
         11   -1    0    0    0    0  0.00000000000E+00  0.00000000000E+00  0.39999999674E+01  0.40000000000E+01  0.51100000000E-03 0.  1.
    9000002   -1    0    0    0    0 -0.00000000000E+00 -0.00000000000E+00  0.00000000000E+00  0.93800000000E+00  0.93800000000E+00 0.  1.
         11    1    1    2    0    0  0.20671497982E+00  0.22392626210E-01 -0.13130244302E+00  0.24591280010E+00  0.51100000000E-03 0.  1.
    9000002    1    1    2    0    0 -0.41422045660E+00 -0.24256173806E+00  0.74062296792E+00  0.12879367857E+01  0.93800000000E+00 0.  1.
         22    1    1    2    0    0  0.20750547678E+00  0.22016911185E+00  0.33906794425E+01  0.34041504142E+01  0.00000000000E+00 0.  1.
</event>
<event>
 5    1  0.2111786E+001  0.1567799E+01  0.7818608E-02  0.3389072E+00
         11   -1    0    0    0    0  0.00000000000E+00  0.00000000000E+00  0.39999999674E+01  0.40000000000E+01  0.51100000000E-03 0.  1.
    9000002   -1    0    0    0    0 -0.00000000000E+00 -0.00000000000E+00  0.00000000000E+00  0.93800000000E+00  0.93800000000E+00 0.  1.
         11    1    1    2    0    0 -0.13350095818E+00  0.58615543727E-01  0.51905409132E+00  0.53914348613E+00  0.51100000000E-03 0.  1.
    9000002    1    1    2    0    0 -0.71878734492E-01 -0.21357740146E+00  0.58188253283E-01  0.96644282382E+00  0.93800000000E+00 0.  1.
         22    1    1    2    0    0  0.20537969267E+00  0.15496185774E+00  0.34227576228E+01  0.34324136900E+01  0.00000000000E+00 0.  1.
</event>
<event>
 5    1  0.2111786E+001  0.1529318E+01  0.7818608E-02  0.3433843E+00
         11   -1    0    0    0    0  0.00000000000E+00  0.00000000000E+00  0.39999999674E+01  0.40000000000E+01  0.51100000000E-03 0. -1.
    9000002   -1    0    0    0    0 -0.00000000000E+00 -0.00000000000E+00  0.00000000000E+00  0.93800000000E+00  0.93800000000E+00 0. -1.
         11    1    1    2    0    0 -0.24684908840E+00  0.67385329996E-02  0.97815483316E+00  0.10088443978E+01  0.51100000000E-03 0. -1.
    9000002    1    1    2    0    0 -0.96077762424E-01  0.20273962732E+00  0.88606649093E-01  0.96851919505E+00  0.93800000000E+00 0. -1.
         22    1    1    2    0    0  0.34292685083E+00 -0.20947816032E+00  0.29332384851E+01  0.29606364071E+01  0.00000000000E+00 0.  1.
</event>
<event>
 5    1  0.2111786E+001  0.1466674E+01  0.7818608E-02  0.3512131E+00
         11   -1    0    0    0    0  0.00000000000E+00  0.00000000000E+00  0.39999999674E+01  0.40000000000E+01  0.51100000000E-03 0. -1.
    9000002   -1    0    0    0    0 -0.00000000000E+00 -0.00000000000E+00  0.00000000000E+00  0.93800000000E+00  0.93800000000E+00 0. -1.
         11    1    1    2    0    0 -0.47667997956E+00  0.47894809845E+00  0.15852854027E+01  0.17232948538E+01  0.51100000000E-03 0. -1.
    9000002    1    1    2    0    0  0.17457212589E+00 -0.64327072320E+00  0.47524287389E+00  0.12449788912E+01  0.93800000000E+00 0. -1.
         22    1    1    2    0    0  0.30210785367E+00  0.16432262475E+00  0.19394716908E+01  0.19697262550E+01  0.00000000000E+00 0. -1.
</event>
<event>
 5    1  0.2111786E+001  0.1573499E+01  0.7818608E-02  0.3382639E+00
         11   -1    0    0    0    0  0.00000000000E+00  0.00000000000E+00  0.39999999674E+01  0.40000000000E+01  0.51100000000E-03 0. -1.
    9000002   -1    0    0    0    0 -0.00000000000E+00 -0.00000000000E+00  0.00000000000E+00  0.93800000000E+00  0.93800000000E+00 0. -1.
         11    1    1    2    0    0 -0.80951257268E-01  0.55231652716E-02  0.17590669074E+00  0.19371896236E+00  0.51100000000E-03 0. -1.
    9000002    1    1    2    0    0 -0.22194647570E-01 -0.20861735476E+00  0.49107248910E-01  0.96242886749E+00  0.93800000000E+00 0. -1.
         22    1    1    2    0    0  0.10314590484E+00  0.20309418948E+00  0.37749860277E+01  0.37818521702E+01  0.00000000000E+00 0. -1.
</event>
<event>
 5    1  0.2111786E+001  0.1460922E+01  0.7818608E-02  0.3519683E+00
         11   -1    0    0    0    0  0.00000000000E+00  0.00000000000E+00  0.39999999674E+01  0.40000000000E+01  0.51100000000E-03 0. -1.
    9000002   -1    0    0    0    0 -0.00000000000E+00 -0.00000000000E+00  0.00000000000E+00  0.93800000000E+00  0.93800000000E+00 0.  1.
         11    1    1    2    0    0 -0.47964780739E+00  0.71231867413E-01  0.97150866224E+00  0.10858017038E+01  0.51100000000E-03 0. -1.
    9000002    1    1    2    0    0  0.35314143736E+00  0.86697619774E-01  0.21157557403E+00  0.10280241124E+01  0.93800000000E+00 0.  1.
         22    1    1    2    0    0  0.12650637003E+00 -0.15792948719E+00  0.28169157311E+01  0.28241741838E+01  0.00000000000E+00 0. -1.
</event>
<event>
 5    1  0.2111786E+001  0.1522378E+01  0.7818608E-02  0.3442175E+00
         11   -1    0    0    0    0  0.00000000000E+00  0.00000000000E+00  0.39999999674E+01  0.40000000000E+01  0.51100000000E-03 0.  1.
    9000002   -1    0    0    0    0 -0.00000000000E+00 -0.00000000000E+00  0.00000000000E+00  0.93800000000E+00  0.93800000000E+00 0.  1.
         11    1    1    2    0    0 -0.92012047814E-01  0.32233305005E+00  0.11094559056E+01  0.11589898531E+01  0.51100000000E-03 0.  1.
    9000002    1    1    2    0    0 -0.11001351347E+00 -0.15975179710E+00  0.85112941727E-01  0.96161937515E+00  0.93800000000E+00 0.  1.
         22    1    1    2    0    0  0.20202556128E+00 -0.16258125295E+00  0.28054311201E+01  0.28173907717E+01  0.00000000000E+00 0.  1.
</event>
<event>
 5    1  0.2111786E+001  0.1474496E+01  0.7818608E-02  0.3501963E+00
         11   -1    0    0    0    0  0.00000000000E+00  0.00000000000E+00  0.39999999674E+01  0.40000000000E+01  0.51100000000E-03 0. -1.
    9000002   -1    0    0    0    0 -0.00000000000E+00 -0.00000000000E+00  0.00000000000E+00  0.93800000000E+00  0.93800000000E+00 0.  1.
         11    1    1    2    0    0 -0.31818344818E+00 -0.29657027156E-01  0.51847618032E+00  0.60904684273E+00  0.51100000000E-03 0. -1.
    9000002    1    1    2    0    0  0.17147846068E+00 -0.20925994121E+00  0.15241915524E+00  0.98806385642E+00  0.93800000000E+00 0.  1.
         22    1    1    2    0    0  0.14670498750E+00  0.23891696837E+00  0.33291046318E+01  0.33408893009E+01  0.00000000000E+00 0. -1.
</event>
<event>
 5    1  0.2111786E+001  0.1545701E+01  0.7818608E-02  0.3414492E+00
         11   -1    0    0    0    0  0.00000000000E+00  0.00000000000E+00  0.39999999674E+01  0.40000000000E+01  0.51100000000E-03 0. -1.
    9000002   -1    0    0    0    0 -0.00000000000E+00 -0.00000000000E+00  0.00000000000E+00  0.93800000000E+00  0.93800000000E+00 0.  1.
         11    1    1    2    0    0 -0.32944189721E-01 -0.26896994329E+00  0.75851494509E+00  0.80546591056E+00  0.51100000000E-03 0. -1.
    9000002    1    1    2    0    0  0.26932437657E+00  0.22983915533E+00  0.12902719638E+00  0.10108677829E+01  0.93800000000E+00 0.  1.
         22    1    1    2    0    0 -0.23638018685E+00  0.39130787962E-01  0.31124578259E+01  0.31216663065E+01  0.00000000000E+00 0. -1.
</event>
<event>
 5    1  0.2111786E+001  0.1492660E+01  0.7818608E-02  0.3478795E+00
         11   -1    0    0    0    0  0.00000000000E+00  0.00000000000E+00  0.39999999674E+01  0.40000000000E+01  0.51100000000E-03 0.  1.
    9000002   -1    0    0    0    0 -0.00000000000E+00 -0.00000000000E+00  0.00000000000E+00  0.93800000000E+00  0.93800000000E+00 0. -1.
         11    1    1    2    0    0  0.45246890285E+00  0.68038822632E-01  0.30188254339E+01  0.30533038910E+01  0.51100000000E-03 0.  1.
    9000002    1    1    2    0    0 -0.16377969465E+00 -0.16306330096E-01  0.10186382753E+00  0.95776297910E+00  0.93800000000E+00 0. -1.
         22    1    1    2    0    0 -0.28868920819E+00 -0.51732492536E-01  0.87931070594E+00  0.92693312989E+00  0.00000000000E+00 0. -1.
</event>
<event>
 5    1  0.2111786E+001  0.1555775E+01  0.7818608E-02  0.3402808E+00
         11   -1    0    0    0    0  0.00000000000E+00  0.00000000000E+00  0.39999999674E+01  0.40000000000E+01  0.51100000000E-03 0. -1.
    9000002   -1    0    0    0    0 -0.00000000000E+00 -0.00000000000E+00  0.00000000000E+00  0.93800000000E+00  0.93800000000E+00 0. -1.
         11    1    1    2    0    0 -0.13648911597E+00 -0.23534298440E+00  0.20483744591E+01  0.20663624524E+01  0.51100000000E-03 0. -1.
    9000002    1    1    2    0    0  0.52991368709E-01  0.15916291393E-01  0.34577158187E-01  0.94026644807E+00  0.93800000000E+00 0. -1.
         22    1    1    2    0    0  0.83497747259E-01  0.21942669301E+00  0.19170483501E+01  0.19313710995E+01  0.00000000000E+00 0. -1.
</event>
<event>
 5    1  0.2111786E+001  0.1505806E+01  0.7818608E-02  0.3462404E+00
         11   -1    0    0    0    0  0.00000000000E+00  0.00000000000E+00  0.39999999674E+01  0.40000000000E+01  0.51100000000E-03 0. -1.
    9000002   -1    0    0    0    0 -0.00000000000E+00 -0.00000000000E+00  0.00000000000E+00  0.93800000000E+00  0.93800000000E+00 0.  1.
         11    1    1    2    0    0 -0.49541408729E+00 -0.17781632020E+00  0.10437891169E+01  0.11689951853E+01  0.51100000000E-03 0. -1.
    9000002    1    1    2    0    0 -0.28720255586E-01  0.50230553588E+00  0.39610715158E+00  0.11357290962E+01  0.93800000000E+00 0.  1.
         22    1    1    2    0    0  0.52413434287E+00 -0.32448921568E+00  0.25601036989E+01  0.26332757184E+01  0.00000000000E+00 0. -1.
</event>
<event>
 5    1  0.2166754E+001  0.1570553E+01  0.7818608E-02  0.3385958E+00
         11   -1    0    0    0    0  0.00000000000E+00  0.00000000000E+00  0.39999999674E+01  0.40000000000E+01  0.51100000000E-03 0.  1.
    9000002   -1    0    0    0    0 -0.00000000000E+00 -0.00000000000E+00  0.00000000000E+00  0.93800000000E+00  0.93800000000E+00 0.  1.
         11    1    1    2    0    0 -0.67179099665E-01  0.17996252509E+00  0.17986720322E+01  0.18089004623E+01  0.51100000000E-03 0.  1.
    9000002    1    1    2    0    0  0.13117484498E-02  0.29382937015E-01  0.21968684499E-01  0.93871811571E+00  0.93800000000E+00 0.  1.
         22    1    1    2    0    0  0.65867351215E-01 -0.20934546211E+00  0.21793592506E+01  0.21903814220E+01  0.00000000000E+00 0.  1.
</event>
<event>
 5    1  0.2111786E+001  0.1588812E+01  0.7818608E-02  0.3365596E+00
         11   -1    0    0    0    0  0.00000000000E+00  0.00000000000E+00  0.39999999674E+01  0.40000000000E+01  0.51100000000E-03 0. -1.
    9000002   -1    0    0    0    0 -0.00000000000E+00 -0.00000000000E+00  0.00000000000E+00  0.93800000000E+00  0.93800000000E+00 0. -1.
         11    1    1    2    0    0  0.28765990658E-01  0.17272787388E+00  0.75411856042E+00  0.77418180353E+00  0.51100000000E-03 0. -1.
    9000002    1    1    2    0    0 -0.53386455520E-01 -0.38270158788E+00  0.10955106890E+00  0.10203705482E+01  0.93800000000E+00 0. -1.
         22    1    1    2    0    0  0.24620464862E-01  0.20997371400E+00  0.31363303380E+01  0.31434476482E+01  0.00000000000E+00 0. -1.
</event>
<event>
 5    1  0.2111786E+001  0.1553682E+01  0.7818608E-02  0.3405222E+00
         11   -1    0    0    0    0  0.00000000000E+00  0.00000000000E+00  0.39999999674E+01  0.40000000000E+01  0.51100000000E-03 0.  1.
    9000002   -1    0    0    0    0 -0.00000000000E+00 -0.00000000000E+00  0.00000000000E+00  0.93800000000E+00  0.93800000000E+00 0.  1.
         11    1    1    2    0    0  0.77765888802E-01  0.18148105765E+00  0.26250436893E+01  0.26324584592E+01  0.51100000000E-03 0.  1.
    9000002    1    1    2    0    0 -0.20107676235E+00  0.83597340495E-01  0.66960475555E-01  0.96527099044E+00  0.93800000000E+00 0.  1.
         22    1    1    2    0    0  0.12331087355E+00 -0.26507839814E+00  0.13079958025E+01  0.13402705503E+01  0.00000000000E+00 0.  1.
</event>
<event>
 5    1  0.2111786E+001  0.1491432E+01  0.7818608E-02  0.3480342E+00
         11   -1    0    0    0    0  0.00000000000E+00  0.00000000000E+00  0.39999999674E+01  0.40000000000E+01  0.51100000000E-03 0. -1.
    9000002   -1    0    0    0    0 -0.00000000000E+00 -0.00000000000E+00  0.00000000000E+00  0.93800000000E+00  0.93800000000E+00 0.  1.
         11    1    1    2    0    0  0.76832486563E-01  0.37920140522E+00  0.10190985353E+01  0.10900729437E+01  0.51100000000E-03 0. -1.
    9000002    1    1    2    0    0  0.66227726847E-01 -0.15532363917E+00  0.10394437642E+00  0.95872831296E+00  0.93800000000E+00 0.  1.
         22    1    1    2    0    0 -0.14306021341E+00 -0.22387776605E+00  0.28769570556E+01  0.28891987434E+01  0.00000000000E+00 0. -1.
</event>
<event>
 5    1  0.2111786E+001  0.1577576E+01  0.7818608E-02  0.3378067E+00
         11   -1    0    0    0    0  0.00000000000E+00  0.00000000000E+00  0.39999999674E+01  0.40000000000E+01  0.51100000000E-03 0. -1.
    9000002   -1    0    0    0    0 -0.00000000000E+00 -0.00000000000E+00  0.00000000000E+00  0.93800000000E+00  0.93800000000E+00 0. -1.
         11    1    1    2    0    0 -0.11916711180E+00 -0.84131247139E-01  0.13100767119E+01  0.13181730234E+01  0.51100000000E-03 0. -1.
    9000002    1    1    2    0    0 -0.93730928262E-01  0.24920409093E-01  0.22503213685E-01  0.94326926608E+00  0.93800000000E+00 0. -1.
         22    1    1    2    0    0  0.21289804006E+00  0.59210838046E-01  0.26674200417E+01  0.26765577105E+01  0.00000000000E+00 0. -1.
</event>
<event>
 5    1  0.2111786E+001  0.1488435E+01  0.7818608E-02  0.3484130E+00
         11   -1    0    0    0    0  0.00000000000E+00  0.00000000000E+00  0.39999999674E+01  0.40000000000E+01  0.51100000000E-03 0.  1.
    9000002   -1    0    0    0    0 -0.00000000000E+00 -0.00000000000E+00  0.00000000000E+00  0.93800000000E+00  0.93800000000E+00 0.  1.
         11    1    1    2    0    0 -0.37583024211E+00  0.11199915905E-01  0.12631416267E+01  0.13179153384E+01  0.51100000000E-03 0.  1.
    9000002    1    1    2    0    0  0.32305501911E-03  0.30610974642E-01  0.85995283195E-01  0.94243107168E+00  0.93800000000E+00 0.  1.
         22    1    1    2    0    0  0.37550718709E+00 -0.41810890547E-01  0.26508630574E+01  0.26776535899E+01  0.00000000000E+00 0.  1.
</event>
<event>
 5    1  0.2111786E+001  0.1526244E+01  0.7818608E-02  0.3437524E+00
         11   -1    0    0    0    0  0.00000000000E+00  0.00000000000E+00  0.39999999674E+01  0.40000000000E+01  0.51100000000E-03 0.  1.
    9000002   -1    0    0    0    0 -0.00000000000E+00 -0.00000000000E+00  0.00000000000E+00  0.93800000000E+00  0.93800000000E+00 0. -1.
         11    1    1    2    0    0  0.27045640870E+00  0.45079657547E-01  0.71797059577E+00  0.76854465195E+00  0.51100000000E-03 0.  1.
    9000002    1    1    2    0    0 -0.82029530836E-01 -0.20047239210E+00  0.88659050645E-01  0.96675873473E+00  0.93800000000E+00 0. -1.
         22    1    1    2    0    0 -0.18842687786E+00  0.15539273455E+00  0.31933703209E+01  0.32026966133E+01  0.00000000000E+00 0.  1.
</event>
<event>
 5    1  0.2111786E+001  0.1477797E+01  0.7818608E-02  0.3497707E+00
         11   -1    0    0    0    0  0.00000000000E+00  0.00000000000E+00  0.39999999674E+01  0.40000000000E+01  0.51100000000E-03 0.  1.
    9000002   -1    0    0    0    0 -0.00000000000E+00 -0.00000000000E+00  0.00000000000E+00  0.93800000000E+00  0.93800000000E+00 0.  1.
         11    1    1    2    0    0  0.11585692299E+00 -0.11951259572E+00  0.29649011663E+01  0.29695698803E+01  0.51100000000E-03 0.  1.
    9000002    1    1    2    0    0  0.84795935589E-01 -0.25056133587E+00  0.14699841318E+00  0.98560837415E+00  0.93800000000E+00 0.  1.
         22    1    1    2    0    0 -0.20065285858E+00  0.37007393159E+00  0.88810038791E+00  0.98282174554E+00  0.00000000000E+00 0. -1.
</event>
<event>
 5    1  0.2111786E+001  0.1511398E+01  0.7818608E-02  0.3455525E+00
         11   -1    0    0    0    0  0.00000000000E+00  0.00000000000E+00  0.39999999674E+01  0.40000000000E+01  0.51100000000E-03 0. -1.
    9000002   -1    0    0    0    0 -0.00000000000E+00 -0.00000000000E+00  0.00000000000E+00  0.93800000000E+00  0.93800000000E+00 0. -1.
         11    1    1    2    0    0  0.28443903545E+00  0.21448451054E+00  0.99046260305E+00  0.10525804479E+01  0.51100000000E-03 0. -1.
    9000002    1    1    2    0    0 -0.54927241694E-01 -0.21352331351E+00  0.10212204638E+00  0.96895929721E+00  0.93800000000E+00 0. -1.
         22    1    1    2    0    0 -0.22951179376E+00 -0.96119702856E-03  0.29074153179E+01  0.29164602549E+01  0.00000000000E+00 0. -1.
</event>
<event>
 5    1  0.2111786E+001  0.1548449E+01  0.7818608E-02  0.3411289E+00
         11   -1    0    0    0    0  0.00000000000E+00  0.00000000000E+00  0.39999999674E+01  0.40000000000E+01  0.51100000000E-03 0. -1.
    9000002   -1    0    0    0    0 -0.00000000000E+00 -0.00000000000E+00  0.00000000000E+00  0.93800000000E+00  0.93800000000E+00 0. -1.
         11    1    1    2    0    0  0.36435772531E+00 -0.18566690442E+00  0.20033471164E+01  0.20446585733E+01  0.51100000000E-03 0. -1.
    9000002    1    1    2    0    0 -0.33756704294E+00 -0.18666421519E-01  0.11869251945E+00  0.10041074932E+01  0.93800000000E+00 0. -1.
         22    1    1    2    0    0 -0.26790682373E-01  0.20433332594E+00  0.18779603315E+01  0.18892339334E+01  0.00000000000E+00 0. -1.
</event>
<event>
 5    1  0.2111786E+001  0.1566502E+01  0.7818608E-02  0.3390544E+00
         11   -1    0    0    0    0  0.00000000000E+00  0.00000000000E+00  0.39999999674E+01  0.40000000000E+01  0.51100000000E-03 0.  1.
    9000002   -1    0    0    0    0 -0.00000000000E+00 -0.00000000000E+00  0.00000000000E+00  0.93800000000E+00  0.93800000000E+00 0.  1.
         11    1    1    2    0    0  0.30108832391E-01  0.14227103684E+00  0.28324332330E+01  0.28361639357E+01  0.51100000000E-03 0.  1.
    9000002    1    1    2    0    0  0.92836138944E-01  0.44040783268E-01  0.31594643596E-01  0.94414001122E+00  0.93800000000E+00 0.  1.
         22    1    1    2    0    0 -0.12294497134E+00 -0.18631182011E+00  0.11359720908E+01  0.11576960531E+01  0.00000000000E+00 0. -1.
</event>
<event>
 5    1  0.2111786E+001  0.1527059E+01  0.7818608E-02  0.3436546E+00
         11   -1    0    0    0    0  0.00000000000E+00  0.00000000000E+00  0.39999999674E+01  0.40000000000E+01  0.51100000000E-03 0. -1.
    9000002   -1    0    0    0    0 -0.00000000000E+00 -0.00000000000E+00  0.00000000000E+00  0.93800000000E+00  0.93800000000E+00 0. -1.
         11    1    1    2    0    0 -0.30553313173E+00 -0.12270243032E+00  0.26004752050E+01  0.26212359554E+01  0.51100000000E-03 0. -1.
    9000002    1    1    2    0    0  0.87296056450E-01 -0.89446899465E-01  0.65604649763E-01  0.94856171089E+00  0.93800000000E+00 0. -1.
         22    1    1    2    0    0  0.21823707528E+00  0.21214932978E+00  0.13339201126E+01  0.13682023337E+01  0.00000000000E+00 0.  1.
</event>
<event>
 5    1  0.2111786E+001  0.1507019E+01  0.7818608E-02  0.3460907E+00
         11   -1    0    0    0    0  0.00000000000E+00  0.00000000000E+00  0.39999999674E+01  0.40000000000E+01  0.51100000000E-03 0. -1.
    9000002   -1    0    0    0    0 -0.00000000000E+00 -0.00000000000E+00  0.00000000000E+00  0.93800000000E+00  0.93800000000E+00 0. -1.
         11    1    1    2    0    0 -0.33460807945E+00  0.56760202850E-01  0.22863228537E+01  0.23113755083E+01  0.51100000000E-03 0. -1.
    9000002    1    1    2    0    0 -0.37619955271E-01  0.63574616351E-02  0.71374600292E-01  0.94148500356E+00  0.93800000000E+00 0. -1.
         22    1    1    2    0    0  0.37222803472E+00 -0.63117664485E-01  0.16423025133E+01  0.16851394882E+01  0.00000000000E+00 0. -1.
</event>
<event>
 5    1  0.2111786E+001  0.1507803E+01  0.7818608E-02  0.3459942E+00
         11   -1    0    0    0    0  0.00000000000E+00  0.00000000000E+00  0.39999999674E+01  0.40000000000E+01  0.51100000000E-03 0.  1.
    9000002   -1    0    0    0    0 -0.00000000000E+00 -0.00000000000E+00  0.00000000000E+00  0.93800000000E+00  0.93800000000E+00 0. -1.
         11    1    1    2    0    0 -0.12050581182E+00 -0.31394913893E+00  0.92449825360E+00  0.98375962234E+00  0.51100000000E-03 0.  1.
    9000002    1    1    2    0    0  0.24515789326E+00  0.28830827887E-01  0.11420282959E+00  0.97663703368E+00  0.93800000000E+00 0. -1.
         22    1    1    2    0    0 -0.12465208144E+00  0.28511831104E+00  0.29612988842E+01  0.29776033440E+01  0.00000000000E+00 0.  1.
</event>
<event>
 5    1  0.2111786E+001  0.1560602E+01  0.7818608E-02  0.3397267E+00
         11   -1    0    0    0    0  0.00000000000E+00  0.00000000000E+00  0.39999999674E+01  0.40000000000E+01  0.51100000000E-03 0. -1.
    9000002   -1    0    0    0    0 -0.00000000000E+00 -0.00000000000E+00  0.00000000000E+00  0.93800000000E+00  0.93800000000E+00 0. -1.
         11    1    1    2    0    0 -0.38794407919E-01  0.25628561847E+00  0.17682214317E+01  0.17871190831E+01  0.51100000000E-03 0. -1.
    9000002    1    1    2    0    0  0.12655392305E+00 -0.45687595563E-01  0.41244950337E-01  0.94849796929E+00  0.93800000000E+00 0. -1.
         22    1    1    2    0    0 -0.87759515131E-01 -0.21059802290E+00  0.21905335853E+01  0.22023829476E+01  0.00000000000E+00 0. -1.
</event>
<event>
 5    1  0.2111786E+001  0.1543409E+01  0.7818608E-02  0.3417173E+00
         11   -1    0    0    0    0  0.00000000000E+00  0.00000000000E+00  0.39999999674E+01  0.40000000000E+01  0.51100000000E-03 0.  1.
    9000002   -1    0    0    0    0 -0.00000000000E+00 -0.00000000000E+00  0.00000000000E+00  0.93800000000E+00  0.93800000000E+00 0.  1.
         11    1    1    2    0    0  0.28890838972E+00  0.90050453936E-01  0.13793210032E+01  0.14121274138E+01  0.51100000000E-03 0.  1.
    9000002    1    1    2    0    0 -0.78925607493E-01 -0.35286255650E-01  0.47091393207E-01  0.94315214609E+00  0.93800000000E+00 0.  1.
         22    1    1    2    0    0 -0.20998278223E+00 -0.54764198286E-01  0.25735875709E+01  0.25827204401E+01  0.00000000000E+00 0.  1.
</event>
<event>
 5    1  0.2111786E+001  0.1567329E+01  0.7818608E-02  0.3389605E+00
         11   -1    0    0    0    0  0.00000000000E+00  0.00000000000E+00  0.39999999674E+01  0.40000000000E+01  0.51100000000E-03 0.  1.
    9000002   -1    0    0    0    0 -0.00000000000E+00 -0.00000000000E+00  0.00000000000E+00  0.93800000000E+00  0.93800000000E+00 0. -1.
         11    1    1    2    0    0 -0.17039520764E+00  0.10887338462E+00  0.13348214629E+01  0.13500505693E+01  0.51100000000E-03 0.  1.
    9000002    1    1    2    0    0  0.56413588368E-01  0.85381255064E-01  0.30911803092E-01  0.94407202651E+00  0.93800000000E+00 0. -1.
         22    1    1    2    0    0  0.11398161928E+00 -0.19425463968E+00  0.26342667013E+01  0.26438774042E+01  0.00000000000E+00 0.  1.
</event>
<event>
 5    1  0.2111786E+001  0.1566357E+01  0.7818608E-02  0.3390708E+00
         11   -1    0    0    0    0  0.00000000000E+00  0.00000000000E+00  0.39999999674E+01  0.40000000000E+01  0.51100000000E-03 0.  1.
    9000002   -1    0    0    0    0 -0.00000000000E+00 -0.00000000000E+00  0.00000000000E+00  0.93800000000E+00  0.93800000000E+00 0. -1.
         11    1    1    2    0    0 -0.21300343642E+00  0.96784550084E-01  0.10414986317E+01  0.10674536871E+01  0.51100000000E-03 0.  1.
    9000002    1    1    2    0    0  0.70462367137E-01 -0.30362618130E+00  0.91607122642E-01  0.99266795459E+00  0.93800000000E+00 0. -1.
         22    1    1    2    0    0  0.14254106928E+00  0.20684163121E+00  0.28668942130E+01  0.28778783583E+01  0.00000000000E+00 0.  1.
</event>
<event>
 5    1  0.2111786E+001  0.1516408E+01  0.7818608E-02  0.3449408E+00
         11   -1    0    0    0    0  0.00000000000E+00  0.00000000000E+00  0.39999999674E+01  0.40000000000E+01  0.51100000000E-03 0.  1.
    9000002   -1    0    0    0    0 -0.00000000000E+00 -0.00000000000E+00  0.00000000000E+00  0.93800000000E+00  0.93800000000E+00 0. -1.
         11    1    1    2    0    0 -0.36667675087E+00 -0.29282769513E+00  0.21456338245E+01  0.21963480299E+01  0.51100000000E-03 0.  1.
    9000002    1    1    2    0    0  0.17573137568E+00  0.13982851605E+00  0.99294661081E-01  0.96960660065E+00  0.93800000000E+00 0. -1.
         22    1    1    2    0    0  0.19094537519E+00  0.15299917908E+00  0.17550714818E+01  0.17720453694E+01  0.00000000000E+00 0.  1.
</event>
<event>
 5    1  0.2111786E+001  0.1560917E+01  0.7818608E-02  0.3396907E+00
         11   -1    0    0    0    0  0.00000000000E+00  0.00000000000E+00  0.39999999674E+01  0.40000000000E+01  0.51100000000E-03 0.  1.
    9000002   -1    0    0    0    0 -0.00000000000E+00 -0.00000000000E+00  0.00000000000E+00  0.93800000000E+00  0.93800000000E+00 0.  1.
         11    1    1    2    0    0 -0.13667061142E+00 -0.27271814834E+00  0.20018371305E+01  0.20249459752E+01  0.51100000000E-03 0.  1.
    9000002    1    1    2    0    0 -0.77678062790E-01  0.22469420395E+00  0.67582157882E-01  0.97001686315E+00  0.93800000000E+00 0.  1.
         22    1    1    2    0    0  0.21434867421E+00  0.48023944384E-01  0.19305806790E+01  0.19430371616E+01  0.00000000000E+00 0.  1.
</event>
<event>
 5    1  0.2111786E+001  0.1563696E+01  0.7818608E-02  0.3393734E+00
         11   -1    0    0    0    0  0.00000000000E+00  0.00000000000E+00  0.39999999674E+01  0.40000000000E+01  0.51100000000E-03 0. -1.
    9000002   -1    0    0    0    0 -0.00000000000E+00 -0.00000000000E+00  0.00000000000E+00  0.93800000000E+00  0.93800000000E+00 0.  1.
         11    1    1    2    0    0 -0.14528269359E+00  0.23442448709E+00  0.19184160786E+01  0.19381389045E+01  0.51100000000E-03 0. -1.
    9000002    1    1    2    0    0 -0.43732989898E-01 -0.16155602842E+00  0.45686191256E-01  0.95390992908E+00  0.93800000000E+00 0.  1.
         22    1    1    2    0    0  0.18901568349E+00 -0.72868458673E-01  0.20358976975E+01  0.20459511665E+01  0.00000000000E+00 0. -1.
</event>
<event>
 5    1  0.2111786E+001  0.1527560E+01  0.7818608E-02  0.3435946E+00
         11   -1    0    0    0    0  0.00000000000E+00  0.00000000000E+00  0.39999999674E+01  0.40000000000E+01  0.51100000000E-03 0. -1.
    9000002   -1    0    0    0    0 -0.00000000000E+00 -0.00000000000E+00  0.00000000000E+00  0.93800000000E+00  0.93800000000E+00 0. -1.
         11    1    1    2    0    0  0.22289143057E+00 -0.49335732586E-01  0.21522411060E+01  0.21643143588E+01  0.51100000000E-03 0. -1.
    9000002    1    1    2    0    0  0.14172089839E+00 -0.12082712590E+00  0.78808404812E-01  0.95955133894E+00  0.93800000000E+00 0. -1.
         22    1    1    2    0    0 -0.36461232895E+00  0.17016285848E+00  0.17689504566E+01  0.18141343023E+01  0.00000000000E+00 0. -1.
</event>
<event>
 5    1  0.2111786E+001  0.1577532E+01  0.7818608E-02  0.3378116E+00
         11   -1    0    0    0    0  0.00000000000E+00  0.00000000000E+00  0.39999999674E+01  0.40000000000E+01  0.51100000000E-03 0. -1.
    9000002   -1    0    0    0    0 -0.00000000000E+00 -0.00000000000E+00  0.00000000000E+00  0.93800000000E+00  0.93800000000E+00 0. -1.
         11    1    1    2    0    0  0.13605830344E+00 -0.62855339673E-02  0.10842022106E+01  0.10927241483E+01  0.51100000000E-03 0. -1.
    9000002    1    1    2    0    0  0.76628154297E-01 -0.81568817921E-01  0.24639671116E-01  0.94497431684E+00  0.93800000000E+00 0. -1.
         22    1    1    2    0    0 -0.21268645774E+00  0.87854351889E-01  0.28911580857E+01  0.29003015348E+01  0.00000000000E+00 0. -1.
</event>
<event>
 5    1  0.2111786E+001  0.1450545E+01  0.7818608E-02  0.3533474E+00
         11   -1    0    0    0    0  0.00000000000E+00  0.00000000000E+00  0.39999999674E+01  0.40000000000E+01  0.51100000000E-03 0.  1.
    9000002   -1    0    0    0    0 -0.00000000000E+00 -0.00000000000E+00  0.00000000000E+00  0.93800000000E+00  0.93800000000E+00 0.  1.
         11    1    1    2    0    0 -0.17757508861E+00 -0.10287437365E+00  0.16398089523E+00  0.26269001498E+00  0.51100000000E-03 0.  1.
    9000002    1    1    2    0    0 -0.14704145321E+00  0.53248003830E-01  0.13585515285E+00  0.96060249918E+00  0.93800000000E+00 0.  1.
         22    1    1    2    0    0  0.32461654183E+00  0.49626369818E-01  0.37001639193E+01  0.37147074858E+01  0.00000000000E+00 0.  1.
</event>
<event>
 5    1  0.2111786E+001  0.1575877E+01  0.7818608E-02  0.3379969E+00
         11   -1    0    0    0    0  0.00000000000E+00  0.00000000000E+00  0.39999999674E+01  0.40000000000E+01  0.51100000000E-03 0. -1.
    9000002   -1    0    0    0    0 -0.00000000000E+00 -0.00000000000E+00  0.00000000000E+00  0.93800000000E+00  0.93800000000E+00 0. -1.
         11    1    1    2    0    0 -0.20870410712E-01 -0.16461924554E+00  0.15623416907E+01  0.15711291767E+01  0.51100000000E-03 0. -1.
    9000002    1    1    2    0    0 -0.72271299264E-01 -0.25135499148E-01  0.21374381939E-01  0.94135848550E+00  0.93800000000E+00 0. -1.
         22    1    1    2    0    0  0.93141709976E-01  0.18975474469E+00  0.24162838947E+01  0.24255123378E+01  0.00000000000E+00 0. -1.
</event>
<event>
 5    1  0.2111786E+001  0.1492138E+01  0.7818608E-02  0.3479453E+00
         11   -1    0    0    0    0  0.00000000000E+00  0.00000000000E+00  0.39999999674E+01  0.40000000000E+01  0.51100000000E-03 0.  1.
    9000002   -1    0    0    0    0 -0.00000000000E+00 -0.00000000000E+00  0.00000000000E+00  0.93800000000E+00  0.93800000000E+00 0.  1.
         11    1    1    2    0    0 -0.91249047388E-01 -0.17759194034E+00  0.30571236000E+01  0.30636367691E+01  0.51100000000E-03 0.  1.
    9000002    1    1    2    0    0 -0.21957484466E+00 -0.22316285288E-01  0.11841555162E+00  0.97086423966E+00  0.93800000000E+00 0.  1.
         22    1    1    2    0    0  0.31082389204E+00  0.19990822563E+00  0.82446081570E+00  0.90349899124E+00  0.00000000000E+00 0. -1.
</event>
<event>
 5    1  0.2111786E+001  0.1577874E+01  0.7818608E-02  0.3377734E+00
         11   -1    0    0    0    0  0.00000000000E+00  0.00000000000E+00  0.39999999674E+01  0.40000000000E+01  0.51100000000E-03 0. -1.
    9000002   -1    0    0    0    0 -0.00000000000E+00 -0.00000000000E+00  0.00000000000E+00  0.93800000000E+00  0.93800000000E+00 0. -1.
         11    1    1    2    0    0 -0.11677043877E-01  0.12083790999E+00  0.10296220775E+01  0.10367545695E+01  0.51100000000E-03 0. -1.
    9000002    1    1    2    0    0 -0.20012149853E+00  0.82438844474E-01  0.47664695635E-01  0.96382607376E+00  0.93800000000E+00 0. -1.
         22    1    1    2    0    0  0.21179854241E+00 -0.20327675447E+00  0.29227131942E+01  0.29374193567E+01  0.00000000000E+00 0.  1.
</event>
<event>
 5    1  0.2111786E+001  0.1537821E+01  0.7818608E-02  0.3423744E+00
         11   -1    0    0    0    0  0.00000000000E+00  0.00000000000E+00  0.39999999674E+01  0.40000000000E+01  0.51100000000E-03 0.  1.
    9000002   -1    0    0    0    0 -0.00000000000E+00 -0.00000000000E+00  0.00000000000E+00  0.93800000000E+00  0.93800000000E+00 0.  1.
         11    1    1    2    0    0 -0.12781748531E+00  0.15804814953E+00  0.48827864885E+00  0.52889774736E+00  0.51100000000E-03 0.  1.
    9000002    1    1    2    0    0 -0.59496086393E-01 -0.84617502691E-01  0.53678696698E-01  0.94521177973E+00  0.93800000000E+00 0.  1.
         22    1    1    2    0    0  0.18731357171E+00 -0.73430646842E-01  0.34580426218E+01  0.34638904729E+01  0.00000000000E+00 0.  1.
</event>
<event>
 5    1  0.2111786E+001  0.1551295E+01  0.7818608E-02  0.3407984E+00
         11   -1    0    0    0    0  0.00000000000E+00  0.00000000000E+00  0.39999999674E+01  0.40000000000E+01  0.51100000000E-03 0.  1.
    9000002   -1    0    0    0    0 -0.00000000000E+00 -0.00000000000E+00  0.00000000000E+00  0.93800000000E+00  0.93800000000E+00 0.  1.
         11    1    1    2    0    0  0.27777784813E+00  0.80321262438E-01  0.24718803453E+01  0.24887355707E+01  0.51100000000E-03 0.  1.
    9000002    1    1    2    0    0 -0.58708424619E-01  0.11152565601E-01  0.38334777541E-01  0.94068305715E+00  0.93800000000E+00 0.  1.
         22    1    1    2    0    0 -0.21906942351E+00 -0.91473828040E-01  0.14897848445E+01  0.15085813721E+01  0.00000000000E+00 0.  1.
</event>
<event>
 5    1  0.2111786E+001  0.1535674E+01  0.7818608E-02  0.3426283E+00
         11   -1    0    0    0    0  0.00000000000E+00  0.00000000000E+00  0.39999999674E+01  0.40000000000E+01  0.51100000000E-03 0.  1.
    9000002   -1    0    0    0    0 -0.00000000000E+00 -0.00000000000E+00  0.00000000000E+00  0.93800000000E+00  0.93800000000E+00 0. -1.
         11    1    1    2    0    0  0.44379776205E+00  0.54968261389E-01  0.25772974583E+01  0.26158058822E+01  0.51100000000E-03 0.  1.
    9000002    1    1    2    0    0 -0.25607566269E+00  0.49391615621E-01  0.96093482510E-01  0.97831090871E+00  0.93800000000E+00 0. -1.
         22    1    1    2    0    0 -0.18772209936E+00 -0.10435987701E+00  0.13266090265E+01  0.13438832091E+01  0.00000000000E+00 0. -1.
</event>
<event>
 5    1  0.2111786E+001  0.1570474E+01  0.7818608E-02  0.3386047E+00
         11   -1    0    0    0    0  0.00000000000E+00  0.00000000000E+00  0.39999999674E+01  0.40000000000E+01  0.51100000000E-03 0.  1.
    9000002   -1    0    0    0    0 -0.00000000000E+00 -0.00000000000E+00  0.00000000000E+00  0.93800000000E+00  0.93800000000E+00 0. -1.
         11    1    1    2    0    0 -0.16246933744E+00  0.42342847434E-01  0.27047260001E+01  0.27099321392E+01  0.51100000000E-03 0.  1.
    9000002    1    1    2    0    0 -0.33147192979E-01  0.13578555918E-01  0.22310941882E-01  0.93894882273E+00  0.93800000000E+00 0. -1.
         22    1    1    2    0    0  0.19561653042E+00 -0.55921403352E-01  0.12729630254E+01  0.12891190381E+01  0.00000000000E+00 0.  1.
</event>
<event>
 5    1  0.2111786E+001  0.1537417E+01  0.7818608E-02  0.3424222E+00
         11   -1    0    0    0    0  0.00000000000E+00  0.00000000000E+00  0.39999999674E+01  0.40000000000E+01  0.51100000000E-03 0. -1.
    9000002   -1    0    0    0    0 -0.00000000000E+00 -0.00000000000E+00  0.00000000000E+00  0.93800000000E+00  0.93800000000E+00 0. -1.
         11    1    1    2    0    0 -0.25127297372E+00  0.14136656787E+00  0.13592059173E+01  0.13894472285E+01  0.51100000000E-03 0. -1.
    9000002    1    1    2    0    0 -0.62775313704E-01 -0.16333186447E+00  0.68034659930E-01  0.95660375962E+00  0.93800000000E+00 0. -1.
         22    1    1    2    0    0  0.31404828743E+00  0.21965296605E-01  0.25727593901E+01  0.25919490119E+01  0.00000000000E+00 0. -1.
</event>
<event>
 5    1  0.2111786E+001  0.1554300E+01  0.7818608E-02  0.3404509E+00
         11   -1    0    0    0    0  0.00000000000E+00  0.00000000000E+00  0.39999999674E+01  0.40000000000E+01  0.51100000000E-03 0.  1.
    9000002   -1    0    0    0    0 -0.00000000000E+00 -0.00000000000E+00  0.00000000000E+00  0.93800000000E+00  0.93800000000E+00 0.  1.
         11    1    1    2    0    0 -0.27025451505E+00 -0.17536886366E+00  0.24801059158E+01  0.25009432933E+01  0.51100000000E-03 0.  1.
    9000002    1    1    2    0    0  0.92125396340E-01  0.76034861143E-01  0.43429526065E-01  0.94657197956E+00  0.93800000000E+00 0.  1.
         22    1    1    2    0    0  0.17812911871E+00  0.99334002518E-01  0.14764645254E+01  0.14904847272E+01  0.00000000000E+00 0.  1.
</event>
<event>
 5    1  0.2111786E+001  0.1580634E+01  0.7818608E-02  0.3374655E+00
         11   -1    0    0    0    0  0.00000000000E+00  0.00000000000E+00  0.39999999674E+01  0.40000000000E+01  0.51100000000E-03 0.  1.
    9000002   -1    0    0    0    0 -0.00000000000E+00 -0.00000000000E+00  0.00000000000E+00  0.93800000000E+00  0.93800000000E+00 0.  1.
         11    1    1    2    0    0  0.79396909203E-01  0.39790096671E-01  0.23765644334E+01  0.23782232629E+01  0.51100000000E-03 0.  1.
    9000002    1    1    2    0    0  0.16792005562E-01  0.16107150308E+00  0.31561915020E-01  0.95240020739E+00  0.93800000000E+00 0.  1.
         22    1    1    2    0    0 -0.96188914766E-01 -0.20086159976E+00  0.15918736189E+01  0.16073765297E+01  0.00000000000E+00 0. -1.
</event>
<event>
 5    1  0.2111786E+001  0.1551655E+01  0.7818608E-02  0.3407567E+00
         11   -1    0    0    0    0  0.00000000000E+00  0.00000000000E+00  0.39999999674E+01  0.40000000000E+01  0.51100000000E-03 0.  1.
    9000002   -1    0    0    0    0 -0.00000000000E+00 -0.00000000000E+00  0.00000000000E+00  0.93800000000E+00  0.93800000000E+00 0.  1.
         11    1    1    2    0    0 -0.23523997560E+00 -0.15176709754E+00  0.20544417615E+01  0.20734276719E+01  0.51100000000E-03 0.  1.
    9000002    1    1    2    0    0  0.98167130206E-01 -0.70403087757E-01  0.45686928223E-01  0.94684986964E+00  0.93800000000E+00 0.  1.
         22    1    1    2    0    0  0.13707284539E+00  0.22217018529E+00  0.18998712776E+01  0.19177224585E+01  0.00000000000E+00 0. -1.
</event>
<event>
 5    1  0.2111786E+001  0.1567828E+01  0.7818608E-02  0.3389039E+00
         11   -1    0    0    0    0  0.00000000000E+00  0.00000000000E+00  0.39999999674E+01  0.40000000000E+01  0.51100000000E-03 0.  1.
    9000002   -1    0    0    0    0 -0.00000000000E+00 -0.00000000000E+00  0.00000000000E+00  0.93800000000E+00  0.93800000000E+00 0.  1.
         11    1    1    2    0    0 -0.75557084772E-01  0.17963033050E+00  0.14410813743E+01  0.14541979635E+01  0.51100000000E-03 0.  1.
    9000002    1    1    2    0    0 -0.23870007464E-01  0.24606214181E-01  0.24213071359E-01  0.93893850483E+00  0.93800000000E+00 0.  1.
         22    1    1    2    0    0  0.99427092236E-01 -0.20423654468E+00  0.25347055217E+01  0.25448635317E+01  0.00000000000E+00 0.  1.
</event>
<event>
 5    1  0.2111786E+001  0.1559701E+01  0.7818608E-02  0.3398299E+00
         11   -1    0    0    0    0  0.00000000000E+00  0.00000000000E+00  0.39999999674E+01  0.40000000000E+01  0.51100000000E-03 0. -1.
    9000002   -1    0    0    0    0 -0.00000000000E+00 -0.00000000000E+00  0.00000000000E+00  0.93800000000E+00  0.93800000000E+00 0. -1.
         11    1    1    2    0    0  0.17332858981E+00 -0.39025839905E-02  0.26685508108E+01  0.26741768306E+01  0.51100000000E-03 0. -1.
    9000002    1    1    2    0    0  0.60186722567E-01  0.11429808523E+00  0.40959961884E-01  0.94773847254E+00  0.93800000000E+00 0. -1.
         22    1    1    2    0    0 -0.23351531237E+00 -0.11039550124E+00  0.12904891946E+01  0.13160846968E+01  0.00000000000E+00 0. -1.
</event>
<event>
 5    1  0.2111786E+001  0.1515208E+01  0.7818608E-02  0.3450869E+00
         11   -1    0    0    0    0  0.00000000000E+00  0.00000000000E+00  0.39999999674E+01  0.40000000000E+01  0.51100000000E-03 0.  1.
    9000002   -1    0    0    0    0 -0.00000000000E+00 -0.00000000000E+00  0.00000000000E+00  0.93800000000E+00  0.93800000000E+00 0.  1.
         11    1    1    2    0    0  0.89946108700E-01  0.34930737191E+00  0.19949882042E+01  0.20273342444E+01  0.51100000000E-03 0.  1.
    9000002    1    1    2    0    0  0.73946035399E-01 -0.46721196058E-01  0.69312066000E-01  0.94461582075E+00  0.93800000000E+00 0.  1.
         22    1    1    2    0    0 -0.16389214410E+00 -0.30258617585E+00  0.19356996972E+01  0.19660499349E+01  0.00000000000E+00 0.  1.
</event>
<event>
 5    1  0.2111786E+001  0.1552475E+01  0.7818608E-02  0.3406617E+00
         11   -1    0    0    0    0  0.00000000000E+00  0.00000000000E+00  0.39999999674E+01  0.40000000000E+01  0.51100000000E-03 0. -1.
    9000002   -1    0    0    0    0 -0.00000000000E+00 -0.00000000000E+00  0.00000000000E+00  0.93800000000E+00  0.93800000000E+00 0. -1.
         11    1    1    2    0    0  0.58024746237E-01 -0.26863440885E+00  0.25035344790E+01  0.25185742922E+01  0.51100000000E-03 0. -1.
    9000002    1    1    2    0    0 -0.52868583662E-01  0.27821049605E-01  0.37434122014E-01  0.94064574173E+00  0.93800000000E+00 0. -1.
         22    1    1    2    0    0 -0.51561625748E-02  0.24081335924E+00  0.14590313664E+01  0.14787799661E+01  0.00000000000E+00 0. -1.
</event>
<event>
 5    1  0.2111786E+001  0.1534524E+01  0.7818608E-02  0.3427647E+00
         11   -1    0    0    0    0  0.00000000000E+00  0.00000000000E+00  0.39999999674E+01  0.40000000000E+01  0.51100000000E-03 0. -1.
    9000002   -1    0    0    0    0 -0.00000000000E+00 -0.00000000000E+00  0.00000000000E+00  0.93800000000E+00  0.93800000000E+00 0.  1.
         11    1    1    2    0    0  0.12066887486E+00 -0.16176819994E+00  0.23477056414E+01  0.23563641416E+01  0.51100000000E-03 0. -1.
    9000002    1    1    2    0    0 -0.18082904394E-01 -0.19972605594E+00  0.77156947335E-01  0.96229656727E+00  0.93800000000E+00 0.  1.
         22    1    1    2    0    0 -0.10258597046E+00  0.36149425589E+00  0.15751373786E+01  0.16193392911E+01  0.00000000000E+00 0. -1.
</event>
<event>
 5    1  0.2111786E+001  0.1572845E+01  0.7818608E-02  0.3383374E+00
         11   -1    0    0    0    0  0.00000000000E+00  0.00000000000E+00  0.39999999674E+01  0.40000000000E+01  0.51100000000E-03 0. -1.
    9000002   -1    0    0    0    0 -0.00000000000E+00 -0.00000000000E+00  0.00000000000E+00  0.93800000000E+00  0.93800000000E+00 0. -1.
         11    1    1    2    0    0 -0.11310521953E+00 -0.14513783603E+00  0.16615003043E+01  0.16716582499E+01  0.51100000000E-03 0. -1.
    9000002    1    1    2    0    0 -0.51868109643E-01  0.12023843552E-01  0.21593034098E-01  0.93975801818E+00  0.93800000000E+00 0. -1.
         22    1    1    2    0    0  0.16497332918E+00  0.13311399247E+00  0.23169066290E+01  0.23265837320E+01  0.00000000000E+00 0. -1.
</event>
<event>
 5    1  0.2111786E+001  0.1454514E+01  0.7818608E-02  0.3528174E+00
         11   -1    0    0    0    0  0.00000000000E+00  0.00000000000E+00  0.39999999674E+01  0.40000000000E+01  0.51100000000E-03 0.  1.
    9000002   -1    0    0    0    0 -0.00000000000E+00 -0.00000000000E+00  0.00000000000E+00  0.93800000000E+00  0.93800000000E+00 0. -1.
         11    1    1    2    0    0 -0.57606213581E-01  0.34043567011E+00  0.12938081942E+01  0.13390873107E+01  0.51100000000E-03 0.  1.
    9000002    1    1    2    0    0  0.92454231220E-01  0.27372442483E+00  0.17867834576E+00  0.99761856281E+00  0.93800000000E+00 0. -1.
         22    1    1    2    0    0 -0.34848017638E-01 -0.61416009493E+00  0.25275134274E+01  0.26012941265E+01  0.00000000000E+00 0.  1.
</event>
<event>
 5    1  0.2111786E+001  0.1525485E+01  0.7818608E-02  0.3438434E+00
         11   -1    0    0    0    0  0.00000000000E+00  0.00000000000E+00  0.39999999674E+01  0.40000000000E+01  0.51100000000E-03 0. -1.
    9000002   -1    0    0    0    0 -0.00000000000E+00 -0.00000000000E+00  0.00000000000E+00  0.93800000000E+00  0.93800000000E+00 0. -1.
         11    1    1    2    0    0 -0.17747429845E+00  0.21358462590E+00  0.89700952004E+00  0.93901110706E+00  0.51100000000E-03 0. -1.
    9000002    1    1    2    0    0 -0.49052169460E-01 -0.50679755089E-01  0.59277694961E-01  0.94251387153E+00  0.93800000000E+00 0. -1.
         22    1    1    2    0    0  0.22652646791E+00 -0.16290487081E+00  0.30437127524E+01  0.30564750214E+01  0.00000000000E+00 0. -1.
</event>
<event>
 5    1  0.2111786E+001  0.1549542E+01  0.7818608E-02  0.3410018E+00
         11   -1    0    0    0    0  0.00000000000E+00  0.00000000000E+00  0.39999999674E+01  0.40000000000E+01  0.51100000000E-03 0. -1.
    9000002   -1    0    0    0    0 -0.00000000000E+00 -0.00000000000E+00  0.00000000000E+00  0.93800000000E+00  0.93800000000E+00 0.  1.
         11    1    1    2    0    0 -0.24314229409E+00  0.35809661372E-01  0.63971043429E+00  0.68529570835E+00  0.51100000000E-03 0. -1.
    9000002    1    1    2    0    0  0.24108670630E+00 -0.27684961520E+00  0.13253513529E+00  0.10159616486E+01  0.93800000000E+00 0.  1.
         22    1    1    2    0    0  0.20555877914E-02  0.24103995383E+00  0.32277543978E+01  0.32367426430E+01  0.00000000000E+00 0. -1.
</event>
<event>
 5    1  0.2111786E+001  0.1571022E+01  0.7818608E-02  0.3385428E+00
         11   -1    0    0    0    0  0.00000000000E+00  0.00000000000E+00  0.39999999674E+01  0.40000000000E+01  0.51100000000E-03 0.  1.
    9000002   -1    0    0    0    0 -0.00000000000E+00 -0.00000000000E+00  0.00000000000E+00  0.93800000000E+00  0.93800000000E+00 0. -1.
         11    1    1    2    0    0  0.18689101802E+00  0.12021017590E-01  0.16249918218E+01  0.16357479756E+01  0.51100000000E-03 0.  1.
    9000002    1    1    2    0    0  0.32606277600E-01 -0.39556478426E-01  0.22812378094E-01  0.93967669383E+00  0.93800000000E+00 0. -1.
         22    1    1    2    0    0 -0.21949729562E+00  0.27535460836E-01  0.23521957674E+01  0.23625753306E+01  0.00000000000E+00 0.  1.
</event>
<event>
 5    1  0.2111786E+001  0.1505963E+01  0.7818608E-02  0.3462210E+00
         11   -1    0    0    0    0  0.00000000000E+00  0.00000000000E+00  0.39999999674E+01  0.40000000000E+01  0.51100000000E-03 0. -1.
    9000002   -1    0    0    0    0 -0.00000000000E+00 -0.00000000000E+00  0.00000000000E+00  0.93800000000E+00  0.93800000000E+00 0.  1.
         11    1    1    2    0    0  0.47757826928E+00  0.16009122930E+00  0.18959783123E+01  0.19617451993E+01  0.51100000000E-03 0. -1.
    9000002    1    1    2    0    0 -0.28352021860E+00 -0.26452214786E-01  0.13073256805E+00  0.98894814746E+00  0.93800000000E+00 0.  1.
         22    1    1    2    0    0 -0.19405805067E+00 -0.13363901452E+00  0.19732890870E+01  0.19873066533E+01  0.00000000000E+00 0.  1.
</event>
<event>
 5    1  0.2111786E+001  0.1525659E+01  0.7818608E-02  0.3438226E+00
         11   -1    0    0    0    0  0.00000000000E+00  0.00000000000E+00  0.39999999674E+01  0.40000000000E+01  0.51100000000E-03 0.  1.
    9000002   -1    0    0    0    0 -0.00000000000E+00 -0.00000000000E+00  0.00000000000E+00  0.93800000000E+00  0.93800000000E+00 0.  1.
         11    1    1    2    0    0 -0.18445117756E-01  0.42216193574E+00  0.19212583545E+00  0.46419125382E+00  0.51100000000E-03 0.  1.
    9000002    1    1    2    0    0  0.10852211794E+00 -0.77808181229E+00  0.84191222662E+00  0.14852099360E+01  0.93800000000E+00 0.  1.
         22    1    1    2    0    0 -0.90077000184E-01  0.35591987655E+00  0.29659619053E+01  0.29885988102E+01  0.00000000000E+00 0.  1.
</event>
<event>
 5    1  0.2111786E+001  0.1574486E+01  0.7818608E-02  0.3381530E+00
         11   -1    0    0    0    0  0.00000000000E+00  0.00000000000E+00  0.39999999674E+01  0.40000000000E+01  0.51100000000E-03 0.  1.
    9000002   -1    0    0    0    0 -0.00000000000E+00 -0.00000000000E+00  0.00000000000E+00  0.93800000000E+00  0.93800000000E+00 0.  1.
         11    1    1    2    0    0 -0.13154729523E+00 -0.61216176854E-01  0.92865982963E+00  0.93992630109E+00  0.51100000000E-03 0.  1.
    9000002    1    1    2    0    0 -0.74603502546E-01 -0.74236368401E-02  0.22252695756E-01  0.94125446902E+00  0.93800000000E+00 0.  1.
         22    1    1    2    0    0  0.20615079777E+00  0.68639813694E-01  0.30490874420E+01  0.30568192299E+01  0.00000000000E+00 0.  1.
</event>
<event>
 5    1  0.2111786E+001  0.1552364E+01  0.7818608E-02  0.3406747E+00
         11   -1    0    0    0    0  0.00000000000E+00  0.00000000000E+00  0.39999999674E+01  0.40000000000E+01  0.51100000000E-03 0. -1.
    9000002   -1    0    0    0    0 -0.00000000000E+00 -0.00000000000E+00  0.00000000000E+00  0.93800000000E+00  0.93800000000E+00 0. -1.
         11    1    1    2    0    0  0.28068774770E+00 -0.23692891151E+00  0.24472522737E+01  0.24746645981E+01  0.51100000000E-03 0. -1.
    9000002    1    1    2    0    0 -0.45616129144E+00 -0.22086636789E-01  0.18410649390E+00  0.10593914028E+01  0.93800000000E+00 0. -1.
         22    1    1    2    0    0  0.17547354374E+00  0.25901554830E+00  0.13686411998E+01  0.14039439991E+01  0.00000000000E+00 0. -1.
</event>
<event>
 5    1  0.2111786E+001  0.1563561E+01  0.7818608E-02  0.3393889E+00
         11   -1    0    0    0    0  0.00000000000E+00  0.00000000000E+00  0.39999999674E+01  0.40000000000E+01  0.51100000000E-03 0. -1.
    9000002   -1    0    0    0    0 -0.00000000000E+00 -0.00000000000E+00  0.00000000000E+00  0.93800000000E+00  0.93800000000E+00 0. -1.
         11    1    1    2    0    0  0.23120872993E+00 -0.81612229855E-02  0.25831248335E+01  0.25934645263E+01  0.51100000000E-03 0. -1.
    9000002    1    1    2    0    0 -0.21844442598E-01  0.47429068878E-01  0.28469026988E-01  0.93988360010E+00  0.93800000000E+00 0. -1.
         22    1    1    2    0    0 -0.20936428734E+00 -0.39267845892E-01  0.13884061068E+01  0.14046518736E+01  0.00000000000E+00 0. -1.
</event>
<event>
 5    1  0.2111786E+001  0.1573677E+01  0.7818608E-02  0.3382439E+00
         11   -1    0    0    0    0  0.00000000000E+00  0.00000000000E+00  0.39999999674E+01  0.40000000000E+01  0.51100000000E-03 0. -1.
    9000002   -1    0    0    0    0 -0.00000000000E+00 -0.00000000000E+00  0.00000000000E+00  0.93800000000E+00  0.93800000000E+00 0.  1.
         11    1    1    2    0    0  0.10575299560E-01  0.12476659742E+00  0.37403225714E+00  0.39443495192E+00  0.51100000000E-03 0. -1.
    9000002    1    1    2    0    0 -0.27276457137E+00 -0.10998425574E+00  0.78244011559E-01  0.98613547409E+00  0.93800000000E+00 0.  1.
         22    1    1    2    0    0  0.26218927181E+00 -0.14782341680E-01  0.35477236987E+01  0.35574295740E+01  0.00000000000E+00 0. -1.
</event>
<event>
 5    1  0.2111786E+001  0.1567935E+01  0.7818608E-02  0.3388918E+00
         11   -1    0    0    0    0  0.00000000000E+00  0.00000000000E+00  0.39999999674E+01  0.40000000000E+01  0.51100000000E-03 0.  1.
    9000002   -1    0    0    0    0 -0.00000000000E+00 -0.00000000000E+00  0.00000000000E+00  0.93800000000E+00  0.93800000000E+00 0. -1.
         11    1    1    2    0    0  0.68374275981E-01  0.16202607638E+00  0.13192319346E+01  0.13309021938E+01  0.51100000000E-03 0.  1.
    9000002    1    1    2    0    0 -0.10426527420E+00  0.11182397260E+00  0.39259411102E-01  0.95118933426E+00  0.93800000000E+00 0. -1.
         22    1    1    2    0    0  0.35890998215E-01 -0.27385004898E+00  0.26415086217E+01  0.26559084720E+01  0.00000000000E+00 0.  1.
</event>
<event>
 5    1  0.2111786E+001  0.1535358E+01  0.7818608E-02  0.3426658E+00
         11   -1    0    0    0    0  0.00000000000E+00  0.00000000000E+00  0.39999999674E+01  0.40000000000E+01  0.51100000000E-03 0. -1.
    9000002   -1    0    0    0    0 -0.00000000000E+00 -0.00000000000E+00  0.00000000000E+00  0.93800000000E+00  0.93800000000E+00 0.  1.
         11    1    1    2    0    0  0.23682259980E+00 -0.26875064828E-01  0.86961105860E+00  0.90168224295E+00  0.51100000000E-03 0. -1.
    9000002    1    1    2    0    0  0.72337070672E-01  0.15410477601E-01  0.51920084856E-01  0.94234273480E+00  0.93800000000E+00 0.  1.
         22    1    1    2    0    0 -0.30915967047E+00  0.11464587228E-01  0.30784688239E+01  0.30939750223E+01  0.00000000000E+00 0. -1.
</event>
<event>
 5    1  0.2111786E+001  0.1577151E+01  0.7818608E-02  0.3378542E+00
         11   -1    0    0    0    0  0.00000000000E+00  0.00000000000E+00  0.39999999674E+01  0.40000000000E+01  0.51100000000E-03 0.  1.
    9000002   -1    0    0    0    0 -0.00000000000E+00 -0.00000000000E+00  0.00000000000E+00  0.93800000000E+00  0.93800000000E+00 0.  1.
         11    1    1    2    0    0  0.51278659969E-01  0.15334306070E+00  0.15179183555E+01  0.15265058107E+01  0.51100000000E-03 0.  1.
    9000002    1    1    2    0    0 -0.16143543160E+00  0.57218494686E-01  0.36304699762E-01  0.95419986687E+00  0.93800000000E+00 0.  1.
         22    1    1    2    0    0  0.11015677163E+00 -0.21056155539E+00  0.24457769121E+01  0.24572943224E+01  0.00000000000E+00 0.  1.
</event>
<event>
 5    1  0.2111786E+001  0.1565560E+01  0.7818608E-02  0.3391613E+00
         11   -1    0    0    0    0  0.00000000000E+00  0.00000000000E+00  0.39999999674E+01  0.40000000000E+01  0.51100000000E-03 0. -1.
    9000002   -1    0    0    0    0 -0.00000000000E+00 -0.00000000000E+00  0.00000000000E+00  0.93800000000E+00  0.93800000000E+00 0. -1.
         11    1    1    2    0    0  0.15953139100E+00 -0.12157760458E+00  0.13011291302E+01  0.13164986340E+01  0.51100000000E-03 0. -1.
    9000002    1    1    2    0    0 -0.26214008679E-01 -0.68993824849E-01  0.28820026176E-01  0.94134048889E+00  0.93800000000E+00 0. -1.
         22    1    1    2    0    0 -0.13331738233E+00  0.19057142943E+00  0.26700508110E+01  0.26801608771E+01  0.00000000000E+00 0.  1.
</event>
<event>
 5    1  0.2111786E+001  0.1431565E+01  0.7818608E-02  0.3559263E+00
         11   -1    0    0    0    0  0.00000000000E+00  0.00000000000E+00  0.39999999674E+01  0.40000000000E+01  0.51100000000E-03 0. -1.
    9000002   -1    0    0    0    0 -0.00000000000E+00 -0.00000000000E+00  0.00000000000E+00  0.93800000000E+00  0.93800000000E+00 0. -1.
         11    1    1    2    0    0 -0.39168599044E+00  0.40033311406E+00  0.26749428302E+01  0.27329478450E+01  0.51100000000E-03 0. -1.
    9000002    1    1    2    0    0  0.45101169336E-01 -0.17638201120E+00  0.15965326557E+00  0.96875068751E+00  0.93800000000E+00 0. -1.
         22    1    1    2    0    0  0.34658482111E+00 -0.22395110286E+00  0.11654038716E+01  0.12363014675E+01  0.00000000000E+00 0. -1.
</event>
<event>
 5    1  0.2111786E+001  0.1574669E+01  0.7818608E-02  0.3381324E+00
         11   -1    0    0    0    0  0.00000000000E+00  0.00000000000E+00  0.39999999674E+01  0.40000000000E+01  0.51100000000E-03 0. -1.
    9000002   -1    0    0    0    0 -0.00000000000E+00 -0.00000000000E+00  0.00000000000E+00  0.93800000000E+00  0.93800000000E+00 0. -1.
         11    1    1    2    0    0  0.86540485415E-01 -0.18410872914E+00  0.27524000784E+01  0.27599079210E+01  0.51100000000E-03 0. -1.
    9000002    1    1    2    0    0  0.12015979397E+00  0.20669954294E+00  0.57212069139E-01  0.96968051336E+00  0.93800000000E+00 0. -1.
         22    1    1    2    0    0 -0.20670027938E+00 -0.22590813806E-01  0.11903878198E+01  0.12084115656E+01  0.00000000000E+00 0. -1.
</event>
<event>
 5    1  0.2111786E+001  0.1517075E+01  0.7818608E-02  0.3448597E+00
         11   -1    0    0    0    0  0.00000000000E+00  0.00000000000E+00  0.39999999674E+01  0.40000000000E+01  0.51100000000E-03 0. -1.
    9000002   -1    0    0    0    0 -0.00000000000E+00 -0.00000000000E+00  0.00000000000E+00  0.93800000000E+00  0.93800000000E+00 0. -1.
         11    1    1    2    0    0  0.34874780284E+00 -0.26249528853E+00  0.23536392387E+01  0.23937724900E+01  0.51100000000E-03 0. -1.
    9000002    1    1    2    0    0 -0.32273752428E+00 -0.63574761818E-01  0.14126021212E+00  0.10039918861E+01  0.93800000000E+00 0. -1.
         22    1    1    2    0    0 -0.26010278558E-01  0.32607005034E+00  0.15051005165E+01  0.15402356239E+01  0.00000000000E+00 0. -1.
</event>
<event>
 5    1  0.2111786E+001  0.1589405E+01  0.7818608E-02  0.3364943E+00
         11   -1    0    0    0    0  0.00000000000E+00  0.00000000000E+00  0.39999999674E+01  0.40000000000E+01  0.51100000000E-03 0. -1.
    9000002   -1    0    0    0    0 -0.00000000000E+00 -0.00000000000E+00  0.00000000000E+00  0.93800000000E+00  0.93800000000E+00 0.  1.
         11    1    1    2    0    0  0.20245527632E-01 -0.14528835144E+00  0.86758725016E+00  0.87990140597E+00  0.51100000000E-03 0. -1.
    9000002    1    1    2    0    0 -0.29820336764E+00  0.24529744834E+00  0.10890697017E+00  0.10201964589E+01  0.93800000000E+00 0.  1.
         22    1    1    2    0    0  0.27795784000E+00 -0.10000909690E+00  0.30235057470E+01  0.30379021351E+01  0.00000000000E+00 0. -1.
</event>
<event>
 5    1  0.2111786E+001  0.1498927E+01  0.7818608E-02  0.3470942E+00
         11   -1    0    0    0    0  0.00000000000E+00  0.00000000000E+00  0.39999999674E+01  0.40000000000E+01  0.51100000000E-03 0. -1.
    9000002   -1    0    0    0    0 -0.00000000000E+00 -0.00000000000E+00  0.00000000000E+00  0.93800000000E+00  0.93800000000E+00 0.  1.
         11    1    1    2    0    0 -0.33370622017E+00  0.17093765850E+00  0.10524550725E+01  0.11172472713E+01  0.51100000000E-03 0. -1.
    9000002    1    1    2    0    0  0.87592554921E-01 -0.10240493419E+00  0.90093619798E-01  0.95190340190E+00  0.93800000000E+00 0.  1.
         22    1    1    2    0    0  0.24611366525E+00 -0.68532724306E-01  0.28574512750E+01  0.28688493268E+01  0.00000000000E+00 0. -1.
</event>
<event>
 5    1  0.2111786E+001  0.1582377E+01  0.7818608E-02  0.3372716E+00
         11   -1    0    0    0    0  0.00000000000E+00  0.00000000000E+00  0.39999999674E+01  0.40000000000E+01  0.51100000000E-03 0. -1.
    9000002   -1    0    0    0    0 -0.00000000000E+00 -0.00000000000E+00  0.00000000000E+00  0.93800000000E+00  0.93800000000E+00 0.  1.
         11    1    1    2    0    0 -0.11180022901E+00 -0.46119157421E-01  0.15454379966E+01  0.15501629367E+01  0.51100000000E-03 0. -1.
    9000002    1    1    2    0    0 -0.83688502272E-01 -0.21709869458E-01  0.17635317914E-01  0.94214122523E+00  0.93800000000E+00 0.  1.
         22    1    1    2    0    0  0.19548873129E+00  0.67829026879E-01  0.24369266529E+01  0.24456958381E+01  0.00000000000E+00 0. -1.
</event>
<event>
 5    1  0.2111786E+001  0.1572480E+01  0.7818608E-02  0.3383785E+00
         11   -1    0    0    0    0  0.00000000000E+00  0.00000000000E+00  0.39999999674E+01  0.40000000000E+01  0.51100000000E-03 0. -1.
    9000002   -1    0    0    0    0 -0.00000000000E+00 -0.00000000000E+00  0.00000000000E+00  0.93800000000E+00  0.93800000000E+00 0.  1.
         11    1    1    2    0    0  0.22450079322E+00  0.32947544972E+00  0.30914987850E+01  0.31171011656E+01  0.51100000000E-03 0. -1.
    9000002    1    1    2    0    0 -0.13913282168E+00 -0.53217246859E+00  0.23512872613E+00  0.11125174139E+01  0.93800000000E+00 0.  1.
         22    1    1    2    0    0 -0.85367971540E-01  0.20269701887E+00  0.67337245625E+00  0.70838142046E+00  0.00000000000E+00 0.  1.
</event>
<event>
 5    1  0.2111786E+001  0.1554556E+01  0.7818608E-02  0.3404213E+00
         11   -1    0    0    0    0  0.00000000000E+00  0.00000000000E+00  0.39999999674E+01  0.40000000000E+01  0.51100000000E-03 0.  1.
    9000002   -1    0    0    0    0 -0.00000000000E+00 -0.00000000000E+00  0.00000000000E+00  0.93800000000E+00  0.93800000000E+00 0. -1.
         11    1    1    2    0    0 -0.13201908784E+00 -0.24096122582E+00  0.17583972064E+01  0.17797337858E+01  0.51100000000E-03 0.  1.
    9000002    1    1    2    0    0 -0.17052158522E-01  0.64705966250E-01  0.36477401503E-01  0.94109098338E+00  0.93800000000E+00 0. -1.
         22    1    1    2    0    0  0.14907124636E+00  0.17625525957E+00  0.22051253595E+01  0.22171752308E+01  0.00000000000E+00 0. -1.
</event>
<event>
 5    1  0.2111786E+001  0.1570478E+01  0.7818608E-02  0.3386042E+00
         11   -1    0    0    0    0  0.00000000000E+00  0.00000000000E+00  0.39999999674E+01  0.40000000000E+01  0.51100000000E-03 0. -1.
    9000002   -1    0    0    0    0 -0.00000000000E+00 -0.00000000000E+00  0.00000000000E+00  0.93800000000E+00  0.93800000000E+00 0.  1.
         11    1    1    2    0    0 -0.13285536730E+00 -0.15074552377E+00  0.20029054921E+01  0.20129593719E+01  0.51100000000E-03 0. -1.
    9000002    1    1    2    0    0 -0.54710249826E-01  0.43966680454E-01  0.24776334530E-01  0.94094853588E+00  0.93800000000E+00 0.  1.
         22    1    1    2    0    0  0.18756561713E+00  0.10677884331E+00  0.19723181408E+01  0.19840920922E+01  0.00000000000E+00 0. -1.
</event>
<event>
 5    1  0.2111786E+001  0.1573135E+01  0.7818608E-02  0.3383048E+00
         11   -1    0    0    0    0  0.00000000000E+00  0.00000000000E+00  0.39999999674E+01  0.40000000000E+01  0.51100000000E-03 0. -1.
    9000002   -1    0    0    0    0 -0.00000000000E+00 -0.00000000000E+00  0.00000000000E+00  0.93800000000E+00  0.93800000000E+00 0.  1.
         11    1    1    2    0    0 -0.15929362157E+00 -0.39527828654E-01  0.20517219791E+01  0.20582760378E+01  0.51100000000E-03 0. -1.
    9000002    1    1    2    0    0 -0.65493225091E-01  0.11685823653E-01  0.22452642755E-01  0.94062428322E+00  0.93800000000E+00 0.  1.
         22    1    1    2    0    0  0.22478684666E+00  0.27842005002E-01  0.19258253455E+01  0.19390996790E+01  0.00000000000E+00 0. -1.
</event>
<event>
 5    1  0.2111786E+001  0.1563443E+01  0.7818608E-02  0.3394023E+00
         11   -1    0    0    0    0  0.00000000000E+00  0.00000000000E+00  0.39999999674E+01  0.40000000000E+01  0.51100000000E-03 0. -1.
    9000002   -1    0    0    0    0 -0.00000000000E+00 -0.00000000000E+00  0.00000000000E+00  0.93800000000E+00  0.93800000000E+00 0.  1.
         11    1    1    2    0    0 -0.77224440384E-01  0.65202675410E-01  0.22381075587E+00  0.24557385577E+00  0.51100000000E-03 0. -1.
    9000002    1    1    2    0    0 -0.13652994806E+00  0.17112680000E-01  0.39644436233E-01  0.94886719400E+00  0.93800000000E+00 0.  1.
         22    1    1    2    0    0  0.21375438844E+00 -0.82315355410E-01  0.37365447753E+01  0.37435589502E+01  0.00000000000E+00 0. -1.
</event>
<event>
 5    1  0.2111786E+001  0.1579416E+01  0.7818608E-02  0.3376012E+00
         11   -1    0    0    0    0  0.00000000000E+00  0.00000000000E+00  0.39999999674E+01  0.40000000000E+01  0.51100000000E-03 0. -1.
    9000002   -1    0    0    0    0 -0.00000000000E+00 -0.00000000000E+00  0.00000000000E+00  0.93800000000E+00  0.93800000000E+00 0. -1.
         11    1    1    2    0    0 -0.50610023057E-02  0.63133049748E-01  0.20348356266E+00  0.21311315565E+00  0.51100000000E-03 0. -1.
    9000002    1    1    2    0    0 -0.27675020578E+00  0.20934926041E+00  0.97182103803E-01  0.10048413559E+01  0.93800000000E+00 0. -1.
         22    1    1    2    0    0  0.28181120809E+00 -0.27248231016E+00  0.36993343009E+01  0.37200454884E+01  0.00000000000E+00 0. -1.
</event>
<event>
 5    1  0.2111786E+001  0.1562014E+01  0.7818608E-02  0.3395652E+00
         11   -1    0    0    0    0  0.00000000000E+00  0.00000000000E+00  0.39999999674E+01  0.40000000000E+01  0.51100000000E-03 0.  1.
    9000002   -1    0    0    0    0 -0.00000000000E+00 -0.00000000000E+00  0.00000000000E+00  0.93800000000E+00  0.93800000000E+00 0. -1.
         11    1    1    2    0    0  0.19854603254E+00 -0.88606259966E-01  0.17813596077E+01  0.17945790341E+01  0.51100000000E-03 0.  1.
    9000002    1    1    2    0    0  0.21740919219E-01 -0.31572803926E-01  0.28773793685E-01  0.93922385017E+00  0.93800000000E+00 0. -1.
         22    1    1    2    0    0 -0.22028695176E+00  0.12017906389E+00  0.21898665660E+01  0.22041971158E+01  0.00000000000E+00 0.  1.
</event>
<event>
 5    1  0.2111786E+001  0.1572328E+01  0.7818608E-02  0.3383957E+00
         11   -1    0    0    0    0  0.00000000000E+00  0.00000000000E+00  0.39999999674E+01  0.40000000000E+01  0.51100000000E-03 0.  1.
    9000002   -1    0    0    0    0 -0.00000000000E+00 -0.00000000000E+00  0.00000000000E+00  0.93800000000E+00  0.93800000000E+00 0. -1.
         11    1    1    2    0    0 -0.25738163929E-01 -0.84557601925E-01  0.13805533244E+01  0.13833799853E+01  0.51100000000E-03 0.  1.
    9000002    1    1    2    0    0 -0.25373616894E+00 -0.18966112784E+00  0.88978141323E-01  0.99403948437E+00  0.93800000000E+00 0. -1.
         22    1    1    2    0    0  0.27947433287E+00  0.27421872977E+00  0.25304685016E+01  0.25605805303E+01  0.00000000000E+00 0.  1.
</event>
<event>
 5    1  0.2111786E+001  0.1576236E+01  0.7818608E-02  0.3379567E+00
         11   -1    0    0    0    0  0.00000000000E+00  0.00000000000E+00  0.39999999674E+01  0.40000000000E+01  0.51100000000E-03 0. -1.
    9000002   -1    0    0    0    0 -0.00000000000E+00 -0.00000000000E+00  0.00000000000E+00  0.93800000000E+00  0.93800000000E+00 0. -1.
         11    1    1    2    0    0  0.10117585448E+00 -0.93706289051E-01  0.77560215353E+00  0.78776670647E+00  0.51100000000E-03 0. -1.
    9000002    1    1    2    0    0 -0.53277057847E-01 -0.10758191365E+00  0.26885355574E-01  0.94603336906E+00  0.93800000000E+00 0. -1.
         22    1    1    2    0    0 -0.47898796629E-01  0.20128820270E+00  0.31975124583E+01  0.32041999245E+01  0.00000000000E+00 0. -1.
</event>
<event>
 5    1  0.2111786E+001  0.1539079E+01  0.7818608E-02  0.3422260E+00
         11   -1    0    0    0    0  0.00000000000E+00  0.00000000000E+00  0.39999999674E+01  0.40000000000E+01  0.51100000000E-03 0. -1.
    9000002   -1    0    0    0    0 -0.00000000000E+00 -0.00000000000E+00  0.00000000000E+00  0.93800000000E+00  0.93800000000E+00 0.  1.
         11    1    1    2    0    0  0.21817309213E+00 -0.13649761458E+00  0.17238087428E+01  0.17429136353E+01  0.51100000000E-03 0. -1.
    9000002    1    1    2    0    0  0.82190368241E-01 -0.25346285559E-01  0.50385164798E-01  0.94328169475E+00  0.93800000000E+00 0.  1.
         22    1    1    2    0    0 -0.30036346037E+00  0.16184390014E+00  0.22258060597E+01  0.22518046700E+01  0.00000000000E+00 0. -1.
</event>
<event>
 5    1  0.2111786E+001  0.1552007E+01  0.7818608E-02  0.3407159E+00
         11   -1    0    0    0    0  0.00000000000E+00  0.00000000000E+00  0.39999999674E+01  0.40000000000E+01  0.51100000000E-03 0. -1.
    9000002   -1    0    0    0    0 -0.00000000000E+00 -0.00000000000E+00  0.00000000000E+00  0.93800000000E+00  0.93800000000E+00 0.  1.
         11    1    1    2    0    0 -0.24401490538E+00 -0.15545107461E+00  0.25056926215E+01  0.25223409930E+01  0.51100000000E-03 0. -1.
    9000002    1    1    2    0    0  0.54614149274E-01  0.20372589718E-01  0.37672196172E-01  0.94056416160E+00  0.93800000000E+00 0.  1.
         22    1    1    2    0    0  0.18940075611E+00  0.13507848489E+00  0.14566351497E+01  0.14750948454E+01  0.00000000000E+00 0. -1.
</event>
<event>
 5    1  0.2111786E+001  0.1596551E+01  0.7818608E-02  0.3357115E+00
         11   -1    0    0    0    0  0.00000000000E+00  0.00000000000E+00  0.39999999674E+01  0.40000000000E+01  0.51100000000E-03 0.  1.
    9000002   -1    0    0    0    0 -0.00000000000E+00 -0.00000000000E+00  0.00000000000E+00  0.93800000000E+00  0.93800000000E+00 0.  1.
         11    1    1    2    0    0 -0.29268214625E-01  0.29695320465E-02  0.73531992737E+00  0.73590835246E+00  0.51100000000E-03 0.  1.
    9000002    1    1    2    0    0  0.61579046582E-02  0.22176266419E+00  0.34993127175E-01  0.96451289155E+00  0.93800000000E+00 0.  1.
         22    1    1    2    0    0  0.23110309966E-01 -0.22473219623E+00  0.32296869128E+01  0.32375787560E+01  0.00000000000E+00 0.  1.
</event>
<event>
 5    1  0.2111786E+001  0.1573992E+01  0.7818608E-02  0.3382085E+00
         11   -1    0    0    0    0  0.00000000000E+00  0.00000000000E+00  0.39999999674E+01  0.40000000000E+01  0.51100000000E-03 0.  1.
    9000002   -1    0    0    0    0 -0.00000000000E+00 -0.00000000000E+00  0.00000000000E+00  0.93800000000E+00  0.93800000000E+00 0.  1.
         11    1    1    2    0    0 -0.68805293964E-01  0.13192101644E+00  0.95776362561E+00  0.96925164262E+00  0.51100000000E-03 0.  1.
    9000002    1    1    2    0    0 -0.22492542724E-01  0.64308530190E-01  0.21959768275E-01  0.94072723621E+00  0.93800000000E+00 0.  1.
         22    1    1    2    0    0  0.91297836688E-01 -0.19622954663E+00  0.30202765735E+01  0.30280211212E+01  0.00000000000E+00 0. -1.
</event>
<event>
 5    1  0.2111786E+001  0.1448049E+01  0.7818608E-02  0.3536823E+00
         11   -1    0    0    0    0  0.00000000000E+00  0.00000000000E+00  0.39999999674E+01  0.40000000000E+01  0.51100000000E-03 0. -1.
    9000002   -1    0    0    0    0 -0.00000000000E+00 -0.00000000000E+00  0.00000000000E+00  0.93800000000E+00  0.93800000000E+00 0. -1.
         11    1    1    2    0    0  0.39898330829E+00  0.32927025575E+00  0.21962523503E+01  0.22563535249E+01  0.51100000000E-03 0. -1.
    9000002    1    1    2    0    0 -0.27560109544E+00  0.11590242049E+00  0.18945928228E+00  0.10025607984E+01  0.93800000000E+00 0. -1.
         22    1    1    2    0    0 -0.12338221285E+00 -0.44517267624E+00  0.16142883347E+01  0.16790856767E+01  0.00000000000E+00 0. -1.
</event>
<event>
 5    1  0.2111786E+001  0.1569086E+01  0.7818608E-02  0.3387616E+00
         11   -1    0    0    0    0  0.00000000000E+00  0.00000000000E+00  0.39999999674E+01  0.40000000000E+01  0.51100000000E-03 0.  1.
    9000002   -1    0    0    0    0 -0.00000000000E+00 -0.00000000000E+00  0.00000000000E+00  0.93800000000E+00  0.93800000000E+00 0. -1.
         11    1    1    2    0    0 -0.12096023141E+00 -0.25235516170E-01  0.26302717426E+01  0.26331725941E+01  0.51100000000E-03 0.  1.
    9000002    1    1    2    0    0 -0.94821936923E-01 -0.78395471509E-01  0.32762929538E-01  0.94660153139E+00  0.93800000000E+00 0. -1.
         22    1    1    2    0    0  0.21578216833E+00  0.10363098768E+00  0.13369652952E+01  0.13582258745E+01  0.00000000000E+00 0.  1.
</event>
<event>
 5    1  0.2111786E+001  0.1492594E+01  0.7818608E-02  0.3478879E+00
         11   -1    0    0    0    0  0.00000000000E+00  0.00000000000E+00  0.39999999674E+01  0.40000000000E+01  0.51100000000E-03 0. -1.
    9000002   -1    0    0    0    0 -0.00000000000E+00 -0.00000000000E+00  0.00000000000E+00  0.93800000000E+00  0.93800000000E+00 0. -1.
         11    1    1    2    0    0 -0.31749180409E+00  0.31972726400E+00  0.14458892511E+01  0.15144710485E+01  0.51100000000E-03 0. -1.
    9000002    1    1    2    0    0 -0.16235562834E+00 -0.65904793491E+00  0.45552847337E+00  0.12442080697E+01  0.93800000000E+00 0. -1.
         22    1    1    2    0    0  0.47984743242E+00  0.33932067090E+00  0.20985822428E+01  0.21793208818E+01  0.00000000000E+00 0.  1.
</event>
<event>
 5    1  0.2111786E+001  0.1541630E+01  0.7818608E-02  0.3419260E+00
         11   -1    0    0    0    0  0.00000000000E+00  0.00000000000E+00  0.39999999674E+01  0.40000000000E+01  0.51100000000E-03 0. -1.
    9000002   -1    0    0    0    0 -0.00000000000E+00 -0.00000000000E+00  0.00000000000E+00  0.93800000000E+00  0.93800000000E+00 0. -1.
         11    1    1    2    0    0  0.10109703199E+00 -0.24614240195E+00  0.91898153980E+00  0.95673090445E+00  0.51100000000E-03 0. -1.
    9000002    1    1    2    0    0  0.10487456248E+00  0.14433858877E+00  0.65554764697E-01  0.95706516457E+00  0.93800000000E+00 0. -1.
         22    1    1    2    0    0 -0.20597159446E+00  0.10180381317E+00  0.30154636629E+01  0.30242039310E+01  0.00000000000E+00 0. -1.
</event>
<event>
 5    1  0.2111786E+001  0.1523562E+01  0.7818608E-02  0.3440748E+00
         11   -1    0    0    0    0  0.00000000000E+00  0.00000000000E+00  0.39999999674E+01  0.40000000000E+01  0.51100000000E-03 0. -1.
    9000002   -1    0    0    0    0 -0.00000000000E+00 -0.00000000000E+00  0.00000000000E+00  0.93800000000E+00  0.93800000000E+00 0.  1.
         11    1    1    2    0    0 -0.24090125271E-01  0.33457614154E+00  0.16876446390E+01  0.17206586580E+01  0.51100000000E-03 0. -1.
    9000002    1    1    2    0    0 -0.55792563217E-01 -0.22057182373E-01  0.59810455302E-01  0.94181772120E+00  0.93800000000E+00 0.  1.
         22    1    1    2    0    0  0.79882688488E-01 -0.31251895917E+00  0.22525448730E+01  0.22755236208E+01  0.00000000000E+00 0. -1.
</event>
<event>
 5    1  0.2111786E+001  0.1477706E+01  0.7818608E-02  0.3497823E+00
         11   -1    0    0    0    0  0.00000000000E+00  0.00000000000E+00  0.39999999674E+01  0.40000000000E+01  0.51100000000E-03 0.  1.
    9000002   -1    0    0    0    0 -0.00000000000E+00 -0.00000000000E+00  0.00000000000E+00  0.93800000000E+00  0.93800000000E+00 0. -1.
         11    1    1    2    0    0  0.35228103772E+00  0.31240899745E+00  0.21552035140E+01  0.22060380230E+01  0.51100000000E-03 0.  1.
    9000002    1    1    2    0    0  0.28272623866E-01 -0.20697286498E+00  0.12696914290E+00  0.96933083689E+00  0.93800000000E+00 0. -1.
         22    1    1    2    0    0 -0.38055366158E+00 -0.10543613247E+00  0.17178273105E+01  0.17626311401E+01  0.00000000000E+00 0. -1.
</event>
<event>
 5    1  0.2111786E+001  0.1538158E+01  0.7818608E-02  0.3423347E+00
         11   -1    0    0    0    0  0.00000000000E+00  0.00000000000E+00  0.39999999674E+01  0.40000000000E+01  0.51100000000E-03 0. -1.
    9000002   -1    0    0    0    0 -0.00000000000E+00 -0.00000000000E+00  0.00000000000E+00  0.93800000000E+00  0.93800000000E+00 0. -1.
         11    1    1    2    0    0 -0.38136309166E+00  0.81912011295E-01  0.22198865634E+01  0.22538952950E+01  0.51100000000E-03 0. -1.
    9000002    1    1    2    0    0  0.15577155556E+00 -0.76060762976E-01  0.67045645797E-01  0.95623696635E+00  0.93800000000E+00 0. -1.
         22    1    1    2    0    0  0.22559153610E+00 -0.58512483197E-02  0.17130677582E+01  0.17278677387E+01  0.00000000000E+00 0. -1.
</event>
<event>
 5    1  0.2111786E+001  0.1570949E+01  0.7818608E-02  0.3385510E+00
         11   -1    0    0    0    0  0.00000000000E+00  0.00000000000E+00  0.39999999674E+01  0.40000000000E+01  0.51100000000E-03 0. -1.
    9000002   -1    0    0    0    0 -0.00000000000E+00 -0.00000000000E+00  0.00000000000E+00  0.93800000000E+00  0.93800000000E+00 0. -1.
         11    1    1    2    0    0 -0.27936531129E+00  0.23664877107E+00  0.12351912095E+01  0.12883109885E+01  0.51100000000E-03 0. -1.
    9000002    1    1    2    0    0  0.55348069175E+00 -0.20421916563E+00  0.27114328447E+00  0.11407931559E+01  0.93800000000E+00 0. -1.
         22    1    1    2    0    0 -0.27411538047E+00 -0.32429605433E-01  0.24936654734E+01  0.25088958557E+01  0.00000000000E+00 0. -1.
</event>
<event>
 5    1  0.2111786E+001  0.1579282E+01  0.7818608E-02  0.3376162E+00
         11   -1    0    0    0    0  0.00000000000E+00  0.00000000000E+00  0.39999999674E+01  0.40000000000E+01  0.51100000000E-03 0.  1.
    9000002   -1    0    0    0    0 -0.00000000000E+00 -0.00000000000E+00  0.00000000000E+00  0.93800000000E+00  0.93800000000E+00 0. -1.
         11    1    1    2    0    0  0.58672091283E+00 -0.37404872606E-01  0.19434011644E+01  0.20303814669E+01  0.51100000000E-03 0.  1.
    9000002    1    1    2    0    0 -0.76443954507E+00  0.16390592870E+00  0.47369999542E+00  0.13097590073E+01  0.93800000000E+00 0. -1.
         22    1    1    2    0    0  0.17771863224E+00 -0.12650105609E+00  0.15828988075E+01  0.15978595258E+01  0.00000000000E+00 0.  1.
</event>
<event>
 5    1  0.2111786E+001  0.1530756E+01  0.7818608E-02  0.3432127E+00
         11   -1    0    0    0    0  0.00000000000E+00  0.00000000000E+00  0.39999999674E+01  0.40000000000E+01  0.51100000000E-03 0.  1.
    9000002   -1    0    0    0    0 -0.00000000000E+00 -0.00000000000E+00  0.00000000000E+00  0.93800000000E+00  0.93800000000E+00 0. -1.
         11    1    1    2    0    0 -0.65148299206E-01 -0.16295871725E+00  0.19317323841E+00  0.26099043196E+00  0.51100000000E-03 0.  1.
    9000002    1    1    2    0    0  0.25570306755E-01  0.47051650001E+00  0.21459326737E+00  0.10714167666E+01  0.93800000000E+00 0. -1.
         22    1    1    2    0    0  0.39577992451E-01 -0.30755778277E+00  0.35922334616E+01  0.36055928014E+01  0.00000000000E+00 0.  1.
</event>
<event>
 5    1  0.2111786E+001  0.1552596E+01  0.7818608E-02  0.3406478E+00
         11   -1    0    0    0    0  0.00000000000E+00  0.00000000000E+00  0.39999999674E+01  0.40000000000E+01  0.51100000000E-03 0. -1.
    9000002   -1    0    0    0    0 -0.00000000000E+00 -0.00000000000E+00  0.00000000000E+00  0.93800000000E+00  0.93800000000E+00 0. -1.
         11    1    1    2    0    0 -0.20704031211E+00  0.12500356778E+00  0.30098191175E+01  0.30195203202E+01  0.51100000000E-03 0. -1.
    9000002    1    1    2    0    0  0.45678029682E-01  0.23387390252E-01  0.36696944606E-01  0.94011920423E+00  0.93800000000E+00 0. -1.
         22    1    1    2    0    0  0.16136228243E+00 -0.14839095803E+00  0.95348390523E+00  0.97836047556E+00  0.00000000000E+00 0.  1.
</event>
<event>
 5    1  0.3521017E+001  0.1572517E+01  0.7818608E-02  0.3383744E+00
         11   -1    0    0    0    0  0.00000000000E+00  0.00000000000E+00  0.39999999674E+01  0.40000000000E+01  0.51100000000E-03 0. -1.
    9000002   -1    0    0    0    0 -0.00000000000E+00 -0.00000000000E+00  0.00000000000E+00  0.93800000000E+00  0.93800000000E+00 0.  1.
         11    1    1    2    0    0  0.25388804304E-01 -0.18465471465E+00  0.15784929200E+01  0.15894596926E+01  0.51100000000E-03 0. -1.
    9000002    1    1    2    0    0 -0.16733145602E-01 -0.21367210555E-01  0.20419461755E-01  0.93861467614E+00  0.93800000000E+00 0.  1.
         22    1    1    2    0    0 -0.86556587025E-02  0.20602192521E+00  0.24010875856E+01  0.24099256312E+01  0.00000000000E+00 0. -1.
</event>
<event>
 5    1  0.2111786E+001  0.1551150E+01  0.7818608E-02  0.3408152E+00
         11   -1    0    0    0    0  0.00000000000E+00  0.00000000000E+00  0.39999999674E+01  0.40000000000E+01  0.51100000000E-03 0. -1.
    9000002   -1    0    0    0    0 -0.00000000000E+00 -0.00000000000E+00  0.00000000000E+00  0.93800000000E+00  0.93800000000E+00 0. -1.
         11    1    1    2    0    0  0.23598913020E+00 -0.12304439681E+00  0.28263044016E+01  0.28388074300E+01  0.51100000000E-03 0. -1.
    9000002    1    1    2    0    0  0.42879495326E-02  0.15035728695E+00  0.51653743534E-01  0.95138730781E+00  0.93800000000E+00 0. -1.
         22    1    1    2    0    0 -0.24027707973E+00 -0.27312890141E-01  0.11220418223E+01  0.11478052622E+01  0.00000000000E+00 0. -1.
</event>
<event>
 5    1  0.2111786E+001  0.1581021E+01  0.7818608E-02  0.3374223E+00
         11   -1    0    0    0    0  0.00000000000E+00  0.00000000000E+00  0.39999999674E+01  0.40000000000E+01  0.51100000000E-03 0.  1.
    9000002   -1    0    0    0    0 -0.00000000000E+00 -0.00000000000E+00  0.00000000000E+00  0.93800000000E+00  0.93800000000E+00 0.  1.
         11    1    1    2    0    0 -0.12080030237E+00 -0.54802898409E-02  0.27340195309E+01  0.27366924934E+01  0.51100000000E-03 0.  1.
    9000002    1    1    2    0    0  0.18281140331E+00 -0.21054070255E+00  0.66357279895E-01  0.98081327744E+00  0.93800000000E+00 0.  1.
         22    1    1    2    0    0 -0.62011100937E-01  0.21602099239E+00  0.11996231565E+01  0.12204942292E+01  0.00000000000E+00 0. -1.
</event>
<event>
 5    1  0.2111786E+001  0.1559434E+01  0.7818608E-02  0.3398605E+00
         11   -1    0    0    0    0  0.00000000000E+00  0.00000000000E+00  0.39999999674E+01  0.40000000000E+01  0.51100000000E-03 0.  1.
    9000002   -1    0    0    0    0 -0.00000000000E+00 -0.00000000000E+00  0.00000000000E+00  0.93800000000E+00  0.93800000000E+00 0.  1.
         11    1    1    2    0    0  0.51863857379E-01  0.19677094936E+00  0.19661553611E+01  0.19766577426E+01  0.51100000000E-03 0.  1.
    9000002    1    1    2    0    0 -0.32507972412E+00  0.34151496162E-01  0.10414694677E+00  0.99876610788E+00  0.93800000000E+00 0.  1.
         22    1    1    2    0    0  0.27321586674E+00 -0.23092244552E+00  0.19296976595E+01  0.19625761495E+01  0.00000000000E+00 0.  1.
</event>
<event>
 5    1  0.2111786E+001  0.1554032E+01  0.7818608E-02  0.3404819E+00
         11   -1    0    0    0    0  0.00000000000E+00  0.00000000000E+00  0.39999999674E+01  0.40000000000E+01  0.51100000000E-03 0. -1.
    9000002   -1    0    0    0    0 -0.00000000000E+00 -0.00000000000E+00  0.00000000000E+00  0.93800000000E+00  0.93800000000E+00 0.  1.
         11    1    1    2    0    0  0.12488616464E+00 -0.31866421940E+00  0.21174660449E+01  0.21449489857E+01  0.51100000000E-03 0. -1.
    9000002    1    1    2    0    0  0.50733710040E-01  0.20870299102E+00  0.65782568767E-01  0.96452174374E+00  0.93800000000E+00 0.  1.
         22    1    1    2    0    0 -0.17561987468E+00  0.10996122839E+00  0.18167513537E+01  0.18285292706E+01  0.00000000000E+00 0. -1.
</event>
<event>
 5    1  0.2111786E+001  0.1478710E+01  0.7818608E-02  0.3496533E+00
         11   -1    0    0    0    0  0.00000000000E+00  0.00000000000E+00  0.39999999674E+01  0.40000000000E+01  0.51100000000E-03 0. -1.
    9000002   -1    0    0    0    0 -0.00000000000E+00 -0.00000000000E+00  0.00000000000E+00  0.93800000000E+00  0.93800000000E+00 0.  1.
         11    1    1    2    0    0  0.54442891783E+00 -0.16842487431E-01  0.15832266948E+01  0.16743038984E+01  0.51100000000E-03 0. -1.
    9000002    1    1    2    0    0 -0.31465316777E+00 -0.12254786313E-01  0.16869999273E+00  0.10037233101E+01  0.93800000000E+00 0.  1.
         22    1    1    2    0    0 -0.22977575006E+00  0.29097273744E-01  0.22480732798E+01  0.22599727914E+01  0.00000000000E+00 0. -1.
</event>
<event>
 5    1  0.2111786E+001  0.1417769E+01  0.7818608E-02  0.3578813E+00
         11   -1    0    0    0    0  0.00000000000E+00  0.00000000000E+00  0.39999999674E+01  0.40000000000E+01  0.51100000000E-03 0. -1.
    9000002   -1    0    0    0    0 -0.00000000000E+00 -0.00000000000E+00  0.00000000000E+00  0.93800000000E+00  0.93800000000E+00 0.  1.
         11    1    1    2    0    0 -0.38277199405E+00  0.39916500172E+00  0.24006114345E+01  0.24634899266E+01  0.51100000000E-03 0. -1.
    9000002    1    1    2    0    0  0.89506206677E-01 -0.38456363149E-01  0.15316082860E+00  0.95540174394E+00  0.93800000000E+00 0.  1.
         22    1    1    2    0    0  0.29326578737E+00 -0.36070863857E+00  0.14462277042E+01  0.15191083294E+01  0.00000000000E+00 0. -1.
</event>
<event>
 5    1  0.2111786E+001  0.1561529E+01  0.7818608E-02  0.3396207E+00
         11   -1    0    0    0    0  0.00000000000E+00  0.00000000000E+00  0.39999999674E+01  0.40000000000E+01  0.51100000000E-03 0. -1.
    9000002   -1    0    0    0    0 -0.00000000000E+00 -0.00000000000E+00  0.00000000000E+00  0.93800000000E+00  0.93800000000E+00 0.  1.
         11    1    1    2    0    0 -0.12496702087E+00  0.71036722992E-01  0.44541191472E+00  0.46803312619E+00  0.51100000000E-03 0. -1.
    9000002    1    1    2    0    0  0.41840276982E-01  0.16300710280E+00  0.47568790119E-01  0.95416388222E+00  0.93800000000E+00 0.  1.
         22    1    1    2    0    0  0.83126743891E-01 -0.23404382579E+00  0.35070192625E+01  0.35158029916E+01  0.00000000000E+00 0. -1.
</event>
<event>
 5    1  0.2111786E+001  0.1549048E+01  0.7818608E-02  0.3410592E+00
         11   -1    0    0    0    0  0.00000000000E+00  0.00000000000E+00  0.39999999674E+01  0.40000000000E+01  0.51100000000E-03 0.  1.
    9000002   -1    0    0    0    0 -0.00000000000E+00 -0.00000000000E+00  0.00000000000E+00  0.93800000000E+00  0.93800000000E+00 0.  1.
         11    1    1    2    0    0 -0.24552431489E-01 -0.25863383240E+00  0.21541567873E+01  0.21697663484E+01  0.51100000000E-03 0.  1.
    9000002    1    1    2    0    0 -0.12865371456E+00  0.11231442937E-01  0.49145440574E-01  0.94812298670E+00  0.93800000000E+00 0.  1.
         22    1    1    2    0    0  0.15320614605E+00  0.24740238946E+00  0.17966977394E+01  0.18201106649E+01  0.00000000000E+00 0.  1.
</event>
<event>
 5    1  0.2111786E+001  0.1521261E+01  0.7818608E-02  0.3443524E+00
         11   -1    0    0    0    0  0.00000000000E+00  0.00000000000E+00  0.39999999674E+01  0.40000000000E+01  0.51100000000E-03 0. -1.
    9000002   -1    0    0    0    0 -0.00000000000E+00 -0.00000000000E+00  0.00000000000E+00  0.93800000000E+00  0.93800000000E+00 0. -1.
         11    1    1    2    0    0  0.13622417438E+00  0.22729559797E+00  0.29273223543E+01  0.29392918776E+01  0.51100000000E-03 0. -1.
    9000002    1    1    2    0    0 -0.96189218481E-01  0.81969874286E-01  0.70459432063E-01  0.94909428278E+00  0.93800000000E+00 0. -1.
         22    1    1    2    0    0 -0.40034955902E-01 -0.30926547226E+00  0.10022181810E+01  0.10496138396E+01  0.00000000000E+00 0.  1.
</event>
<event>
 5    1  0.2111786E+001  0.1518470E+01  0.7818608E-02  0.3446903E+00
         11   -1    0    0    0    0  0.00000000000E+00  0.00000000000E+00  0.39999999674E+01  0.40000000000E+01  0.51100000000E-03 0.  1.
    9000002   -1    0    0    0    0 -0.00000000000E+00 -0.00000000000E+00  0.00000000000E+00  0.93800000000E+00  0.93800000000E+00 0. -1.
         11    1    1    2    0    0 -0.27185880695E+00 -0.21587319860E+00  0.22776674961E+01  0.23039700372E+01  0.51100000000E-03 0.  1.
    9000002    1    1    2    0    0 -0.45824303414E-01  0.96273663525E-01  0.69384302748E-01  0.94658685103E+00  0.93800000000E+00 0. -1.
         22    1    1    2    0    0  0.31768311036E+00  0.11959953508E+00  0.16529481686E+01  0.16874431117E+01  0.00000000000E+00 0. -1.
</event>
<event>
 5    1  0.2111786E+001  0.1489839E+01  0.7818608E-02  0.3482353E+00
         11   -1    0    0    0    0  0.00000000000E+00  0.00000000000E+00  0.39999999674E+01  0.40000000000E+01  0.51100000000E-03 0.  1.
    9000002   -1    0    0    0    0 -0.00000000000E+00 -0.00000000000E+00  0.00000000000E+00  0.93800000000E+00  0.93800000000E+00 0. -1.
         11    1    1    2    0    0  0.13654497851E+00 -0.35118194555E+00  0.92504683029E+00  0.99884192413E+00  0.51100000000E-03 0.  1.
    9000002    1    1    2    0    0 -0.24823202481E+00  0.65610760322E-01  0.13333799333E+00  0.98160426368E+00  0.93800000000E+00 0. -1.
         22    1    1    2    0    0  0.11168704630E+00  0.28557118523E+00  0.29416151437E+01  0.29575538122E+01  0.00000000000E+00 0.  1.
</event>
<event>
 5    1  0.2111786E+001  0.1494210E+01  0.7818608E-02  0.3476846E+00
         11   -1    0    0    0    0  0.00000000000E+00  0.00000000000E+00  0.39999999674E+01  0.40000000000E+01  0.51100000000E-03 0.  1.
    9000002   -1    0    0    0    0 -0.00000000000E+00 -0.00000000000E+00  0.00000000000E+00  0.93800000000E+00  0.93800000000E+00 0. -1.
         11    1    1    2    0    0  0.17557861549E+00  0.37744409979E-01  0.17789001101E+00  0.25277976153E+00  0.51100000000E-03 0.  1.
    9000002    1    1    2    0    0  0.12560777275E-01 -0.23244151299E+00  0.12074492218E+00  0.97396620389E+00  0.93800000000E+00 0. -1.
         22    1    1    2    0    0 -0.18813939276E+00  0.19469710301E+00  0.37013650342E+01  0.37112540346E+01  0.00000000000E+00 0.  1.
</event>
<event>
 5    1  0.2111786E+001  0.1595817E+01  0.7818608E-02  0.3357916E+00
         11   -1    0    0    0    0  0.00000000000E+00  0.00000000000E+00  0.39999999674E+01  0.40000000000E+01  0.51100000000E-03 0.  1.
    9000002   -1    0    0    0    0 -0.00000000000E+00 -0.00000000000E+00  0.00000000000E+00  0.93800000000E+00  0.93800000000E+00 0.  1.
         11    1    1    2    0    0  0.74308953143E-02 -0.11966556730E+00  0.18308998266E+01  0.18348213816E+01  0.51100000000E-03 0.  1.
    9000002    1    1    2    0    0 -0.17289067952E+00  0.28730133094E+00  0.78355473544E-01  0.99920809747E+00  0.93800000000E+00 0.  1.
         22    1    1    2    0    0  0.16545978421E+00 -0.16763576364E+00  0.20907446672E+01  0.21039705209E+01  0.00000000000E+00 0. -1.
</event>
<event>
 5    1  0.2111786E+001  0.1587883E+01  0.7818608E-02  0.3366621E+00
         11   -1    0    0    0    0  0.00000000000E+00  0.00000000000E+00  0.39999999674E+01  0.40000000000E+01  0.51100000000E-03 0. -1.
    9000002   -1    0    0    0    0 -0.00000000000E+00 -0.00000000000E+00  0.00000000000E+00  0.93800000000E+00  0.93800000000E+00 0. -1.
         11    1    1    2    0    0 -0.89642232115E-01 -0.21366292706E-01  0.14378093143E+01  0.14407595683E+01  0.51100000000E-03 0. -1.
    9000002    1    1    2    0    0  0.37762506909E-02 -0.18774228246E+00  0.32181380483E-01  0.95715258237E+00  0.93800000000E+00 0. -1.
         22    1    1    2    0    0  0.85865981424E-01  0.20910857516E+00  0.25300092726E+01  0.25400878493E+01  0.00000000000E+00 0. -1.
</event>
<event>
 5    1  0.2111786E+001  0.1590209E+01  0.7818608E-02  0.3364059E+00
         11   -1    0    0    0    0  0.00000000000E+00  0.00000000000E+00  0.39999999674E+01  0.40000000000E+01  0.51100000000E-03 0. -1.
    9000002   -1    0    0    0    0 -0.00000000000E+00 -0.00000000000E+00  0.00000000000E+00  0.93800000000E+00  0.93800000000E+00 0.  1.
         11    1    1    2    0    0 -0.67839976969E-01  0.59507579872E-01  0.47797904708E+00  0.48642331884E+00  0.51100000000E-03 0. -1.
    9000002    1    1    2    0    0  0.23731113574E+00  0.52673848283E-01  0.46482312099E-01  0.97010087866E+00  0.93800000000E+00 0.  1.
         22    1    1    2    0    0 -0.16947115877E+00 -0.11218142816E+00  0.34755386082E+01  0.34814758025E+01  0.00000000000E+00 0. -1.
</event>
<event>
 5    1  0.2111786E+001  0.1549877E+01  0.7818608E-02  0.3409628E+00
         11   -1    0    0    0    0  0.00000000000E+00  0.00000000000E+00  0.39999999674E+01  0.40000000000E+01  0.51100000000E-03 0. -1.
    9000002   -1    0    0    0    0 -0.00000000000E+00 -0.00000000000E+00  0.00000000000E+00  0.93800000000E+00  0.93800000000E+00 0.  1.
         11    1    1    2    0    0 -0.18097017552E+00  0.23107731262E+00  0.15061022215E+01  0.15344351050E+01  0.51100000000E-03 0. -1.
    9000002    1    1    2    0    0 -0.36968848429E-01 -0.15029856806E+00  0.53568769997E-01  0.95219219091E+00  0.93800000000E+00 0.  1.
         22    1    1    2    0    0  0.21793902395E+00 -0.80778744556E-01  0.24403289759E+01  0.24513727041E+01  0.00000000000E+00 0. -1.
</event>
<event>
 5    1  0.2111786E+001  0.1523591E+01  0.7818608E-02  0.3440712E+00
         11   -1    0    0    0    0  0.00000000000E+00  0.00000000000E+00  0.39999999674E+01  0.40000000000E+01  0.51100000000E-03 0. -1.
    9000002   -1    0    0    0    0 -0.00000000000E+00 -0.00000000000E+00  0.00000000000E+00  0.93800000000E+00  0.93800000000E+00 0. -1.
         11    1    1    2    0    0 -0.19415652115E+00 -0.15645982552E+00  0.61482164691E+00  0.66346239557E+00  0.51100000000E-03 0. -1.
    9000002    1    1    2    0    0 -0.94893662063E-01  0.18617682393E+00  0.88480976767E-01  0.96505932466E+00  0.93800000000E+00 0. -1.
         22    1    1    2    0    0  0.28905018321E+00 -0.29716998412E-01  0.32966973437E+01  0.33094782798E+01  0.00000000000E+00 0. -1.
</event>
<event>
 5    1  0.2111786E+001  0.1547819E+01  0.7818608E-02  0.3412022E+00
         11   -1    0    0    0    0  0.00000000000E+00  0.00000000000E+00  0.39999999674E+01  0.40000000000E+01  0.51100000000E-03 0. -1.
    9000002   -1    0    0    0    0 -0.00000000000E+00 -0.00000000000E+00  0.00000000000E+00  0.93800000000E+00  0.93800000000E+00 0.  1.
         11    1    1    2    0    0  0.30762427404E+00  0.89754948362E-01  0.18620251672E+01  0.18893984835E+01  0.51100000000E-03 0. -1.
    9000002    1    1    2    0    0 -0.75358145811E-01 -0.12713012068E+00  0.53695788626E-01  0.95108787998E+00  0.93800000000E+00 0.  1.
         22    1    1    2    0    0 -0.23226612822E+00  0.37375172316E-01  0.20842790115E+01  0.20975136366E+01  0.00000000000E+00 0. -1.
</event>
<event>
 5    1  0.2111786E+001  0.1586480E+01  0.7818608E-02  0.3368170E+00
         11   -1    0    0    0    0  0.00000000000E+00  0.00000000000E+00  0.39999999674E+01  0.40000000000E+01  0.51100000000E-03 0.  1.
    9000002   -1    0    0    0    0 -0.00000000000E+00 -0.00000000000E+00  0.00000000000E+00  0.93800000000E+00  0.93800000000E+00 0.  1.
         11    1    1    2    0    0  0.17114212362E+00 -0.51120005991E-01  0.23596107970E+01  0.23663613959E+01  0.51100000000E-03 0.  1.
    9000002    1    1    2    0    0 -0.47465419317E+00 -0.16609928873E-01  0.16551517332E+00  0.10643363028E+01  0.93800000000E+00 0.  1.
         22    1    1    2    0    0  0.30351206956E+00  0.67729934864E-01  0.14748739970E+01  0.15073023013E+01  0.00000000000E+00 0.  1.
</event>
<event>
 5    1  0.2111786E+001  0.1580357E+01  0.7818608E-02  0.3374963E+00
         11   -1    0    0    0    0  0.00000000000E+00  0.00000000000E+00  0.39999999674E+01  0.40000000000E+01  0.51100000000E-03 0. -1.
    9000002   -1    0    0    0    0 -0.00000000000E+00 -0.00000000000E+00  0.00000000000E+00  0.93800000000E+00  0.93800000000E+00 0. -1.
         11    1    1    2    0    0 -0.12727852196E+00 -0.48481371926E-01  0.12470143554E+01  0.12544302808E+01  0.51100000000E-03 0. -1.
    9000002    1    1    2    0    0 -0.33410471888E-01 -0.73244411466E-01  0.18465835083E-01  0.94162943375E+00  0.93800000000E+00 0. -1.
         22    1    1    2    0    0  0.16068899385E+00  0.12172578339E+00  0.27345197769E+01  0.27419402855E+01  0.00000000000E+00 0. -1.
</event>
<event>
 5    1  0.2111786E+001  0.1530624E+01  0.7818608E-02  0.3432284E+00
         11   -1    0    0    0    0  0.00000000000E+00  0.00000000000E+00  0.39999999674E+01  0.40000000000E+01  0.51100000000E-03 0.  1.
    9000002   -1    0    0    0    0 -0.00000000000E+00 -0.00000000000E+00  0.00000000000E+00  0.93800000000E+00  0.93800000000E+00 0.  1.
         11    1    1    2    0    0  0.15492168751E+00 -0.19535049162E+00  0.90217685038E+00  0.93599459097E+00  0.51100000000E-03 0.  1.
    9000002    1    1    2    0    0 -0.10648825193E-02 -0.95047814973E-01  0.58125513058E-01  0.94459398493E+00  0.93800000000E+00 0.  1.
         22    1    1    2    0    0 -0.15385680500E+00  0.29039830659E+00  0.30396976039E+01  0.30574114241E+01  0.00000000000E+00 0.  1.
</event>
<event>
 5    1  0.2111786E+001  0.1598496E+01  0.7818608E-02  0.3354997E+00
         11   -1    0    0    0    0  0.00000000000E+00  0.00000000000E+00  0.39999999674E+01  0.40000000000E+01  0.51100000000E-03 0.  1.
    9000002   -1    0    0    0    0 -0.00000000000E+00 -0.00000000000E+00  0.00000000000E+00  0.93800000000E+00  0.93800000000E+00 0. -1.
         11    1    1    2    0    0  0.30174100609E+00 -0.96590750798E-01  0.21479410353E+01  0.21711813282E+01  0.51100000000E-03 0.  1.
    9000002    1    1    2    0    0 -0.50023930575E+00  0.23518264550E+00  0.21227335535E+00  0.11092584086E+01  0.93800000000E+00 0. -1.
         22    1    1    2    0    0  0.19849829966E+00 -0.13859189470E+00  0.16397855768E+01  0.16575602632E+01  0.00000000000E+00 0.  1.
</event>
<event>
 5    1  0.2111786E+001  0.1493116E+01  0.7818608E-02  0.3478222E+00
         11   -1    0    0    0    0  0.00000000000E+00  0.00000000000E+00  0.39999999674E+01  0.40000000000E+01  0.51100000000E-03 0. -1.
    9000002   -1    0    0    0    0 -0.00000000000E+00 -0.00000000000E+00  0.00000000000E+00  0.93800000000E+00  0.93800000000E+00 0.  1.
         11    1    1    2    0    0 -0.21698340680E+00  0.19596439042E+00  0.61848642334E+00  0.68411224087E+00  0.51100000000E-03 0. -1.
    9000002    1    1    2    0    0 -0.69806741913E-01 -0.90368770463E-01  0.91093707600E-01  0.94930583031E+00  0.93800000000E+00 0.  1.
         22    1    1    2    0    0  0.28679014871E+00 -0.10559561996E+00  0.32904198364E+01  0.33045819288E+01  0.00000000000E+00 0. -1.
</event>
<event>
 5    1  0.2111786E+001  0.1503013E+01  0.7818608E-02  0.3465860E+00
         11   -1    0    0    0    0  0.00000000000E+00  0.00000000000E+00  0.39999999674E+01  0.40000000000E+01  0.51100000000E-03 0.  1.
    9000002   -1    0    0    0    0 -0.00000000000E+00 -0.00000000000E+00  0.00000000000E+00  0.93800000000E+00  0.93800000000E+00 0. -1.
         11    1    1    2    0    0 -0.27671212970E+00 -0.41851615934E+00  0.15320856492E+01  0.16121451783E+01  0.51100000000E-03 0.  1.
    9000002    1    1    2    0    0  0.58959241632E-01  0.37297404265E+00  0.17987654750E+00  0.10270274587E+01  0.93800000000E+00 0. -1.
         22    1    1    2    0    0  0.21775288807E+00  0.45542116688E-01  0.22880377706E+01  0.22988273629E+01  0.00000000000E+00 0.  1.
</event>
<event>
 5    1  0.2111786E+001  0.1567766E+01  0.7818608E-02  0.3389110E+00
         11   -1    0    0    0    0  0.00000000000E+00  0.00000000000E+00  0.39999999674E+01  0.40000000000E+01  0.51100000000E-03 0. -1.
    9000002   -1    0    0    0    0 -0.00000000000E+00 -0.00000000000E+00  0.00000000000E+00  0.93800000000E+00  0.93800000000E+00 0. -1.
         11    1    1    2    0    0  0.12662502630E+00 -0.14265797681E+00  0.97264159936E+00  0.99116958063E+00  0.51100000000E-03 0. -1.
    9000002    1    1    2    0    0  0.77502358741E-01  0.11390284678E+00  0.36384853673E-01  0.94876147250E+00  0.93800000000E+00 0. -1.
         22    1    1    2    0    0 -0.20412738504E+00  0.28755130029E-01  0.29909735143E+01  0.29980689469E+01  0.00000000000E+00 0. -1.
</event>
<event>
 5    1  0.2111786E+001  0.1540756E+01  0.7818608E-02  0.3420286E+00
         11   -1    0    0    0    0  0.00000000000E+00  0.00000000000E+00  0.39999999674E+01  0.40000000000E+01  0.51100000000E-03 0. -1.
    9000002   -1    0    0    0    0 -0.00000000000E+00 -0.00000000000E+00  0.00000000000E+00  0.93800000000E+00  0.93800000000E+00 0.  1.
         11    1    1    2    0    0  0.63941754201E-01 -0.35154529549E+00  0.28894262209E+01  0.29114355205E+01  0.51100000000E-03 0. -1.
    9000002    1    1    2    0    0 -0.30706793783E-01  0.13121491293E+00  0.56627432724E-01  0.94932129793E+00  0.93800000000E+00 0.  1.
         22    1    1    2    0    0 -0.33234960418E-01  0.22033038256E+00  0.10539463137E+01  0.10772431816E+01  0.00000000000E+00 0. -1.
</event>
<event>
 5    1  0.2111786E+001  0.1562324E+01  0.7818608E-02  0.3395299E+00
         11   -1    0    0    0    0  0.00000000000E+00  0.00000000000E+00  0.39999999674E+01  0.40000000000E+01  0.51100000000E-03 0.  1.
    9000002   -1    0    0    0    0 -0.00000000000E+00 -0.00000000000E+00  0.00000000000E+00  0.93800000000E+00  0.93800000000E+00 0. -1.
         11    1    1    2    0    0  0.19495470509E+00  0.14699008264E+00  0.18693279383E+01  0.18852057245E+01  0.51100000000E-03 0.  1.
    9000002    1    1    2    0    0 -0.56674549513E-01  0.27555755548E-01  0.30250060193E-01  0.94060107929E+00  0.93800000000E+00 0. -1.
         22    1    1    2    0    0 -0.13828015558E+00 -0.17454583819E+00  0.21004219688E+01  0.21121931962E+01  0.00000000000E+00 0.  1.
</event>
<event>
 5    1  0.2111786E+001  0.1556409E+01  0.7818608E-02  0.3402079E+00
         11   -1    0    0    0    0  0.00000000000E+00  0.00000000000E+00  0.39999999674E+01  0.40000000000E+01  0.51100000000E-03 0. -1.
    9000002   -1    0    0    0    0 -0.00000000000E+00 -0.00000000000E+00  0.00000000000E+00  0.93800000000E+00  0.93800000000E+00 0. -1.
         11    1    1    2    0    0  0.22154976647E-01  0.26211394850E+00  0.14623099682E+01  0.14857810301E+01  0.51100000000E-03 0. -1.
    9000002    1    1    2    0    0  0.16411671455E-01 -0.59588288446E-01  0.34618376002E-01  0.94067132360E+00  0.93800000000E+00 0. -1.
         22    1    1    2    0    0 -0.38566648102E-01 -0.20252566006E+00  0.25030716231E+01  0.25115476463E+01  0.00000000000E+00 0. -1.
</event>
<event>
 5    1  0.2111786E+001  0.1559834E+01  0.7818608E-02  0.3398146E+00
         11   -1    0    0    0    0  0.00000000000E+00  0.00000000000E+00  0.39999999674E+01  0.40000000000E+01  0.51100000000E-03 0. -1.
    9000002   -1    0    0    0    0 -0.00000000000E+00 -0.00000000000E+00  0.00000000000E+00  0.93800000000E+00  0.93800000000E+00 0.  1.
         11    1    1    2    0    0  0.61260532725E-01 -0.38277045919E+00  0.11692957964E+01  0.12318762105E+01  0.51100000000E-03 0. -1.
    9000002    1    1    2    0    0  0.28996402825E+00  0.66546754779E+00  0.42714536211E+00  0.12606440240E+01  0.93800000000E+00 0.  1.
         22    1    1    2    0    0 -0.35122456098E+00 -0.28269708860E+00  0.24035588088E+01  0.24454797655E+01  0.00000000000E+00 0. -1.
</event>
<event>
 5    1  0.2111786E+001  0.1533166E+01  0.7818608E-02  0.3429258E+00
         11   -1    0    0    0    0  0.00000000000E+00  0.00000000000E+00  0.39999999674E+01  0.40000000000E+01  0.51100000000E-03 0.  1.
    9000002   -1    0    0    0    0 -0.00000000000E+00 -0.00000000000E+00  0.00000000000E+00  0.93800000000E+00  0.93800000000E+00 0.  1.
         11    1    1    2    0    0 -0.10101283708E+00  0.39241659975E+00  0.26555959664E+01  0.26863329241E+01  0.51100000000E-03 0.  1.
    9000002    1    1    2    0    0  0.72933595001E-01 -0.15763879998E+00  0.71097040196E-01  0.95659191386E+00  0.93800000000E+00 0.  1.
         22    1    1    2    0    0  0.28079242074E-01 -0.23477779977E+00  0.12733069608E+01  0.12950751621E+01  0.00000000000E+00 0.  1.
</event>
<event>
 5    1  0.2111786E+001  0.1554565E+01  0.7818608E-02  0.3404203E+00
         11   -1    0    0    0    0  0.00000000000E+00  0.00000000000E+00  0.39999999674E+01  0.40000000000E+01  0.51100000000E-03 0.  1.
    9000002   -1    0    0    0    0 -0.00000000000E+00 -0.00000000000E+00  0.00000000000E+00  0.93800000000E+00  0.93800000000E+00 0.  1.
         11    1    1    2    0    0 -0.75581985738E-02  0.19859974870E+00  0.16322017254E+01  0.16442571940E+01  0.51100000000E-03 0.  1.
    9000002    1    1    2    0    0 -0.60003074054E-01  0.12347337527E+00  0.46391949350E-01  0.94912710227E+00  0.93800000000E+00 0.  1.
         22    1    1    2    0    0  0.67561272628E-01 -0.32207312397E+00  0.23214062926E+01  0.23446157037E+01  0.00000000000E+00 0.  1.
</event>
<event>
 5    1  0.2111786E+001  0.1555310E+01  0.7818608E-02  0.3403345E+00
         11   -1    0    0    0    0  0.00000000000E+00  0.00000000000E+00  0.39999999674E+01  0.40000000000E+01  0.51100000000E-03 0. -1.
    9000002   -1    0    0    0    0 -0.00000000000E+00 -0.00000000000E+00  0.00000000000E+00  0.93800000000E+00  0.93800000000E+00 0. -1.
         11    1    1    2    0    0 -0.19580603932E+00 -0.93064281432E-01  0.90379655972E+00  0.92943501548E+00  0.51100000000E-03 0. -1.
    9000002    1    1    2    0    0  0.28759504412E-01 -0.24311831341E-01  0.33800217508E-01  0.93936394914E+00  0.93800000000E+00 0. -1.
         22    1    1    2    0    0  0.16704653491E+00  0.11737611277E+00  0.30624031901E+01  0.30692010354E+01  0.00000000000E+00 0.  1.
</event>
<event>
 5    1  0.2111786E+001  0.1519109E+01  0.7818608E-02  0.3446128E+00
         11   -1    0    0    0    0  0.00000000000E+00  0.00000000000E+00  0.39999999674E+01  0.40000000000E+01  0.51100000000E-03 0. -1.
    9000002   -1    0    0    0    0 -0.00000000000E+00 -0.00000000000E+00  0.00000000000E+00  0.93800000000E+00  0.93800000000E+00 0. -1.
         11    1    1    2    0    0 -0.11086760158E+00 -0.35250400803E+00  0.12127234053E+01  0.12677732525E+01  0.51100000000E-03 0. -1.
    9000002    1    1    2    0    0  0.16295562335E-01  0.17080601543E+00  0.81864817603E-01  0.95707162147E+00  0.93800000000E+00 0. -1.
         22    1    1    2    0    0  0.94572039249E-01  0.18169799260E+00  0.27054117444E+01  0.27131551261E+01  0.00000000000E+00 0. -1.
</event>
<event>
 5    1  0.2111786E+001  0.1589450E+01  0.7818608E-02  0.3364894E+00
         11   -1    0    0    0    0  0.00000000000E+00  0.00000000000E+00  0.39999999674E+01  0.40000000000E+01  0.51100000000E-03 0.  1.
    9000002   -1    0    0    0    0 -0.00000000000E+00 -0.00000000000E+00  0.00000000000E+00  0.93800000000E+00  0.93800000000E+00 0.  1.
         11    1    1    2    0    0  0.16082100996E+00 -0.76139546954E-02  0.24150524013E+01  0.24204131324E+01  0.51100000000E-03 0.  1.
    9000002    1    1    2    0    0 -0.25895113224E+00  0.20480368969E+00  0.81114251548E-01  0.99770925725E+00  0.93800000000E+00 0.  1.
         22    1    1    2    0    0  0.98130122282E-01 -0.19718973499E+00  0.15038333145E+01  0.15198776103E+01  0.00000000000E+00 0.  1.
</event>
<event>
 5    1  0.2111786E+001  0.1544558E+01  0.7818608E-02  0.3415827E+00
         11   -1    0    0    0    0  0.00000000000E+00  0.00000000000E+00  0.39999999674E+01  0.40000000000E+01  0.51100000000E-03 0. -1.
    9000002   -1    0    0    0    0 -0.00000000000E+00 -0.00000000000E+00  0.00000000000E+00  0.93800000000E+00  0.93800000000E+00 0.  1.
         11    1    1    2    0    0  0.15850642305E+00  0.26987871543E+00  0.14072861179E+01  0.14416703111E+01  0.51100000000E-03 0. -1.
    9000002    1    1    2    0    0 -0.10438040189E-01 -0.13201091685E+00  0.53225939865E-01  0.94879546559E+00  0.93800000000E+00 0.  1.
         22    1    1    2    0    0 -0.14806838286E+00 -0.13786779858E+00  0.25394879096E+01  0.25475342233E+01  0.00000000000E+00 0. -1.
</event>
<event>
 5    1  0.2111786E+001  0.1591021E+01  0.7818608E-02  0.3363166E+00
         11   -1    0    0    0    0  0.00000000000E+00  0.00000000000E+00  0.39999999674E+01  0.40000000000E+01  0.51100000000E-03 0. -1.
    9000002   -1    0    0    0    0 -0.00000000000E+00 -0.00000000000E+00  0.00000000000E+00  0.93800000000E+00  0.93800000000E+00 0. -1.
         11    1    1    2    0    0  0.73901905420E-01 -0.24398075884E-01  0.10398945316E+01  0.10428027885E+01  0.51100000000E-03 0. -1.
    9000002    1    1    2    0    0  0.81323081899E-01  0.18868640739E+00  0.34484505052E-01  0.96085856663E+00  0.93800000000E+00 0. -1.
         22    1    1    2    0    0 -0.15522498732E+00 -0.16428833151E+00  0.29256209307E+01  0.29343386449E+01  0.00000000000E+00 0. -1.
</event>
<event>
 5    1  0.2111786E+001  0.1521759E+01  0.7818608E-02  0.3442923E+00
         11   -1    0    0    0    0  0.00000000000E+00  0.00000000000E+00  0.39999999674E+01  0.40000000000E+01  0.51100000000E-03 0. -1.
    9000002   -1    0    0    0    0 -0.00000000000E+00 -0.00000000000E+00  0.00000000000E+00  0.93800000000E+00  0.93800000000E+00 0. -1.
         11    1    1    2    0    0  0.22853039877E+00 -0.43035152495E+00  0.15180324616E+01  0.15943184732E+01  0.51100000000E-03 0. -1.
    9000002    1    1    2    0    0  0.66386798390E-01  0.53543142203E+00  0.27752819473E+00  0.11171212618E+01  0.93800000000E+00 0. -1.
         22    1    1    2    0    0 -0.29491719716E+00 -0.10507989707E+00  0.22044393110E+01  0.22265602650E+01  0.00000000000E+00 0. -1.
</event>
<event>
 5    1  0.2111786E+001  0.1527085E+01  0.7818608E-02  0.3436515E+00
         11   -1    0    0    0    0  0.00000000000E+00  0.00000000000E+00  0.39999999674E+01  0.40000000000E+01  0.51100000000E-03 0. -1.
    9000002   -1    0    0    0    0 -0.00000000000E+00 -0.00000000000E+00  0.00000000000E+00  0.93800000000E+00  0.93800000000E+00 0. -1.
         11    1    1    2    0    0  0.24001963674E+00  0.12499178903E+00  0.81123302520E+00  0.85517931198E+00  0.51100000000E-03 0. -1.
    9000002    1    1    2    0    0 -0.11916381292E-01 -0.46296311278E-01  0.56118056923E-01  0.94089244066E+00  0.93800000000E+00 0. -1.
         22    1    1    2    0    0 -0.22810325544E+00 -0.78695477755E-01  0.31326488852E+01  0.31419282474E+01  0.00000000000E+00 0. -1.
</event>
<event>
 5    1  0.2111786E+001  0.1573313E+01  0.7818608E-02  0.3382848E+00
         11   -1    0    0    0    0  0.00000000000E+00  0.00000000000E+00  0.39999999674E+01  0.40000000000E+01  0.51100000000E-03 0. -1.
    9000002   -1    0    0    0    0 -0.00000000000E+00 -0.00000000000E+00  0.00000000000E+00  0.93800000000E+00  0.93800000000E+00 0. -1.
         11    1    1    2    0    0 -0.72933373470E-01 -0.97208265762E-01  0.26146267094E+01  0.26174494865E+01  0.51100000000E-03 0. -1.
    9000002    1    1    2    0    0 -0.14010513144E+00  0.19447953350E-01  0.32879495916E-01  0.94917476367E+00  0.93800000000E+00 0. -1.
         22    1    1    2    0    0  0.21303850491E+00  0.77760312412E-01  0.13524937620E+01  0.13713757498E+01  0.00000000000E+00 0. -1.
</event>
<event>
 5    1  0.2111786E+001  0.1594048E+01  0.7818608E-02  0.3359849E+00
         11   -1    0    0    0    0  0.00000000000E+00  0.00000000000E+00  0.39999999674E+01  0.40000000000E+01  0.51100000000E-03 0.  1.
    9000002   -1    0    0    0    0 -0.00000000000E+00 -0.00000000000E+00  0.00000000000E+00  0.93800000000E+00  0.93800000000E+00 0. -1.
         11    1    1    2    0    0  0.13994592724E+00 -0.42799562285E-02  0.79329610656E+00  0.80555704602E+00  0.51100000000E-03 0.  1.
    9000002    1    1    2    0    0 -0.33749604305E+00  0.94384417591E-01  0.86898206742E-01  0.10050906903E+01  0.93800000000E+00 0. -1.
         22    1    1    2    0    0  0.19755011580E+00 -0.90104461363E-01  0.31198056541E+01  0.31273522637E+01  0.00000000000E+00 0.  1.
</event>
<event>
 5    1  0.2111786E+001  0.1473506E+01  0.7818608E-02  0.3503243E+00
         11   -1    0    0    0    0  0.00000000000E+00  0.00000000000E+00  0.39999999674E+01  0.40000000000E+01  0.51100000000E-03 0.  1.
    9000002   -1    0    0    0    0 -0.00000000000E+00 -0.00000000000E+00  0.00000000000E+00  0.93800000000E+00  0.93800000000E+00 0.  1.
         11    1    1    2    0    0 -0.47336949734E+00  0.13442395996E+00  0.25297372855E+01  0.25771533669E+01  0.51100000000E-03 0.  1.
    9000002    1    1    2    0    0  0.10226017064E+00 -0.17236514878E+00  0.12795835485E+00  0.96766948262E+00  0.93800000000E+00 0.  1.
         22    1    1    2    0    0  0.37110932670E+00  0.37941188820E-01  0.13423043270E+01  0.13931771504E+01  0.00000000000E+00 0. -1.
</event>
<event>
 5    1  0.2111786E+001  0.1567695E+01  0.7818608E-02  0.3389190E+00
         11   -1    0    0    0    0  0.00000000000E+00  0.00000000000E+00  0.39999999674E+01  0.40000000000E+01  0.51100000000E-03 0.  1.
    9000002   -1    0    0    0    0 -0.00000000000E+00 -0.00000000000E+00  0.00000000000E+00  0.93800000000E+00  0.93800000000E+00 0.  1.
         11    1    1    2    0    0 -0.18966775565E+00 -0.96651129743E-01  0.12789569969E+01  0.12965517959E+01  0.51100000000E-03 0.  1.
    9000002    1    1    2    0    0  0.17150498004E+00 -0.16661652029E+00  0.62685948887E-01  0.97002502607E+00  0.93800000000E+00 0.  1.
         22    1    1    2    0    0  0.18162775609E-01  0.26326765004E+00  0.26583570215E+01  0.26714231780E+01  0.00000000000E+00 0.  1.
</event>
<event>
 5    1  0.2111786E+001  0.1583185E+01  0.7818608E-02  0.3371819E+00
         11   -1    0    0    0    0  0.00000000000E+00  0.00000000000E+00  0.39999999674E+01  0.40000000000E+01  0.51100000000E-03 0.  1.
    9000002   -1    0    0    0    0 -0.00000000000E+00 -0.00000000000E+00  0.00000000000E+00  0.93800000000E+00  0.93800000000E+00 0. -1.
         11    1    1    2    0    0  0.54398469997E-01  0.64832288404E-01  0.21867399390E+01  0.21883770793E+01  0.51100000000E-03 0.  1.
    9000002    1    1    2    0    0  0.10825742711E+00  0.70187045617E-01  0.23191337769E-01  0.94711547873E+00  0.93800000000E+00 0. -1.
         22    1    1    2    0    0 -0.16265589711E+00 -0.13501933402E+00  0.17900686906E+01  0.18025074420E+01  0.00000000000E+00 0.  1.
</event>
<event>
 5    1  0.2111786E+001  0.1487999E+01  0.7818608E-02  0.3484682E+00
         11   -1    0    0    0    0  0.00000000000E+00  0.00000000000E+00  0.39999999674E+01  0.40000000000E+01  0.51100000000E-03 0. -1.
    9000002   -1    0    0    0    0 -0.00000000000E+00 -0.00000000000E+00  0.00000000000E+00  0.93800000000E+00  0.93800000000E+00 0.  1.
         11    1    1    2    0    0  0.57664463477E-01  0.14997398317E+00  0.87462193246E-01  0.18294065252E+00  0.51100000000E-03 0. -1.
    9000002    1    1    2    0    0 -0.29556708072E+00 -0.27215021619E+00  0.20866341748E+00  0.10415421553E+01  0.93800000000E+00 0.  1.
         22    1    1    2    0    0  0.23790261724E+00  0.12217623302E+00  0.37038743566E+01  0.37135171922E+01  0.00000000000E+00 0. -1.
</event>
<event>
 5    1  0.2111786E+001  0.1565315E+01  0.7818608E-02  0.3391891E+00
         11   -1    0    0    0    0  0.00000000000E+00  0.00000000000E+00  0.39999999674E+01  0.40000000000E+01  0.51100000000E-03 0. -1.
    9000002   -1    0    0    0    0 -0.00000000000E+00 -0.00000000000E+00  0.00000000000E+00  0.93800000000E+00  0.93800000000E+00 0.  1.
         11    1    1    2    0    0 -0.56781519351E-01  0.10746178131E+00  0.39682536302E+00  0.41502145154E+00  0.51100000000E-03 0. -1.
    9000002    1    1    2    0    0 -0.84357436979E-01  0.10491589999E+00  0.37662592887E-01  0.94835963334E+00  0.93800000000E+00 0.  1.
         22    1    1    2    0    0  0.14113895633E+00 -0.21237768130E+00  0.35655120115E+01  0.35746189151E+01  0.00000000000E+00 0. -1.
</event>
<event>
 5    1  0.2111786E+001  0.1385658E+01  0.7818608E-02  0.3630140E+00
         11   -1    0    0    0    0  0.00000000000E+00  0.00000000000E+00  0.39999999674E+01  0.40000000000E+01  0.51100000000E-03 0.  1.
    9000002   -1    0    0    0    0 -0.00000000000E+00 -0.00000000000E+00  0.00000000000E+00  0.93800000000E+00  0.93800000000E+00 0. -1.
         11    1    1    2    0    0  0.13269803869E+00  0.73289654062E+00  0.12962168429E+01  0.14949663788E+01  0.51100000000E-03 0.  1.
    9000002    1    1    2    0    0 -0.19770798119E+00 -0.51144016930E+00  0.44763154409E+00  0.11751074384E+01  0.93800000000E+00 0. -1.
         22    1    1    2    0    0  0.65009942499E-01 -0.22145637132E+00  0.22561515803E+01  0.22679261828E+01  0.00000000000E+00 0.  1.
</event>
<event>
 5    1  0.2111786E+001  0.1583983E+01  0.7818608E-02  0.3370933E+00
         11   -1    0    0    0    0  0.00000000000E+00  0.00000000000E+00  0.39999999674E+01  0.40000000000E+01  0.51100000000E-03 0.  1.
    9000002   -1    0    0    0    0 -0.00000000000E+00 -0.00000000000E+00  0.00000000000E+00  0.93800000000E+00  0.93800000000E+00 0.  1.
         11    1    1    2    0    0  0.31243438601E-01 -0.86055599327E-01  0.11176041789E+01  0.11213478856E+01  0.51100000000E-03 0.  1.
    9000002    1    1    2    0    0  0.15816764133E+00 -0.93678549523E-01  0.34140473445E-01  0.95645294988E+00  0.93800000000E+00 0.  1.
         22    1    1    2    0    0 -0.18941107993E+00  0.17973414885E+00  0.28482553150E+01  0.28601991645E+01  0.00000000000E+00 0.  1.
</event>
<event>
 5    1  0.2111786E+001  0.1501317E+01  0.7818608E-02  0.3467967E+00
         11   -1    0    0    0    0  0.00000000000E+00  0.00000000000E+00  0.39999999674E+01  0.40000000000E+01  0.51100000000E-03 0.  1.
    9000002   -1    0    0    0    0 -0.00000000000E+00 -0.00000000000E+00  0.00000000000E+00  0.93800000000E+00  0.93800000000E+00 0.  1.
         11    1    1    2    0    0  0.22983030970E+00 -0.31394916522E-01  0.36920187943E+00  0.43602511503E+00  0.51100000000E-03 0.  1.
    9000002    1    1    2    0    0 -0.26128373576E-01  0.93732180235E-01  0.81784164859E-01  0.94657332687E+00  0.93800000000E+00 0.  1.
         22    1    1    2    0    0 -0.20370193612E+00 -0.62337263713E-01  0.35490139231E+01  0.35554015581E+01  0.00000000000E+00 0.  1.
</event>
<event>
 5    1  0.2111786E+001  0.1588325E+01  0.7818608E-02  0.3366133E+00
         11   -1    0    0    0    0  0.00000000000E+00  0.00000000000E+00  0.39999999674E+01  0.40000000000E+01  0.51100000000E-03 0. -1.
    9000002   -1    0    0    0    0 -0.00000000000E+00 -0.00000000000E+00  0.00000000000E+00  0.93800000000E+00  0.93800000000E+00 0. -1.
         11    1    1    2    0    0  0.87450240339E-01 -0.22453671934E-01  0.22814100674E+01  0.22831959769E+01  0.51100000000E-03 0. -1.
    9000002    1    1    2    0    0 -0.18267568308E+00 -0.17844558408E+00  0.52085285860E-01  0.97353485231E+00  0.93800000000E+00 0. -1.
         22    1    1    2    0    0  0.95225442742E-01  0.20089925601E+00  0.16665046141E+01  0.16812691708E+01  0.00000000000E+00 0. -1.
</event>
<event>
 5    1  0.2111786E+001  0.1580027E+01  0.7818608E-02  0.3375330E+00
         11   -1    0    0    0    0  0.00000000000E+00  0.00000000000E+00  0.39999999674E+01  0.40000000000E+01  0.51100000000E-03 0.  1.
    9000002   -1    0    0    0    0 -0.00000000000E+00 -0.00000000000E+00  0.00000000000E+00  0.93800000000E+00  0.93800000000E+00 0.  1.
         11    1    1    2    0    0 -0.25375800677E-01  0.13782852235E+00  0.11610390860E+01  0.11694668243E+01  0.51100000000E-03 0.  1.
    9000002    1    1    2    0    0 -0.12506554966E+00  0.87720887559E-02  0.24926648285E-01  0.94666978353E+00  0.93800000000E+00 0.  1.
         22    1    1    2    0    0  0.15044135034E+00 -0.14660061111E+00  0.28140342331E+01  0.28218633922E+01  0.00000000000E+00 0.  1.
</event>
<event>
 5    1  0.2111786E+001  0.1479952E+01  0.7818608E-02  0.3494939E+00
         11   -1    0    0    0    0  0.00000000000E+00  0.00000000000E+00  0.39999999674E+01  0.40000000000E+01  0.51100000000E-03 0.  1.
    9000002   -1    0    0    0    0 -0.00000000000E+00 -0.00000000000E+00  0.00000000000E+00  0.93800000000E+00  0.93800000000E+00 0. -1.
         11    1    1    2    0    0  0.12826131552E+00 -0.49399089814E+00  0.14131073090E+01  0.15024481690E+01  0.51100000000E-03 0.  1.
    9000002    1    1    2    0    0  0.55582885438E-01  0.47169104421E-01  0.15181025814E+00  0.95299776287E+00  0.93800000000E+00 0. -1.
         22    1    1    2    0    0 -0.18384420096E+00  0.44682179372E+00  0.24350824002E+01  0.24825540681E+01  0.00000000000E+00 0.  1.
</event>
<event>
 5    1  0.2111786E+001  0.1525643E+01  0.7818608E-02  0.3438245E+00
         11   -1    0    0    0    0  0.00000000000E+00  0.00000000000E+00  0.39999999674E+01  0.40000000000E+01  0.51100000000E-03 0. -1.
    9000002   -1    0    0    0    0 -0.00000000000E+00 -0.00000000000E+00  0.00000000000E+00  0.93800000000E+00  0.93800000000E+00 0. -1.
         11    1    1    2    0    0  0.16835957055E+00  0.24800585665E+00  0.32415104754E+01  0.32553405771E+01  0.51100000000E-03 0. -1.
    9000002    1    1    2    0    0 -0.29343348586E+00 -0.16423874380E-01  0.11777788412E+00  0.98999423446E+00  0.93800000000E+00 0. -1.
         22    1    1    2    0    0  0.12507391531E+00 -0.23158198227E+00  0.64071160787E+00  0.69266518843E+00  0.00000000000E+00 0. -1.
</event>
<event>
 5    1  0.2111786E+001  0.1551264E+01  0.7818608E-02  0.3408020E+00
         11   -1    0    0    0    0  0.00000000000E+00  0.00000000000E+00  0.39999999674E+01  0.40000000000E+01  0.51100000000E-03 0.  1.
    9000002   -1    0    0    0    0 -0.00000000000E+00 -0.00000000000E+00  0.00000000000E+00  0.93800000000E+00  0.93800000000E+00 0.  1.
         11    1    1    2    0    0  0.20044342487E+00 -0.24186525028E+00  0.12286700385E+00  0.33730242753E+00  0.51100000000E-03 0.  1.
    9000002    1    1    2    0    0 -0.38199702694E+00  0.14960123168E+00  0.37143128788E+00  0.10890856067E+01  0.93800000000E+00 0.  1.
         22    1    1    2    0    0  0.18155360207E+00  0.92264018592E-01  0.35057016756E+01  0.35116119658E+01  0.00000000000E+00 0.  1.
</event>
<event>
 5    1  0.2991945E+001  0.1567361E+01  0.7818608E-02  0.3389569E+00
         11   -1    0    0    0    0  0.00000000000E+00  0.00000000000E+00  0.39999999674E+01  0.40000000000E+01  0.51100000000E-03 0. -1.
    9000002   -1    0    0    0    0 -0.00000000000E+00 -0.00000000000E+00  0.00000000000E+00  0.93800000000E+00  0.93800000000E+00 0. -1.
         11    1    1    2    0    0 -0.20164044434E+00  0.52517087251E-01  0.16660176160E+01  0.16789972815E+01  0.51100000000E-03 0. -1.
    9000002    1    1    2    0    0 -0.15812021312E-01 -0.13570099267E-01  0.24059064779E-01  0.93853982665E+00  0.93800000000E+00 0. -1.
         22    1    1    2    0    0  0.21745246565E+00 -0.38946987984E-01  0.23099232866E+01  0.23204628919E+01  0.00000000000E+00 0. -1.
</event>
<event>
 5    1  0.2111786E+001  0.1512882E+01  0.7818608E-02  0.3453708E+00
         11   -1    0    0    0    0  0.00000000000E+00  0.00000000000E+00  0.39999999674E+01  0.40000000000E+01  0.51100000000E-03 0. -1.
    9000002   -1    0    0    0    0 -0.00000000000E+00 -0.00000000000E+00  0.00000000000E+00  0.93800000000E+00  0.93800000000E+00 0.  1.
         11    1    1    2    0    0 -0.10774307384E+00  0.46861995139E+00  0.32776787875E+01  0.33127619479E+01  0.51100000000E-03 0. -1.
    9000002    1    1    2    0    0  0.31722483542E-01 -0.26428806107E+00  0.11721833050E+00  0.98205836496E+00  0.93800000000E+00 0.  1.
         22    1    1    2    0    0  0.76020590297E-01 -0.20433189032E+00  0.60510284940E+00  0.64317968710E+00  0.00000000000E+00 0. -1.
</event>
<event>
 5    1  0.2111786E+001  0.1576027E+01  0.7818608E-02  0.3379801E+00
         11   -1    0    0    0    0  0.00000000000E+00  0.00000000000E+00  0.39999999674E+01  0.40000000000E+01  0.51100000000E-03 0.  1.
    9000002   -1    0    0    0    0 -0.00000000000E+00 -0.00000000000E+00  0.00000000000E+00  0.93800000000E+00  0.93800000000E+00 0.  1.
         11    1    1    2    0    0  0.11409233534E+00  0.17120542869E+00  0.10261946885E+01  0.10466155740E+01  0.51100000000E-03 0.  1.
    9000002    1    1    2    0    0 -0.32088852641E+00 -0.40741220275E-01  0.88949673275E-01  0.99618539328E+00  0.93800000000E+00 0.  1.
         22    1    1    2    0    0  0.20679619106E+00 -0.13046420841E+00  0.28848556055E+01  0.28951990327E+01  0.00000000000E+00 0.  1.
</event>
<event>
 5    1  0.2291771E+001  0.1574202E+01  0.7818608E-02  0.3381848E+00
         11   -1    0    0    0    0  0.00000000000E+00  0.00000000000E+00  0.39999999674E+01  0.40000000000E+01  0.51100000000E-03 0. -1.
    9000002   -1    0    0    0    0 -0.00000000000E+00 -0.00000000000E+00  0.00000000000E+00  0.93800000000E+00  0.93800000000E+00 0. -1.
         11    1    1    2    0    0  0.17858790551E+00 -0.37068774698E-01  0.18610795835E+01  0.18699960458E+01  0.51100000000E-03 0. -1.
    9000002    1    1    2    0    0  0.23769418947E-01  0.21148850382E-01  0.19352596615E-01  0.93873893184E+00  0.93800000000E+00 0. -1.
         22    1    1    2    0    0 -0.20235732446E+00  0.15919924317E-01  0.21195677872E+01  0.21292650223E+01  0.00000000000E+00 0. -1.
</event>
<event>
 5    1  0.2111786E+001  0.1543179E+01  0.7818608E-02  0.3417442E+00
         11   -1    0    0    0    0  0.00000000000E+00  0.00000000000E+00  0.39999999674E+01  0.40000000000E+01  0.51100000000E-03 0. -1.
    9000002   -1    0    0    0    0 -0.00000000000E+00 -0.00000000000E+00  0.00000000000E+00  0.93800000000E+00  0.93800000000E+00 0. -1.
         11    1    1    2    0    0 -0.61327285861E-01  0.19896063959E+00  0.28615718518E+01  0.28691357751E+01  0.51100000000E-03 0. -1.
    9000002    1    1    2    0    0  0.33563571846E-01  0.76118596745E-01  0.46881972507E-01  0.94284806489E+00  0.93800000000E+00 0. -1.
         22    1    1    2    0    0  0.27763714015E-01 -0.27507923634E+00  0.10915461431E+01  0.11260161600E+01  0.00000000000E+00 0. -1.
</event>
<event>
 5    1  0.2111786E+001  0.1500303E+01  0.7818608E-02  0.3469228E+00
         11   -1    0    0    0    0  0.00000000000E+00  0.00000000000E+00  0.39999999674E+01  0.40000000000E+01  0.51100000000E-03 0.  1.
    9000002   -1    0    0    0    0 -0.00000000000E+00 -0.00000000000E+00  0.00000000000E+00  0.93800000000E+00  0.93800000000E+00 0.  1.
         11    1    1    2    0    0 -0.27872211204E+00  0.33917283998E+00  0.19078974525E+01  0.19577530952E+01  0.51100000000E-03 0.  1.
    9000002    1    1    2    0    0  0.10434722021E+00 -0.73368884699E-01  0.87583402786E-01  0.95067670007E+00  0.93800000000E+00 0.  1.
         22    1    1    2    0    0  0.17437489184E+00 -0.26580395528E+00  0.20045191120E+01  0.20295702048E+01  0.00000000000E+00 0. -1.
</event>
<event>
 5    1  0.2111786E+001  0.1564144E+01  0.7818608E-02  0.3393224E+00
         11   -1    0    0    0    0  0.00000000000E+00  0.00000000000E+00  0.39999999674E+01  0.40000000000E+01  0.51100000000E-03 0.  1.
    9000002   -1    0    0    0    0 -0.00000000000E+00 -0.00000000000E+00  0.00000000000E+00  0.93800000000E+00  0.93800000000E+00 0. -1.
         11    1    1    2    0    0 -0.40407722987E-02 -0.19757378067E+00  0.21286549774E+01  0.21378082235E+01  0.51100000000E-03 0.  1.
    9000002    1    1    2    0    0  0.10166792527E-01 -0.53548058482E-01  0.28197062872E-01  0.94000523009E+00  0.93800000000E+00 0. -1.
         22    1    1    2    0    0 -0.61260202281E-02  0.25112183916E+00  0.18431479271E+01  0.18601865464E+01  0.00000000000E+00 0. -1.
</event>
<event>
 5    1  0.2111786E+001  0.1586420E+01  0.7818608E-02  0.3368236E+00
         11   -1    0    0    0    0  0.00000000000E+00  0.00000000000E+00  0.39999999674E+01  0.40000000000E+01  0.51100000000E-03 0.  1.
    9000002   -1    0    0    0    0 -0.00000000000E+00 -0.00000000000E+00  0.00000000000E+00  0.93800000000E+00  0.93800000000E+00 0. -1.
         11    1    1    2    0    0  0.20518836547E-01 -0.18669281613E+00  0.14698020579E+01  0.14817535493E+01  0.51100000000E-03 0.  1.
    9000002    1    1    2    0    0  0.17805899834E+00  0.22663312483E+00  0.65741805391E-01  0.98348033287E+00  0.93800000000E+00 0. -1.
         22    1    1    2    0    0 -0.19857783489E+00 -0.39940308705E-01  0.24644561040E+01  0.24727661178E+01  0.00000000000E+00 0.  1.
</event>
<event>
 5    1  0.2111786E+001  0.1486848E+01  0.7818608E-02  0.3486141E+00
         11   -1    0    0    0    0  0.00000000000E+00  0.00000000000E+00  0.39999999674E+01  0.40000000000E+01  0.51100000000E-03 0. -1.
    9000002   -1    0    0    0    0 -0.00000000000E+00 -0.00000000000E+00  0.00000000000E+00  0.93800000000E+00  0.93800000000E+00 0. -1.
         11    1    1    2    0    0 -0.39269663378E+00  0.72856803037E-01  0.87603001820E+00  0.96278118689E+00  0.51100000000E-03 0. -1.
    9000002    1    1    2    0    0  0.26988210970E+00  0.10436930259E+00  0.14949171832E+00  0.99293558618E+00  0.93800000000E+00 0. -1.
         22    1    1    2    0    0  0.12281452408E+00 -0.17722610563E+00  0.29744782308E+01  0.29822832269E+01  0.00000000000E+00 0. -1.
</event>
<event>
 5    1  0.2111786E+001  0.1353626E+01  0.7818608E-02  0.3684217E+00
         11   -1    0    0    0    0  0.00000000000E+00  0.00000000000E+00  0.39999999674E+01  0.40000000000E+01  0.51100000000E-03 0.  1.
    9000002   -1    0    0    0    0 -0.00000000000E+00 -0.00000000000E+00  0.00000000000E+00  0.93800000000E+00  0.93800000000E+00 0.  1.
         11    1    1    2    0    0 -0.33127337094E+00  0.34446233001E+00  0.23207575684E+01  0.23694540079E+01  0.51100000000E-03 0.  1.
    9000002    1    1    2    0    0  0.32577382106E+00  0.34188638556E+00  0.41342942725E+00  0.11286198538E+01  0.93800000000E+00 0.  1.
         22    1    1    2    0    0  0.54995498821E-02 -0.68634871556E+00  0.12658129717E+01  0.14399261383E+01  0.00000000000E+00 0.  1.
</event>
<event>
 5    1  0.2111786E+001  0.1573296E+01  0.7818608E-02  0.3382867E+00
         11   -1    0    0    0    0  0.00000000000E+00  0.00000000000E+00  0.39999999674E+01  0.40000000000E+01  0.51100000000E-03 0.  1.
    9000002   -1    0    0    0    0 -0.00000000000E+00 -0.00000000000E+00  0.00000000000E+00  0.93800000000E+00  0.93800000000E+00 0. -1.
         11    1    1    2    0    0  0.14369524273E+00  0.12344182533E+00  0.15111555782E+01  0.15229831417E+01  0.51100000000E-03 0.  1.
    9000002    1    1    2    0    0  0.51764266049E-01 -0.70707867329E-01  0.24533167914E-01  0.94240385084E+00  0.93800000000E+00 0. -1.
         22    1    1    2    0    0 -0.19545950878E+00 -0.52733958001E-01  0.24643112212E+01  0.24726130075E+01  0.00000000000E+00 0. -1.
</event>
<event>
 5    1  0.2111786E+001  0.1565283E+01  0.7818608E-02  0.3391928E+00
         11   -1    0    0    0    0  0.00000000000E+00  0.00000000000E+00  0.39999999674E+01  0.40000000000E+01  0.51100000000E-03 0. -1.
    9000002   -1    0    0    0    0 -0.00000000000E+00 -0.00000000000E+00  0.00000000000E+00  0.93800000000E+00  0.93800000000E+00 0. -1.
         11    1    1    2    0    0  0.20860260678E+00 -0.52549068866E-01  0.21468036440E+01  0.21575547732E+01  0.51100000000E-03 0. -1.
    9000002    1    1    2    0    0  0.69830430156E-02 -0.25190301864E-01  0.25783569394E-01  0.93871833190E+00  0.93800000000E+00 0. -1.
         22    1    1    2    0    0 -0.21558564980E+00  0.77739370730E-01  0.18274127539E+01  0.18417268949E+01  0.00000000000E+00 0. -1.
</event>
<event>
 5    1  0.2111786E+001  0.1576534E+01  0.7818608E-02  0.3379234E+00
         11   -1    0    0    0    0  0.00000000000E+00  0.00000000000E+00  0.39999999674E+01  0.40000000000E+01  0.51100000000E-03 0. -1.
    9000002   -1    0    0    0    0 -0.00000000000E+00 -0.00000000000E+00  0.00000000000E+00  0.93800000000E+00  0.93800000000E+00 0. -1.
         11    1    1    2    0    0  0.52552786225E-01  0.55994569597E-01  0.22527333686E+01  0.22540419425E+01  0.51100000000E-03 0. -1.
    9000002    1    1    2    0    0  0.21271178869E+00 -0.57320174846E-02  0.47630079434E-01  0.96301183043E+00  0.93800000000E+00 0. -1.
         22    1    1    2    0    0 -0.26526457492E+00 -0.50262552113E-01  0.16996365193E+01  0.17209462271E+01  0.00000000000E+00 0. -1.
</event>
<event>
 5    1  0.2111786E+001  0.1565387E+01  0.7818608E-02  0.3391810E+00
         11   -1    0    0    0    0  0.00000000000E+00  0.00000000000E+00  0.39999999674E+01  0.40000000000E+01  0.51100000000E-03 0.  1.
    9000002   -1    0    0    0    0 -0.00000000000E+00 -0.00000000000E+00  0.00000000000E+00  0.93800000000E+00  0.93800000000E+00 0.  1.
         11    1    1    2    0    0  0.14324271352E+00  0.19247105461E+00  0.13461483144E+01  0.13673621054E+01  0.51100000000E-03 0.  1.
    9000002    1    1    2    0    0  0.69172015350E-01 -0.18313940676E+00  0.51478095868E-01  0.95959304102E+00  0.93800000000E+00 0.  1.
         22    1    1    2    0    0 -0.21241472887E+00 -0.93316478474E-02  0.26023735571E+01  0.26110448536E+01  0.00000000000E+00 0.  1.
</event>
<event>
 5    1  0.2111786E+001  0.1546429E+01  0.7818608E-02  0.3413642E+00
         11   -1    0    0    0    0  0.00000000000E+00  0.00000000000E+00  0.39999999674E+01  0.40000000000E+01  0.51100000000E-03 0. -1.
    9000002   -1    0    0    0    0 -0.00000000000E+00 -0.00000000000E+00  0.00000000000E+00  0.93800000000E+00  0.93800000000E+00 0.  1.
         11    1    1    2    0    0 -0.26775341971E+00  0.44533905073E-01  0.12103977412E+01  0.12404588326E+01  0.51100000000E-03 0. -1.
    9000002    1    1    2    0    0  0.49150902813E-01 -0.26230621263E-02  0.41255783624E-01  0.94019611326E+00  0.93800000000E+00 0.  1.
         22    1    1    2    0    0  0.21860251689E+00 -0.41910842947E-01  0.27483464426E+01  0.27573450541E+01  0.00000000000E+00 0. -1.
</event>
<event>
 5    1  0.2111786E+001  0.1493974E+01  0.7818608E-02  0.3477143E+00
         11   -1    0    0    0    0  0.00000000000E+00  0.00000000000E+00  0.39999999674E+01  0.40000000000E+01  0.51100000000E-03 0.  1.
    9000002   -1    0    0    0    0 -0.00000000000E+00 -0.00000000000E+00  0.00000000000E+00  0.93800000000E+00  0.93800000000E+00 0.  1.
         11    1    1    2    0    0 -0.61622369110E-01  0.32905919118E+00  0.33231574478E+01  0.33399779867E+01  0.51100000000E-03 0.  1.
    9000002    1    1    2    0    0  0.53965000065E-01 -0.52893999449E-01  0.84995912845E-01  0.94486946274E+00  0.93800000000E+00 0.  1.
         22    1    1    2    0    0  0.76573690451E-02 -0.27616519173E+00  0.59184660669E+00  0.65315255054E+00  0.00000000000E+00 0. -1.
</event>
<event>
 5    1  0.2111786E+001  0.1567128E+01  0.7818608E-02  0.3389833E+00
         11   -1    0    0    0    0  0.00000000000E+00  0.00000000000E+00  0.39999999674E+01  0.40000000000E+01  0.51100000000E-03 0.  1.
    9000002   -1    0    0    0    0 -0.00000000000E+00 -0.00000000000E+00  0.00000000000E+00  0.93800000000E+00  0.93800000000E+00 0.  1.
         11    1    1    2    0    0 -0.17545828503E+00  0.90194857541E-01  0.15586857415E+01  0.15711213269E+01  0.51100000000E-03 0.  1.
    9000002    1    1    2    0    0 -0.37919034393E-01  0.80440115757E-02  0.24959206136E-01  0.93913232362E+00  0.93800000000E+00 0.  1.
         22    1    1    2    0    0  0.21337731942E+00 -0.98238869117E-01  0.24163550198E+01  0.24277463495E+01  0.00000000000E+00 0. -1.
</event>
<event>
 5    1  0.2111786E+001  0.1442044E+01  0.7818608E-02  0.3544933E+00
         11   -1    0    0    0    0  0.00000000000E+00  0.00000000000E+00  0.39999999674E+01  0.40000000000E+01  0.51100000000E-03 0.  1.
    9000002   -1    0    0    0    0 -0.00000000000E+00 -0.00000000000E+00  0.00000000000E+00  0.93800000000E+00  0.93800000000E+00 0.  1.
         11    1    1    2    0    0 -0.13407463303E-01 -0.40971596812E+00  0.22831119195E+01  0.23196222176E+01  0.51100000000E-03 0.  1.
    9000002    1    1    2    0    0  0.25116918032E+00 -0.67286087361E-01  0.17761745850E+00  0.98944698507E+00  0.93800000000E+00 0.  1.
         22    1    1    2    0    0 -0.23776171702E+00  0.47700205548E+00  0.15392705894E+01  0.16289307973E+01  0.00000000000E+00 0.  1.
</event>
<event>
 5    1  0.2111786E+001  0.1573894E+01  0.7818608E-02  0.3382195E+00
         11   -1    0    0    0    0  0.00000000000E+00  0.00000000000E+00  0.39999999674E+01  0.40000000000E+01  0.51100000000E-03 0. -1.
    9000002   -1    0    0    0    0 -0.00000000000E+00 -0.00000000000E+00  0.00000000000E+00  0.93800000000E+00  0.93800000000E+00 0.  1.
         11    1    1    2    0    0  0.15715587362E-01 -0.99699907471E-01  0.28079942866E+00  0.29838839034E+00  0.51100000000E-03 0. -1.
    9000002    1    1    2    0    0 -0.20082357049E+00 -0.11353336442E-01  0.46371371449E-01  0.96044432884E+00  0.93800000000E+00 0.  1.
         22    1    1    2    0    0  0.18510798313E+00  0.11105324391E+00  0.36728291673E+01  0.36791672808E+01  0.00000000000E+00 0. -1.
</event>
<event>
 5    1  0.2111786E+001  0.1583144E+01  0.7818608E-02  0.3371864E+00
         11   -1    0    0    0    0  0.00000000000E+00  0.00000000000E+00  0.39999999674E+01  0.40000000000E+01  0.51100000000E-03 0.  1.
    9000002   -1    0    0    0    0 -0.00000000000E+00 -0.00000000000E+00  0.00000000000E+00  0.93800000000E+00  0.93800000000E+00 0. -1.
         11    1    1    2    0    0  0.95074908738E-01  0.21413526378E-01  0.56402426799E+00  0.57238222665E+00  0.51100000000E-03 0.  1.
    9000002    1    1    2    0    0  0.19595051846E-01  0.17454927989E+00  0.32790198948E-01  0.95486680449E+00  0.93800000000E+00 0. -1.
         22    1    1    2    0    0 -0.11466996058E+00 -0.19596280627E+00  0.34031855004E+01  0.34107509689E+01  0.00000000000E+00 0.  1.
</event>
<event>
 5    1  0.2111786E+001  0.1485253E+01  0.7818608E-02  0.3488169E+00
         11   -1    0    0    0    0  0.00000000000E+00  0.00000000000E+00  0.39999999674E+01  0.40000000000E+01  0.51100000000E-03 0. -1.
    9000002   -1    0    0    0    0 -0.00000000000E+00 -0.00000000000E+00  0.00000000000E+00  0.93800000000E+00  0.93800000000E+00 0.  1.
         11    1    1    2    0    0 -0.46172814278E+00  0.49705950394E+00  0.33482603093E+01  0.34163003949E+01  0.51100000000E-03 0. -1.
    9000002    1    1    2    0    0  0.45061798224E+00 -0.28980782270E+00  0.31339497831E+00  0.11247691107E+01  0.93800000000E+00 0.  1.
         22    1    1    2    0    0  0.11110160535E-01 -0.20725168124E+00  0.33834467975E+00  0.39693049437E+00  0.00000000000E+00 0.  1.
</event>
<event>
 5    1  0.2111786E+001  0.1490883E+01  0.7818608E-02  0.3481035E+00
         11   -1    0    0    0    0  0.00000000000E+00  0.00000000000E+00  0.39999999674E+01  0.40000000000E+01  0.51100000000E-03 0. -1.
    9000002   -1    0    0    0    0 -0.00000000000E+00 -0.00000000000E+00  0.00000000000E+00  0.93800000000E+00  0.93800000000E+00 0. -1.
         11    1    1    2    0    0 -0.92847364932E-01  0.44697353546E+00  0.13632525235E+01  0.14376590968E+01  0.51100000000E-03 0. -1.
    9000002    1    1    2    0    0  0.27727756038E+00 -0.18254212519E+00  0.16613955512E+00  0.10087868084E+01  0.93800000000E+00 0. -1.
         22    1    1    2    0    0 -0.18443019545E+00 -0.26443141027E+00  0.24706078887E+01  0.24915540949E+01  0.00000000000E+00 0. -1.
</event>
<event>
 5    1  0.2111786E+001  0.1508199E+01  0.7818608E-02  0.3459454E+00
         11   -1    0    0    0    0  0.00000000000E+00  0.00000000000E+00  0.39999999674E+01  0.40000000000E+01  0.51100000000E-03 0.  1.
    9000002   -1    0    0    0    0 -0.00000000000E+00 -0.00000000000E+00  0.00000000000E+00  0.93800000000E+00  0.93800000000E+00 0.  1.
         11    1    1    2    0    0 -0.22641863574E+00  0.47051293203E+00  0.18936348786E+01  0.19643067817E+01  0.51100000000E-03 0.  1.
    9000002    1    1    2    0    0  0.93812259157E-01 -0.31127289082E+00  0.14719509540E+00  0.10035945141E+01  0.93800000000E+00 0.  1.
         22    1    1    2    0    0  0.13260637658E+00 -0.15924004121E+00  0.19591699933E+01  0.19700987043E+01  0.00000000000E+00 0.  1.
</event>
<event>
 5    1  0.2111786E+001  0.1580822E+01  0.7818608E-02  0.3374446E+00
         11   -1    0    0    0    0  0.00000000000E+00  0.00000000000E+00  0.39999999674E+01  0.40000000000E+01  0.51100000000E-03 0.  1.
    9000002   -1    0    0    0    0 -0.00000000000E+00 -0.00000000000E+00  0.00000000000E+00  0.93800000000E+00  0.93800000000E+00 0. -1.
         11    1    1    2    0    0 -0.13388964299E+00  0.27587553231E-01  0.17920011238E+01  0.17972077784E+01  0.51100000000E-03 0.  1.
    9000002    1    1    2    0    0 -0.66962772877E-01 -0.36671278470E-01  0.17683229071E-01  0.94126802358E+00  0.93800000000E+00 0. -1.
         22    1    1    2    0    0  0.20085241586E+00  0.90837252391E-02  0.21903156144E+01  0.21995241981E+01  0.00000000000E+00 0.  1.
</event>
<event>
 5    1  0.2111786E+001  0.1566217E+01  0.7818608E-02  0.3390867E+00
         11   -1    0    0    0    0  0.00000000000E+00  0.00000000000E+00  0.39999999674E+01  0.40000000000E+01  0.51100000000E-03 0. -1.
    9000002   -1    0    0    0    0 -0.00000000000E+00 -0.00000000000E+00  0.00000000000E+00  0.93800000000E+00  0.93800000000E+00 0. -1.
         11    1    1    2    0    0 -0.13862615462E+00  0.15313347223E+00  0.10988182717E+01  0.11180648131E+01  0.51100000000E-03 0. -1.
    9000002    1    1    2    0    0 -0.83000557785E-01 -0.14306725333E+00  0.43299671053E-01  0.95345487207E+00  0.93800000000E+00 0. -1.
         22    1    1    2    0    0  0.22162671241E+00 -0.10066218900E-01  0.28578820246E+01  0.28664803148E+01  0.00000000000E+00 0. -1.
</event>
<event>
 5    1  0.2111786E+001  0.1558791E+01  0.7818608E-02  0.3399342E+00
         11   -1    0    0    0    0  0.00000000000E+00  0.00000000000E+00  0.39999999674E+01  0.40000000000E+01  0.51100000000E-03 0.  1.
    9000002   -1    0    0    0    0 -0.00000000000E+00 -0.00000000000E+00  0.00000000000E+00  0.93800000000E+00  0.93800000000E+00 0. -1.
         11    1    1    2    0    0 -0.29087637933E-01  0.29221272926E+00  0.20376985389E+01  0.20587496124E+01  0.51100000000E-03 0.  1.
    9000002    1    1    2    0    0 -0.96020920564E-01 -0.12036919125E+00  0.46497462187E-01  0.95169048192E+00  0.93800000000E+00 0. -1.
         22    1    1    2    0    0  0.12510855850E+00 -0.17184353802E+00  0.19158039662E+01  0.19275599057E+01  0.00000000000E+00 0.  1.
</event>
<event>
 5    1  0.2111786E+001  0.1553463E+01  0.7818608E-02  0.3405476E+00
         11   -1    0    0    0    0  0.00000000000E+00  0.00000000000E+00  0.39999999674E+01  0.40000000000E+01  0.51100000000E-03 0. -1.
    9000002   -1    0    0    0    0 -0.00000000000E+00 -0.00000000000E+00  0.00000000000E+00  0.93800000000E+00  0.93800000000E+00 0.  1.
         11    1    1    2    0    0 -0.17069053139E+00  0.17314572410E+00  0.11887284222E+01  0.12133384615E+01  0.51100000000E-03 0. -1.
    9000002    1    1    2    0    0 -0.11309524349E+00 -0.17301084228E+00  0.63851112873E-01  0.96262362856E+00  0.93800000000E+00 0.  1.
         22    1    1    2    0    0  0.28378577488E+00 -0.13488181927E-03  0.27474204322E+01  0.27620379099E+01  0.00000000000E+00 0.  1.
</event>
<event>
 5    1  0.2765466E+001  0.1568051E+01  0.7818608E-02  0.3388787E+00
         11   -1    0    0    0    0  0.00000000000E+00  0.00000000000E+00  0.39999999674E+01  0.40000000000E+01  0.51100000000E-03 0.  1.
    9000002   -1    0    0    0    0 -0.00000000000E+00 -0.00000000000E+00  0.00000000000E+00  0.93800000000E+00  0.93800000000E+00 0. -1.
         11    1    1    2    0    0  0.65609498601E-01  0.19031622574E+00  0.15664307832E+01  0.15793133102E+01  0.51100000000E-03 0.  1.
    9000002    1    1    2    0    0 -0.75146993730E-04  0.21011005665E-01  0.23548277687E-01  0.93853076102E+00  0.93800000000E+00 0. -1.
         22    1    1    2    0    0 -0.65534351608E-01 -0.21132723140E+00  0.24100209065E+01  0.24201559288E+01  0.00000000000E+00 0.  1.
</event>
<event>
 5    1  0.2111786E+001  0.1563565E+01  0.7818608E-02  0.3393884E+00
         11   -1    0    0    0    0  0.00000000000E+00  0.00000000000E+00  0.39999999674E+01  0.40000000000E+01  0.51100000000E-03 0.  1.
    9000002   -1    0    0    0    0 -0.00000000000E+00 -0.00000000000E+00  0.00000000000E+00  0.93800000000E+00  0.93800000000E+00 0.  1.
         11    1    1    2    0    0 -0.20182686019E+00  0.14694168282E+00  0.21433141085E+01  0.21578048032E+01  0.51100000000E-03 0.  1.
    9000002    1    1    2    0    0  0.91448637030E-01  0.41645081094E-01  0.33500285989E-01  0.94396156445E+00  0.93800000000E+00 0.  1.
         22    1    1    2    0    0  0.11037822316E+00 -0.18858676391E+00  0.18231855729E+01  0.18362336324E+01  0.00000000000E+00 0.  1.
</event>
<event>
 5    1  0.2111786E+001  0.1560288E+01  0.7818608E-02  0.3397626E+00
         11   -1    0    0    0    0  0.00000000000E+00  0.00000000000E+00  0.39999999674E+01  0.40000000000E+01  0.51100000000E-03 0. -1.
    9000002   -1    0    0    0    0 -0.00000000000E+00 -0.00000000000E+00  0.00000000000E+00  0.93800000000E+00  0.93800000000E+00 0.  1.
         11    1    1    2    0    0 -0.14657367058E+00  0.89976257603E-01  0.61599710749E+00  0.63955630354E+00  0.51100000000E-03 0. -1.
    9000002    1    1    2    0    0  0.47512753048E-01  0.93581124229E-01  0.36614557219E-01  0.94456313411E+00  0.93800000000E+00 0.  1.
         22    1    1    2    0    0  0.99060917535E-01 -0.18355738183E+00  0.33473883026E+01  0.33538805624E+01  0.00000000000E+00 0. -1.
</event>
<event>
 5    1  0.2111786E+001  0.1551499E+01  0.7818608E-02  0.3407748E+00
         11   -1    0    0    0    0  0.00000000000E+00  0.00000000000E+00  0.39999999674E+01  0.40000000000E+01  0.51100000000E-03 0. -1.
    9000002   -1    0    0    0    0 -0.00000000000E+00 -0.00000000000E+00  0.00000000000E+00  0.93800000000E+00  0.93800000000E+00 0. -1.
         11    1    1    2    0    0  0.62012219309E-01  0.15871929540E+00  0.50180066673E+00  0.52994480876E+00  0.51100000000E-03 0. -1.
    9000002    1    1    2    0    0 -0.19284495224E-01  0.65070730076E-01  0.38894615356E-01  0.94125601341E+00  0.93800000000E+00 0. -1.
         22    1    1    2    0    0 -0.42727724086E-01 -0.22379002547E+00  0.34593046853E+01  0.34667991778E+01  0.00000000000E+00 0.  1.
</event>
<event>
 5    1  0.2111786E+001  0.1549694E+01  0.7818608E-02  0.3409841E+00
         11   -1    0    0    0    0  0.00000000000E+00  0.00000000000E+00  0.39999999674E+01  0.40000000000E+01  0.51100000000E-03 0. -1.
    9000002   -1    0    0    0    0 -0.00000000000E+00 -0.00000000000E+00  0.00000000000E+00  0.93800000000E+00  0.93800000000E+00 0.  1.
         11    1    1    2    0    0  0.14860908252E+00 -0.20829506844E+00  0.21814930762E+01  0.21964479957E+01  0.51100000000E-03 0. -1.
    9000002    1    1    2    0    0  0.15742738525E+00  0.14831156724E+00  0.69674564199E-01  0.96513120740E+00  0.93800000000E+00 0.  1.
         22    1    1    2    0    0 -0.30603646777E+00  0.59983501197E-01  0.17488323269E+01  0.17764207969E+01  0.00000000000E+00 0. -1.
</event>
<event>
 5    1  0.2111786E+001  0.1530040E+01  0.7818608E-02  0.3432981E+00
         11   -1    0    0    0    0  0.00000000000E+00  0.00000000000E+00  0.39999999674E+01  0.40000000000E+01  0.51100000000E-03 0.  1.
    9000002   -1    0    0    0    0 -0.00000000000E+00 -0.00000000000E+00  0.00000000000E+00  0.93800000000E+00  0.93800000000E+00 0. -1.
         11    1    1    2    0    0  0.21590806349E+00  0.16117992676E-01  0.31071008636E+01  0.31146351503E+01  0.51100000000E-03 0.  1.
    9000002    1    1    2    0    0  0.58163843915E-01 -0.28134410009E-01  0.55146806325E-01  0.94183849359E+00  0.93800000000E+00 0. -1.
         22    1    1    2    0    0 -0.27407190740E+00  0.12016417333E-01  0.83775229740E+00  0.88152635611E+00  0.00000000000E+00 0.  1.
</event>
<event>
 5    1  0.2111786E+001  0.1524948E+01  0.7818608E-02  0.3439081E+00
         11   -1    0    0    0    0  0.00000000000E+00  0.00000000000E+00  0.39999999674E+01  0.40000000000E+01  0.51100000000E-03 0.  1.
    9000002   -1    0    0    0    0 -0.00000000000E+00 -0.00000000000E+00  0.00000000000E+00  0.93800000000E+00  0.93800000000E+00 0.  1.
         11    1    1    2    0    0 -0.29946849779E+00  0.21943283940E-01  0.33796427897E+01  0.33929557226E+01  0.51100000000E-03 0.  1.
    9000002    1    1    2    0    0  0.79433247410E-01 -0.46859915291E-01  0.62209780503E-01  0.94457373944E+00  0.93800000000E+00 0.  1.
         22    1    1    2    0    0  0.22003525038E+00  0.24916631351E-01  0.55814739720E+00  0.60047053793E+00  0.00000000000E+00 0. -1.
</event>
<event>
 5    1  0.2111786E+001  0.1538595E+01  0.7818608E-02  0.3422831E+00
         11   -1    0    0    0    0  0.00000000000E+00  0.00000000000E+00  0.39999999674E+01  0.40000000000E+01  0.51100000000E-03 0.  1.
    9000002   -1    0    0    0    0 -0.00000000000E+00 -0.00000000000E+00  0.00000000000E+00  0.93800000000E+00  0.93800000000E+00 0.  1.
         11    1    1    2    0    0 -0.18701307823E+00  0.15137552796E+00  0.10805601551E+01  0.11070225616E+01  0.51100000000E-03 0.  1.
    9000002    1    1    2    0    0  0.26073902261E-01  0.16128318665E+00  0.64328790658E-01  0.95429256938E+00  0.93800000000E+00 0.  1.
         22    1    1    2    0    0  0.16093917597E+00 -0.31265871461E+00  0.28551110216E+01  0.28766848690E+01  0.00000000000E+00 0.  1.
</event>
<event>
 5    1  0.2111786E+001  0.1562737E+01  0.7818608E-02  0.3394828E+00
         11   -1    0    0    0    0  0.00000000000E+00  0.00000000000E+00  0.39999999674E+01  0.40000000000E+01  0.51100000000E-03 0.  1.
    9000002   -1    0    0    0    0 -0.00000000000E+00 -0.00000000000E+00  0.00000000000E+00  0.93800000000E+00  0.93800000000E+00 0.  1.
         11    1    1    2    0    0 -0.47852518894E-01  0.34761872904E+00  0.16630150989E+01  0.16996317615E+01  0.51100000000E-03 0.  1.
    9000002    1    1    2    0    0  0.31198666140E+00 -0.31203861589E+00  0.16447490259E+00  0.10495712307E+01  0.93800000000E+00 0.  1.
         22    1    1    2    0    0 -0.26413414251E+00 -0.35580113151E-01  0.21725099659E+01  0.21887970078E+01  0.00000000000E+00 0.  1.
</event>
<event>
 5    1  0.2111786E+001  0.1472865E+01  0.7818608E-02  0.3504073E+00
         11   -1    0    0    0    0  0.00000000000E+00  0.00000000000E+00  0.39999999674E+01  0.40000000000E+01  0.51100000000E-03 0.  1.
    9000002   -1    0    0    0    0 -0.00000000000E+00 -0.00000000000E+00  0.00000000000E+00  0.93800000000E+00  0.93800000000E+00 0. -1.
         11    1    1    2    0    0  0.27509856916E+00 -0.27164066724E+00  0.12808381716E+01  0.13379142565E+01  0.51100000000E-03 0.  1.
    9000002    1    1    2    0    0 -0.10125322094E+00 -0.15720266065E+00  0.12454879966E+00  0.96453164529E+00  0.93800000000E+00 0. -1.
         22    1    1    2    0    0 -0.17384534822E+00  0.42884332789E+00  0.25946129961E+01  0.26355540982E+01  0.00000000000E+00 0.  1.
</event>
<event>
 5    1  0.2111786E+001  0.1543767E+01  0.7818608E-02  0.3416754E+00
         11   -1    0    0    0    0  0.00000000000E+00  0.00000000000E+00  0.39999999674E+01  0.40000000000E+01  0.51100000000E-03 0. -1.
    9000002   -1    0    0    0    0 -0.00000000000E+00 -0.00000000000E+00  0.00000000000E+00  0.93800000000E+00  0.93800000000E+00 0.  1.
         11    1    1    2    0    0 -0.21530027830E+00 -0.21186070903E+00  0.25201533671E+01  0.25381907779E+01  0.51100000000E-03 0. -1.
    9000002    1    1    2    0    0  0.94141158327E-01 -0.21117315651E-01  0.48094525132E-01  0.94417455063E+00  0.93800000000E+00 0.  1.
         22    1    1    2    0    0  0.12115911997E+00  0.23297802468E+00  0.14317520751E+01  0.14556346715E+01  0.00000000000E+00 0.  1.
</event>
<event>
 5    1  0.2111786E+001  0.1583290E+01  0.7818608E-02  0.3371702E+00
         11   -1    0    0    0    0  0.00000000000E+00  0.00000000000E+00  0.39999999674E+01  0.40000000000E+01  0.51100000000E-03 0.  1.
    9000002   -1    0    0    0    0 -0.00000000000E+00 -0.00000000000E+00  0.00000000000E+00  0.93800000000E+00  0.93800000000E+00 0.  1.
         11    1    1    2    0    0  0.41605863608E-01 -0.12856935724E+00  0.14425545733E+01  0.14488702791E+01  0.51100000000E-03 0.  1.
    9000002    1    1    2    0    0 -0.17784396750E+00 -0.48994060202E-01  0.34825422458E-01  0.95660112103E+00  0.93800000000E+00 0.  1.
         22    1    1    2    0    0  0.13623810390E+00  0.17756341744E+00  0.25226199716E+01  0.25325285999E+01  0.00000000000E+00 0.  1.
</event>
<event>
 5    1  0.2111786E+001  0.1552008E+01  0.7818608E-02  0.3407159E+00
         11   -1    0    0    0    0  0.00000000000E+00  0.00000000000E+00  0.39999999674E+01  0.40000000000E+01  0.51100000000E-03 0.  1.
    9000002   -1    0    0    0    0 -0.00000000000E+00 -0.00000000000E+00  0.00000000000E+00  0.93800000000E+00  0.93800000000E+00 0. -1.
         11    1    1    2    0    0  0.50786278318E+00 -0.30788111713E+00  0.27914331325E+01  0.28539121541E+01  0.51100000000E-03 0.  1.
    9000002    1    1    2    0    0 -0.48064307569E+00  0.60479604835E+00  0.49755140608E+00  0.13130869842E+01  0.93800000000E+00 0. -1.
         22    1    1    2    0    0 -0.27219707484E-01 -0.29691493122E+00  0.71101542879E+00  0.77100086176E+00  0.00000000000E+00 0.  1.
</event>
<event>
 5    1  0.2111786E+001  0.1541917E+01  0.7818608E-02  0.3418922E+00
         11   -1    0    0    0    0  0.00000000000E+00  0.00000000000E+00  0.39999999674E+01  0.40000000000E+01  0.51100000000E-03 0. -1.
    9000002   -1    0    0    0    0 -0.00000000000E+00 -0.00000000000E+00  0.00000000000E+00  0.93800000000E+00  0.93800000000E+00 0. -1.
         11    1    1    2    0    0 -0.15379552323E-01 -0.27936479752E+00  0.26063796595E+01  0.26213539271E+01  0.51100000000E-03 0. -1.
    9000002    1    1    2    0    0  0.15665114766E+00  0.30092344665E-01  0.60834056247E-01  0.95340962533E+00  0.93800000000E+00 0. -1.
         22    1    1    2    0    0 -0.14127159534E+00  0.24927245286E+00  0.13327862516E+01  0.13632364475E+01  0.00000000000E+00 0. -1.
</event>
<event>
 5    1  0.2111786E+001  0.1540285E+01  0.7818608E-02  0.3420841E+00
         11   -1    0    0    0    0  0.00000000000E+00  0.00000000000E+00  0.39999999674E+01  0.40000000000E+01  0.51100000000E-03 0.  1.
    9000002   -1    0    0    0    0 -0.00000000000E+00 -0.00000000000E+00  0.00000000000E+00  0.93800000000E+00  0.93800000000E+00 0.  1.
         11    1    1    2    0    0 -0.20268539038E+00 -0.16661807043E+00  0.10402684013E+01  0.10728474061E+01  0.51100000000E-03 0.  1.
    9000002    1    1    2    0    0 -0.87646058876E-01  0.14760528603E+00  0.64952727793E-01  0.95578868425E+00  0.93800000000E+00 0.  1.
         22    1    1    2    0    0  0.29033144925E+00  0.19012784402E-01  0.28947788383E+01  0.29093639097E+01  0.00000000000E+00 0.  1.
</event>
<event>
 5    1  0.2111786E+001  0.1311050E+01  0.7818608E-02  0.3761010E+00
         11   -1    0    0    0    0  0.00000000000E+00  0.00000000000E+00  0.39999999674E+01  0.40000000000E+01  0.51100000000E-03 0. -1.
    9000002   -1    0    0    0    0 -0.00000000000E+00 -0.00000000000E+00  0.00000000000E+00  0.93800000000E+00  0.93800000000E+00 0.  1.
         11    1    1    2    0    0  0.76619702226E+00 -0.25242694888E+00  0.27410235404E+01  0.28572692473E+01  0.51100000000E-03 0. -1.
    9000002    1    1    2    0    0 -0.38749759433E+00 -0.55251949106E-01  0.39885834165E+00  0.10918512445E+01  0.93800000000E+00 0.  1.
         22    1    1    2    0    0 -0.37869942793E+00  0.30767889798E+00  0.86011808529E+00  0.98887950814E+00  0.00000000000E+00 0.  1.
</event>
<event>
 5    1  0.2111786E+001  0.1476835E+01  0.7818608E-02  0.3498944E+00
         11   -1    0    0    0    0  0.00000000000E+00  0.00000000000E+00  0.39999999674E+01  0.40000000000E+01  0.51100000000E-03 0. -1.
    9000002   -1    0    0    0    0 -0.00000000000E+00 -0.00000000000E+00  0.00000000000E+00  0.93800000000E+00  0.93800000000E+00 0.  1.
         11    1    1    2    0    0 -0.29572960747E-01  0.62477180342E+00  0.11183078845E+01  0.12813380319E+01  0.51100000000E-03 0. -1.
    9000002    1    1    2    0    0 -0.24396954022E+00 -0.70728494655E+00  0.57172566794E+00  0.13290926873E+01  0.93800000000E+00 0.  1.
         22    1    1    2    0    0  0.27354250097E+00  0.82513143130E-01  0.23099664149E+01  0.23275692808E+01  0.00000000000E+00 0. -1.
</event>
<event>
 5    1  0.2111786E+001  0.1563593E+01  0.7818608E-02  0.3393851E+00
         11   -1    0    0    0    0  0.00000000000E+00  0.00000000000E+00  0.39999999674E+01  0.40000000000E+01  0.51100000000E-03 0. -1.
    9000002   -1    0    0    0    0 -0.00000000000E+00 -0.00000000000E+00  0.00000000000E+00  0.93800000000E+00  0.93800000000E+00 0. -1.
         11    1    1    2    0    0 -0.15889800416E+00 -0.20430988767E+00  0.26965181844E+01  0.27089115316E+01  0.51100000000E-03 0. -1.
    9000002    1    1    2    0    0 -0.42853480762E-01  0.15286224773E+00  0.43833795136E-01  0.95234903748E+00  0.93800000000E+00 0. -1.
         22    1    1    2    0    0  0.20175148492E+00  0.51447639934E-01  0.12596479878E+01  0.12767394309E+01  0.00000000000E+00 0. -1.
</event>
<event>
 5    1  0.2111786E+001  0.1513910E+01  0.7818608E-02  0.3452453E+00
         11   -1    0    0    0    0  0.00000000000E+00  0.00000000000E+00  0.39999999674E+01  0.40000000000E+01  0.51100000000E-03 0.  1.
    9000002   -1    0    0    0    0 -0.00000000000E+00 -0.00000000000E+00  0.00000000000E+00  0.93800000000E+00  0.93800000000E+00 0.  1.
         11    1    1    2    0    0 -0.87018426345E-01  0.22210817794E+00  0.24131507738E+00  0.33931913728E+00  0.51100000000E-03 0.  1.
    9000002    1    1    2    0    0  0.37596240112E+00 -0.51837166323E+00  0.38427057121E+00  0.11989848957E+01  0.93800000000E+00 0.  1.
         22    1    1    2    0    0 -0.28894397478E+00  0.29626348529E+00  0.33744143188E+01  0.33996959670E+01  0.00000000000E+00 0.  1.
</event>
<event>
 5    1  0.2111786E+001  0.1569820E+01  0.7818608E-02  0.3386786E+00
         11   -1    0    0    0    0  0.00000000000E+00  0.00000000000E+00  0.39999999674E+01  0.40000000000E+01  0.51100000000E-03 0. -1.
    9000002   -1    0    0    0    0 -0.00000000000E+00 -0.00000000000E+00  0.00000000000E+00  0.93800000000E+00  0.93800000000E+00 0.  1.
         11    1    1    2    0    0  0.11673333395E+00  0.13280813446E+00  0.15577750744E+01  0.15677780823E+01  0.51100000000E-03 0. -1.
    9000002    1    1    2    0    0 -0.20013456178E+00  0.16936409477E+00  0.69009689220E-01  0.97639355622E+00  0.93800000000E+00 0.  1.
         22    1    1    2    0    0  0.83401227829E-01 -0.30217222923E+00  0.23732152038E+01  0.23938283615E+01  0.00000000000E+00 0. -1.
</event>
<event>
 5    1  0.2111786E+001  0.1406033E+01  0.7818608E-02  0.3597253E+00
         11   -1    0    0    0    0  0.00000000000E+00  0.00000000000E+00  0.39999999674E+01  0.40000000000E+01  0.51100000000E-03 0. -1.
    9000002   -1    0    0    0    0 -0.00000000000E+00 -0.00000000000E+00  0.00000000000E+00  0.93800000000E+00  0.93800000000E+00 0. -1.
         11    1    1    2    0    0  0.42741198697E+00  0.57270790951E+00  0.32150910500E+01  0.32935521974E+01  0.51100000000E-03 0. -1.
    9000002    1    1    2    0    0 -0.23004863185E+00 -0.33068372342E+00  0.29349026731E+00  0.10621933134E+01  0.93800000000E+00 0. -1.
         22    1    1    2    0    0 -0.19736335512E+00 -0.24202418608E+00  0.49141865002E+00  0.58225448919E+00  0.00000000000E+00 0. -1.
</event>
<event>
 5    1  0.2111786E+001  0.1504966E+01  0.7818608E-02  0.3463442E+00
         11   -1    0    0    0    0  0.00000000000E+00  0.00000000000E+00  0.39999999674E+01  0.40000000000E+01  0.51100000000E-03 0. -1.
    9000002   -1    0    0    0    0 -0.00000000000E+00 -0.00000000000E+00  0.00000000000E+00  0.93800000000E+00  0.93800000000E+00 0. -1.
         11    1    1    2    0    0  0.26437188703E+00  0.58613579669E-01  0.55089018295E+00  0.61384713176E+00  0.51100000000E-03 0. -1.
    9000002    1    1    2    0    0 -0.42336155618E-01 -0.79646402962E-01  0.77864658621E-01  0.94553836762E+00  0.93800000000E+00 0. -1.
         22    1    1    2    0    0 -0.22203573141E+00  0.21032823293E-01  0.33712451258E+01  0.33786145006E+01  0.00000000000E+00 0. -1.
</event>
<event>
 5    1  0.2111786E+001  0.1564320E+01  0.7818608E-02  0.3393023E+00
         11   -1    0    0    0    0  0.00000000000E+00  0.00000000000E+00  0.39999999674E+01  0.40000000000E+01  0.51100000000E-03 0. -1.
    9000002   -1    0    0    0    0 -0.00000000000E+00 -0.00000000000E+00  0.00000000000E+00  0.93800000000E+00  0.93800000000E+00 0.  1.
         11    1    1    2    0    0 -0.16402509529E-01 -0.88872106477E-01  0.21444088100E+01  0.21463123489E+01  0.51100000000E-03 0. -1.
    9000002    1    1    2    0    0 -0.28724457583E+00 -0.10095244303E+00  0.90143597605E-01  0.99028819557E+00  0.93800000000E+00 0.  1.
         22    1    1    2    0    0  0.30364708536E+00  0.18982454950E+00  0.17654475598E+01  0.18013994555E+01  0.00000000000E+00 0. -1.
</event>
<event>
 5    1  0.2111786E+001  0.1563366E+01  0.7818608E-02  0.3394111E+00
         11   -1    0    0    0    0  0.00000000000E+00  0.00000000000E+00  0.39999999674E+01  0.40000000000E+01  0.51100000000E-03 0.  1.
    9000002   -1    0    0    0    0 -0.00000000000E+00 -0.00000000000E+00  0.00000000000E+00  0.93800000000E+00  0.93800000000E+00 0. -1.
         11    1    1    2    0    0  0.57526288490E-01  0.95928180120E-01  0.22215232876E+00  0.24872355719E+00  0.51100000000E-03 0.  1.
    9000002    1    1    2    0    0 -0.22747179703E+00  0.55365770956E-01  0.64456302664E-01  0.96892074082E+00  0.93800000000E+00 0. -1.
         22    1    1    2    0    0  0.16994550853E+00 -0.15129395108E+00  0.37133913359E+01  0.37203557020E+01  0.00000000000E+00 0.  1.
</event>
<event>
 5    1  0.2111786E+001  0.1486671E+01  0.7818608E-02  0.3486367E+00
         11   -1    0    0    0    0  0.00000000000E+00  0.00000000000E+00  0.39999999674E+01  0.40000000000E+01  0.51100000000E-03 0.  1.
    9000002   -1    0    0    0    0 -0.00000000000E+00 -0.00000000000E+00  0.00000000000E+00  0.93800000000E+00  0.93800000000E+00 0. -1.
         11    1    1    2    0    0 -0.32220318717E+00  0.39269529097E+00  0.20117492135E+01  0.20748878631E+01  0.51100000000E-03 0.  1.
    9000002    1    1    2    0    0  0.20988313515E+00 -0.94234694500E-01  0.12627185863E+00  0.97402242805E+00  0.93800000000E+00 0. -1.
         22    1    1    2    0    0  0.11232005202E+00 -0.29846059647E+00  0.18619788952E+01  0.18890897088E+01  0.00000000000E+00 0. -1.
</event>
<event>
 5    1  0.2111786E+001  0.1552397E+01  0.7818608E-02  0.3406708E+00
         11   -1    0    0    0    0  0.00000000000E+00  0.00000000000E+00  0.39999999674E+01  0.40000000000E+01  0.51100000000E-03 0.  1.
    9000002   -1    0    0    0    0 -0.00000000000E+00 -0.00000000000E+00  0.00000000000E+00  0.93800000000E+00  0.93800000000E+00 0.  1.
         11    1    1    2    0    0  0.19070514085E+00  0.15891639606E+00  0.13139651029E+01  0.13372088186E+01  0.51100000000E-03 0.  1.
    9000002    1    1    2    0    0  0.94295809284E-01 -0.15360471981E+00  0.57546565739E-01  0.95689169545E+00  0.93800000000E+00 0.  1.
         22    1    1    2    0    0 -0.28500095013E+00 -0.53116762506E-02  0.26284882987E+01  0.26438994860E+01  0.00000000000E+00 0.  1.
</event>
<event>
 5    1  0.2111786E+001  0.1574530E+01  0.7818608E-02  0.3381480E+00
         11   -1    0    0    0    0  0.00000000000E+00  0.00000000000E+00  0.39999999674E+01  0.40000000000E+01  0.51100000000E-03 0. -1.
    9000002   -1    0    0    0    0 -0.00000000000E+00 -0.00000000000E+00  0.00000000000E+00  0.93800000000E+00  0.93800000000E+00 0. -1.
         11    1    1    2    0    0  0.13526552743E+00 -0.10197841896E+00  0.22420547245E+01  0.22484452427E+01  0.51100000000E-03 0. -1.
    9000002    1    1    2    0    0  0.26393558332E-01 -0.23700834840E-01  0.19275126743E-01  0.93886840399E+00  0.93800000000E+00 0. -1.
         22    1    1    2    0    0 -0.16165908577E+00  0.12567925380E+00  0.17386701161E+01  0.17506863533E+01  0.00000000000E+00 0. -1.
</event>
<event>
 5    1  0.2322242E+001  0.1566091E+01  0.7818608E-02  0.3391010E+00
         11   -1    0    0    0    0  0.00000000000E+00  0.00000000000E+00  0.39999999674E+01  0.40000000000E+01  0.51100000000E-03 0. -1.
    9000002   -1    0    0    0    0 -0.00000000000E+00 -0.00000000000E+00  0.00000000000E+00  0.93800000000E+00  0.93800000000E+00 0. -1.
         11    1    1    2    0    0  0.62033986960E-01  0.19851216376E+00  0.17463394250E+01  0.17586804551E+01  0.51100000000E-03 0. -1.
    9000002    1    1    2    0    0 -0.11387691218E-01  0.29163789426E-01  0.25380242731E-01  0.93886546579E+00  0.93800000000E+00 0. -1.
         22    1    1    2    0    0 -0.50646295742E-01 -0.22767595318E+00  0.22282802997E+01  0.22404540792E+01  0.00000000000E+00 0. -1.
</event>
<event>
 5    1  0.2111786E+001  0.1598169E+01  0.7818608E-02  0.3355353E+00
         11   -1    0    0    0    0  0.00000000000E+00  0.00000000000E+00  0.39999999674E+01  0.40000000000E+01  0.51100000000E-03 0.  1.
    9000002   -1    0    0    0    0 -0.00000000000E+00 -0.00000000000E+00  0.00000000000E+00  0.93800000000E+00  0.93800000000E+00 0.  1.
         11    1    1    2    0    0 -0.30479047709E-01  0.24440864664E-01  0.85186584997E+00  0.85276140606E+00  0.51100000000E-03 0.  1.
    9000002    1    1    2    0    0  0.12905793239E+00 -0.29037743471E+00  0.68669575092E-01  0.99274091033E+00  0.93800000000E+00 0.  1.
         22    1    1    2    0    0 -0.98578884679E-01  0.26593657005E+00  0.30794645423E+01  0.30924976836E+01  0.00000000000E+00 0.  1.
</event>
<event>
 5    1  0.2111786E+001  0.1550529E+01  0.7818608E-02  0.3408872E+00
         11   -1    0    0    0    0  0.00000000000E+00  0.00000000000E+00  0.39999999674E+01  0.40000000000E+01  0.51100000000E-03 0.  1.
    9000002   -1    0    0    0    0 -0.00000000000E+00 -0.00000000000E+00  0.00000000000E+00  0.93800000000E+00  0.93800000000E+00 0.  1.
         11    1    1    2    0    0 -0.25390241677E+00  0.10058625320E+00  0.23228870663E+01  0.23388861912E+01  0.51100000000E-03 0.  1.
    9000002    1    1    2    0    0  0.30617926854E-01  0.25801005820E-01  0.37558266089E-01  0.93960511530E+00  0.93800000000E+00 0.  1.
         22    1    1    2    0    0  0.22328448992E+00 -0.12638725902E+00  0.16395546350E+01  0.16595086935E+01  0.00000000000E+00 0.  1.
</event>
<event>
 5    1  0.2111786E+001  0.1530747E+01  0.7818608E-02  0.3432137E+00
         11   -1    0    0    0    0  0.00000000000E+00  0.00000000000E+00  0.39999999674E+01  0.40000000000E+01  0.51100000000E-03 0.  1.
    9000002   -1    0    0    0    0 -0.00000000000E+00 -0.00000000000E+00  0.00000000000E+00  0.93800000000E+00  0.93800000000E+00 0.  1.
         11    1    1    2    0    0  0.18500801871E+00  0.35350136534E+00  0.13426753950E+01  0.14007029163E+01  0.51100000000E-03 0.  1.
    9000002    1    1    2    0    0  0.47579366255E-01 -0.36504537564E+00  0.14950002404E+00  0.10186835522E+01  0.93800000000E+00 0.  1.
         22    1    1    2    0    0 -0.23258738496E+00  0.11544010302E-01  0.25078245483E+01  0.25186135314E+01  0.00000000000E+00 0.  1.
</event>
<event>
 5    1  0.2111786E+001  0.1466494E+01  0.7818608E-02  0.3512367E+00
         11   -1    0    0    0    0  0.00000000000E+00  0.00000000000E+00  0.39999999674E+01  0.40000000000E+01  0.51100000000E-03 0. -1.
    9000002   -1    0    0    0    0 -0.00000000000E+00 -0.00000000000E+00  0.00000000000E+00  0.93800000000E+00  0.93800000000E+00 0.  1.
         11    1    1    2    0    0  0.13801194001E+00  0.41438756692E+00  0.86692422571E+00  0.97073282908E+00  0.51100000000E-03 0. -1.
    9000002    1    1    2    0    0 -0.27448719922E+00 -0.20047669611E+00  0.19290098404E+00  0.10161638243E+01  0.93800000000E+00 0.  1.
         22    1    1    2    0    0  0.13647525921E+00 -0.21391087082E+00  0.29401747576E+01  0.29511033466E+01  0.00000000000E+00 0. -1.
</event>
<event>
 5    1  0.2111786E+001  0.1244126E+01  0.7818608E-02  0.3894752E+00
         11   -1    0    0    0    0  0.00000000000E+00  0.00000000000E+00  0.39999999674E+01  0.40000000000E+01  0.51100000000E-03 0.  1.
    9000002   -1    0    0    0    0 -0.00000000000E+00 -0.00000000000E+00  0.00000000000E+00  0.93800000000E+00  0.93800000000E+00 0.  1.
         11    1    1    2    0    0 -0.78638068728E+00 -0.54458815881E+00  0.13432667595E+01  0.16490411445E+01  0.51100000000E-03 0.  1.
    9000002    1    1    2    0    0  0.53089513826E+00  0.23027190398E+00  0.73438846873E+00  0.13244037227E+01  0.93800000000E+00 0.  1.
         22    1    1    2    0    0  0.25548554901E+00  0.31431625483E+00  0.19223447391E+01  0.19645551328E+01  0.00000000000E+00 0.  1.
</event>
<event>
 5    1  0.2111786E+001  0.1564652E+01  0.7818608E-02  0.3392645E+00
         11   -1    0    0    0    0  0.00000000000E+00  0.00000000000E+00  0.39999999674E+01  0.40000000000E+01  0.51100000000E-03 0. -1.
    9000002   -1    0    0    0    0 -0.00000000000E+00 -0.00000000000E+00  0.00000000000E+00  0.93800000000E+00  0.93800000000E+00 0.  1.
         11    1    1    2    0    0  0.21887886677E+00 -0.65971867319E-04  0.19510211490E+01  0.19632604890E+01  0.51100000000E-03 0. -1.
    9000002    1    1    2    0    0  0.10474663593E-01 -0.45607709467E-01  0.27282649160E-01  0.93956273057E+00  0.93800000000E+00 0.  1.
         22    1    1    2    0    0 -0.22935353036E+00  0.45673681334E-01  0.20216961692E+01  0.20351767804E+01  0.00000000000E+00 0. -1.
</event>
<event>
 5    1  0.2111786E+001  0.1588976E+01  0.7818608E-02  0.3365416E+00
         11   -1    0    0    0    0  0.00000000000E+00  0.00000000000E+00  0.39999999674E+01  0.40000000000E+01  0.51100000000E-03 0.  1.
    9000002   -1    0    0    0    0 -0.00000000000E+00 -0.00000000000E+00  0.00000000000E+00  0.93800000000E+00  0.93800000000E+00 0.  1.
         11    1    1    2    0    0 -0.11842998674E+00 -0.46327965112E+00  0.23072894728E+01  0.23563188811E+01  0.51100000000E-03 0.  1.
    9000002    1    1    2    0    0  0.30191800639E+00  0.58350265469E+00  0.31654180994E+00  0.11881382698E+01  0.93800000000E+00 0.  1.
         22    1    1    2    0    0 -0.18348801965E+00 -0.12022300358E+00  0.13761686846E+01  0.13935428492E+01  0.00000000000E+00 0.  1.
</event>
<event>
 5    1  0.2111786E+001  0.1581771E+01  0.7818608E-02  0.3373389E+00
         11   -1    0    0    0    0  0.00000000000E+00  0.00000000000E+00  0.39999999674E+01  0.40000000000E+01  0.51100000000E-03 0. -1.
    9000002   -1    0    0    0    0 -0.00000000000E+00 -0.00000000000E+00  0.00000000000E+00  0.93800000000E+00  0.93800000000E+00 0. -1.
         11    1    1    2    0    0  0.11440337423E+00 -0.67777139328E-01  0.12186040204E+01  0.12258376289E+01  0.51100000000E-03 0. -1.
    9000002    1    1    2    0    0  0.94151754580E-01  0.93748776951E-01  0.24925201930E-01  0.94769122174E+00  0.93800000000E+00 0. -1.
         22    1    1    2    0    0 -0.20855512881E+00 -0.25971637622E-01  0.27564707450E+01  0.27644711494E+01  0.00000000000E+00 0. -1.
</event>
<event>
 5    1  0.2111786E+001  0.1563822E+01  0.7818608E-02  0.3393590E+00
         11   -1    0    0    0    0  0.00000000000E+00  0.00000000000E+00  0.39999999674E+01  0.40000000000E+01  0.51100000000E-03 0. -1.
    9000002   -1    0    0    0    0 -0.00000000000E+00 -0.00000000000E+00  0.00000000000E+00  0.93800000000E+00  0.93800000000E+00 0.  1.
         11    1    1    2    0    0  0.19497685399E+00 -0.61924616920E-01  0.12930819196E+01  0.13091645213E+01  0.51100000000E-03 0. -1.
    9000002    1    1    2    0    0  0.30561571004E-01  0.47095460295E-02  0.27064841025E-01  0.93889972578E+00  0.93800000000E+00 0.  1.
         22    1    1    2    0    0 -0.22553842500E+00  0.57215070891E-01  0.26798532067E+01  0.26899357530E+01  0.00000000000E+00 0. -1.
</event>
<event>
 5    1  0.2111786E+001  0.1552077E+01  0.7818608E-02  0.3407078E+00
         11   -1    0    0    0    0  0.00000000000E+00  0.00000000000E+00  0.39999999674E+01  0.40000000000E+01  0.51100000000E-03 0.  1.
    9000002   -1    0    0    0    0 -0.00000000000E+00 -0.00000000000E+00  0.00000000000E+00  0.93800000000E+00  0.93800000000E+00 0.  1.
         11    1    1    2    0    0 -0.14023984562E+00 -0.85636455229E-01  0.62920678432E+00  0.65030935355E+00  0.51100000000E-03 0.  1.
    9000002    1    1    2    0    0 -0.14565864795E+00 -0.10442836898E+00  0.57542639002E-01  0.95670104070E+00  0.93800000000E+00 0.  1.
         22    1    1    2    0    0  0.28589849357E+00  0.19006482421E+00  0.33132505440E+01  0.33309896057E+01  0.00000000000E+00 0.  1.
</event>
<event>
 5    1  0.2111786E+001  0.1563562E+01  0.7818608E-02  0.3393887E+00
         11   -1    0    0    0    0  0.00000000000E+00  0.00000000000E+00  0.39999999674E+01  0.40000000000E+01  0.51100000000E-03 0.  1.
    9000002   -1    0    0    0    0 -0.00000000000E+00 -0.00000000000E+00  0.00000000000E+00  0.93800000000E+00  0.93800000000E+00 0.  1.
         11    1    1    2    0    0  0.16577781307E+00 -0.78179509048E-01  0.73947596646E+00  0.76185253497E+00  0.51100000000E-03 0.  1.
    9000002    1    1    2    0    0 -0.12581368985E+00 -0.16516589250E+00  0.56198587908E-01  0.96234668279E+00  0.93800000000E+00 0.  1.
         22    1    1    2    0    0 -0.39964123222E-01  0.24334540155E+00  0.32043254130E+01  0.32138007822E+01  0.00000000000E+00 0.  1.
</event>
<event>
 5    1  0.2111786E+001  0.1285615E+01  0.7818608E-02  0.3809832E+00
         11   -1    0    0    0    0  0.00000000000E+00  0.00000000000E+00  0.39999999674E+01  0.40000000000E+01  0.51100000000E-03 0. -1.
    9000002   -1    0    0    0    0 -0.00000000000E+00 -0.00000000000E+00  0.00000000000E+00  0.93800000000E+00  0.93800000000E+00 0. -1.
         11    1    1    2    0    0  0.24211313064E+00 -0.59129621238E+00  0.82617045170E+00  0.10444174717E+01  0.51100000000E-03 0. -1.
    9000002    1    1    2    0    0 -0.12566906609E+00  0.20114973195E+00  0.33224699221E+00  0.10229789796E+01  0.93800000000E+00 0. -1.
         22    1    1    2    0    0 -0.11644406455E+00  0.39014648043E+00  0.28415825234E+01  0.28706035487E+01  0.00000000000E+00 0. -1.
</event>
<event>
 5    1  0.2111786E+001  0.1586741E+01  0.7818608E-02  0.3367881E+00
         11   -1    0    0    0    0  0.00000000000E+00  0.00000000000E+00  0.39999999674E+01  0.40000000000E+01  0.51100000000E-03 0. -1.
    9000002   -1    0    0    0    0 -0.00000000000E+00 -0.00000000000E+00  0.00000000000E+00  0.93800000000E+00  0.93800000000E+00 0. -1.
         11    1    1    2    0    0  0.10491446540E+00  0.56177224747E-01  0.16166236935E+01  0.16209982582E+01  0.51100000000E-03 0. -1.
    9000002    1    1    2    0    0 -0.22680974372E+00  0.18982433221E+00  0.68505501049E-01  0.98590716633E+00  0.93800000000E+00 0. -1.
         22    1    1    2    0    0  0.12189527832E+00 -0.24600155696E+00  0.23148707728E+01  0.23310945755E+01  0.00000000000E+00 0. -1.
</event>
<event>
 5    1  0.2111786E+001  0.1587948E+01  0.7818608E-02  0.3366549E+00
         11   -1    0    0    0    0  0.00000000000E+00  0.00000000000E+00  0.39999999674E+01  0.40000000000E+01  0.51100000000E-03 0.  1.
    9000002   -1    0    0    0    0 -0.00000000000E+00 -0.00000000000E+00  0.00000000000E+00  0.93800000000E+00  0.93800000000E+00 0. -1.
         11    1    1    2    0    0  0.68957810552E-01 -0.34015457190E-01  0.21207886840E+01  0.21221821633E+01  0.51100000000E-03 0.  1.
    9000002    1    1    2    0    0  0.98232645880E-01  0.15111884681E+00  0.30266154757E-01  0.95563936645E+00  0.93800000000E+00 0. -1.
         22    1    1    2    0    0 -0.16719045643E+00 -0.11710338962E+00  0.18489451287E+01  0.18601784703E+01  0.00000000000E+00 0.  1.
</event>
<event>
 5    1  0.2111786E+001  0.1589551E+01  0.7818608E-02  0.3364783E+00
         11   -1    0    0    0    0  0.00000000000E+00  0.00000000000E+00  0.39999999674E+01  0.40000000000E+01  0.51100000000E-03 0. -1.
    9000002   -1    0    0    0    0 -0.00000000000E+00 -0.00000000000E+00  0.00000000000E+00  0.93800000000E+00  0.93800000000E+00 0.  1.
         11    1    1    2    0    0  0.11750519449E+00  0.30964737739E-01  0.13546478850E+01  0.13600872910E+01  0.51100000000E-03 0. -1.
    9000002    1    1    2    0    0 -0.35216826909E+00  0.24136756446E+00  0.13203663081E+00  0.10390180281E+01  0.93800000000E+00 0.  1.
         22    1    1    2    0    0  0.23466307461E+00 -0.27233230220E+00  0.25133154516E+01  0.25388946809E+01  0.00000000000E+00 0. -1.
</event>
<event>
 5    1  0.2111786E+001  0.1564994E+01  0.7818608E-02  0.3392257E+00
         11   -1    0    0    0    0  0.00000000000E+00  0.00000000000E+00  0.39999999674E+01  0.40000000000E+01  0.51100000000E-03 0.  1.
    9000002   -1    0    0    0    0 -0.00000000000E+00 -0.00000000000E+00  0.00000000000E+00  0.93800000000E+00  0.93800000000E+00 0. -1.
         11    1    1    2    0    0  0.12565847246E+00  0.17495718123E+00  0.12469665253E+01  0.12654350411E+01  0.51100000000E-03 0.  1.
    9000002    1    1    2    0    0  0.11155488880E+00 -0.13429145775E+00  0.46382779201E-01  0.95523507633E+00  0.93800000000E+00 0. -1.
         22    1    1    2    0    0 -0.23721336126E+00 -0.40665723478E-01  0.27066506629E+01  0.27173298826E+01  0.00000000000E+00 0.  1.
</event>
<event>
 5    1  0.2111786E+001  0.1509689E+01  0.7818608E-02  0.3457621E+00
         11   -1    0    0    0    0  0.00000000000E+00  0.00000000000E+00  0.39999999674E+01  0.40000000000E+01  0.51100000000E-03 0. -1.
    9000002   -1    0    0    0    0 -0.00000000000E+00 -0.00000000000E+00  0.00000000000E+00  0.93800000000E+00  0.93800000000E+00 0. -1.
         11    1    1    2    0    0  0.33617381554E+00 -0.34463204713E-01  0.11049302613E+01  0.11554530238E+01  0.51100000000E-03 0. -1.
    9000002    1    1    2    0    0 -0.49517921725E-01 -0.56252278649E-01  0.72248634014E-01  0.94375855416E+00  0.93800000000E+00 0. -1.
         22    1    1    2    0    0 -0.28665589382E+00  0.90715483362E-01  0.28228210721E+01  0.28387884221E+01  0.00000000000E+00 0. -1.
</event>
<event>
 5    1  0.2111786E+001  0.1557937E+01  0.7818608E-02  0.3400322E+00
         11   -1    0    0    0    0  0.00000000000E+00  0.00000000000E+00  0.39999999674E+01  0.40000000000E+01  0.51100000000E-03 0. -1.
    9000002   -1    0    0    0    0 -0.00000000000E+00 -0.00000000000E+00  0.00000000000E+00  0.93800000000E+00  0.93800000000E+00 0. -1.
         11    1    1    2    0    0 -0.17717314093E+00 -0.18281661704E+00  0.13499636734E+01  0.13737592285E+01  0.51100000000E-03 0. -1.
    9000002    1    1    2    0    0 -0.68821572182E-01  0.18506133712E+00  0.57734417676E-01  0.96029233584E+00  0.93800000000E+00 0. -1.
         22    1    1    2    0    0  0.24599471311E+00 -0.22447200786E-02  0.25923018763E+01  0.26039484356E+01  0.00000000000E+00 0. -1.
</event>
<event>
 5    1  0.2111786E+001  0.1461596E+01  0.7818608E-02  0.3518795E+00
         11   -1    0    0    0    0  0.00000000000E+00  0.00000000000E+00  0.39999999674E+01  0.40000000000E+01  0.51100000000E-03 0. -1.
    9000002   -1    0    0    0    0 -0.00000000000E+00 -0.00000000000E+00  0.00000000000E+00  0.93800000000E+00  0.93800000000E+00 0. -1.
         11    1    1    2    0    0  0.30418373778E+00  0.30775390596E+00  0.41825291926E+00  0.60181058362E+00  0.51100000000E-03 0. -1.
    9000002    1    1    2    0    0 -0.46447617009E+00 -0.44613011217E+00  0.49272253903E+00  0.12399151947E+01  0.93800000000E+00 0. -1.
         22    1    1    2    0    0  0.16029243231E+00  0.13837620621E+00  0.30890245091E+01  0.30962742217E+01  0.00000000000E+00 0. -1.
</event>
<event>
 5    1  0.2111786E+001  0.1495441E+01  0.7818608E-02  0.3475301E+00
         11   -1    0    0    0    0  0.00000000000E+00  0.00000000000E+00  0.39999999674E+01  0.40000000000E+01  0.51100000000E-03 0. -1.
    9000002   -1    0    0    0    0 -0.00000000000E+00 -0.00000000000E+00  0.00000000000E+00  0.93800000000E+00  0.93800000000E+00 0. -1.
         11    1    1    2    0    0 -0.15003016664E+00 -0.24817433990E+00  0.33427851612E+01  0.33553408842E+01  0.51100000000E-03 0. -1.
    9000002    1    1    2    0    0  0.65373302531E-01 -0.18002024838E-01  0.82986057306E-01  0.94410191573E+00  0.93800000000E+00 0. -1.
         22    1    1    2    0    0  0.84656864106E-01  0.26617636474E+00  0.57422874881E+00  0.63855720005E+00  0.00000000000E+00 0. -1.
</event>
<event>
 5    1  0.2111786E+001  0.1631614E+01  0.7818608E-02  0.3319750E+00
         11   -1    0    0    0    0  0.00000000000E+00  0.00000000000E+00  0.39999999674E+01  0.40000000000E+01  0.51100000000E-03 0. -1.
    9000002   -1    0    0    0    0 -0.00000000000E+00 -0.00000000000E+00  0.00000000000E+00  0.93800000000E+00  0.93800000000E+00 0. -1.
         11    1    1    2    0    0  0.39975641216E+00  0.58470685055E-01  0.15757422615E+00  0.43365182801E+00  0.51100000000E-03 0. -1.
    9000002    1    1    2    0    0 -0.27320396610E+00 -0.28970921673E+00  0.47096316947E+00  0.11225961626E+01  0.93800000000E+00 0. -1.
         22    1    1    2    0    0 -0.12655244606E+00  0.23123853168E+00  0.33714625717E+01  0.33817520094E+01  0.00000000000E+00 0. -1.
</event>
<event>
 5    1  0.2111786E+001  0.1522429E+01  0.7818608E-02  0.3442113E+00
         11   -1    0    0    0    0  0.00000000000E+00  0.00000000000E+00  0.39999999674E+01  0.40000000000E+01  0.51100000000E-03 0. -1.
    9000002   -1    0    0    0    0 -0.00000000000E+00 -0.00000000000E+00  0.00000000000E+00  0.93800000000E+00  0.93800000000E+00 0. -1.
         11    1    1    2    0    0  0.34753234614E+00 -0.14959595418E-04  0.17037146776E+01  0.17387992108E+01  0.51100000000E-03 0. -1.
    9000002    1    1    2    0    0 -0.46813757172E-01  0.12363292643E+00  0.70605380008E-01  0.94989775663E+00  0.93800000000E+00 0. -1.
         22    1    1    2    0    0 -0.30071858897E+00 -0.12361796683E+00  0.22256799098E+01  0.22493030326E+01  0.00000000000E+00 0. -1.
</event>
<event>
 5    1  0.2111786E+001  0.1575561E+01  0.7818608E-02  0.3380323E+00
         11   -1    0    0    0    0  0.00000000000E+00  0.00000000000E+00  0.39999999674E+01  0.40000000000E+01  0.51100000000E-03 0.  1.
    9000002   -1    0    0    0    0 -0.00000000000E+00 -0.00000000000E+00  0.00000000000E+00  0.93800000000E+00  0.93800000000E+00 0.  1.
         11    1    1    2    0    0  0.15996947892E+00  0.80092699195E-02  0.12197078148E+01  0.12301795792E+01  0.51100000000E-03 0.  1.
    9000002    1    1    2    0    0  0.25037270496E-01  0.10503944557E+00  0.25530688787E-01  0.94454008179E+00  0.93800000000E+00 0.  1.
         22    1    1    2    0    0 -0.18500674942E+00 -0.11304871549E+00  0.27547614638E+01  0.27632803390E+01  0.00000000000E+00 0.  1.
</event>
<event>
 5    1  0.2111786E+001  0.1572959E+01  0.7818608E-02  0.3383246E+00
         11   -1    0    0    0    0  0.00000000000E+00  0.00000000000E+00  0.39999999674E+01  0.40000000000E+01  0.51100000000E-03 0.  1.
    9000002   -1    0    0    0    0 -0.00000000000E+00 -0.00000000000E+00  0.00000000000E+00  0.93800000000E+00  0.93800000000E+00 0.  1.
         11    1    1    2    0    0  0.12927317914E+00  0.98059240234E-01  0.10587009223E+01  0.10710625908E+01  0.51100000000E-03 0.  1.
    9000002    1    1    2    0    0  0.78452815507E-02  0.60182467090E-01  0.22081959368E-01  0.94022076701E+00  0.93800000000E+00 0.  1.
         22    1    1    2    0    0 -0.13711846069E+00 -0.15824170732E+00  0.29192170857E+01  0.29267166422E+01  0.00000000000E+00 0.  1.
</event>
<event>
 5    1  0.2111786E+001  0.1552479E+01  0.7818608E-02  0.3406613E+00
         11   -1    0    0    0    0  0.00000000000E+00  0.00000000000E+00  0.39999999674E+01  0.40000000000E+01  0.51100000000E-03 0. -1.
    9000002   -1    0    0    0    0 -0.00000000000E+00 -0.00000000000E+00  0.00000000000E+00  0.93800000000E+00  0.93800000000E+00 0.  1.
         11    1    1    2    0    0 -0.17226693502E+00 -0.54085391746E-01  0.61260944716E+00  0.63866401369E+00  0.51100000000E-03 0. -1.
    9000002    1    1    2    0    0 -0.59340725560E-01 -0.17779315330E-01  0.37616397300E-01  0.94079563089E+00  0.93800000000E+00 0.  1.
         22    1    1    2    0    0  0.23160766058E+00  0.71864707077E-01  0.33497741229E+01  0.33585403554E+01  0.00000000000E+00 0. -1.
</event>
<event>
 5    1  0.2111786E+001  0.1518681E+01  0.7818608E-02  0.3446647E+00
         11   -1    0    0    0    0  0.00000000000E+00  0.00000000000E+00  0.39999999674E+01  0.40000000000E+01  0.51100000000E-03 0.  1.
    9000002   -1    0    0    0    0 -0.00000000000E+00 -0.00000000000E+00  0.00000000000E+00  0.93800000000E+00  0.93800000000E+00 0. -1.
         11    1    1    2    0    0  0.36721406644E+00  0.99226222241E-01  0.20234447136E+01  0.20588882397E+01  0.51100000000E-03 0.  1.
    9000002    1    1    2    0    0 -0.69865950029E-01 -0.25253432355E-01  0.65027699595E-01  0.94318163072E+00  0.93800000000E+00 0. -1.
         22    1    1    2    0    0 -0.29734811641E+00 -0.73972789886E-01  0.19115275542E+01  0.19359301295E+01  0.00000000000E+00 0.  1.
</event>
<event>
 5    1  0.2111786E+001  0.1468597E+01  0.7818608E-02  0.3509620E+00
         11   -1    0    0    0    0  0.00000000000E+00  0.00000000000E+00  0.39999999674E+01  0.40000000000E+01  0.51100000000E-03 0.  1.
    9000002   -1    0    0    0    0 -0.00000000000E+00 -0.00000000000E+00  0.00000000000E+00  0.93800000000E+00  0.93800000000E+00 0.  1.
         11    1    1    2    0    0  0.27435417157E+00  0.90526520845E-01  0.31839734855E+00  0.42993301236E+00  0.51100000000E-03 0.  1.
    9000002    1    1    2    0    0  0.48077733606E-01  0.17421921021E-01  0.13951488658E+00  0.94969647540E+00  0.93800000000E+00 0.  1.
         22    1    1    2    0    0 -0.32243190518E+00 -0.10794844187E+00  0.35420877322E+01  0.35583705122E+01  0.00000000000E+00 0.  1.
</event>
<event>
 5    1  0.2111786E+001  0.1469274E+01  0.7818608E-02  0.3508738E+00
         11   -1    0    0    0    0  0.00000000000E+00  0.00000000000E+00  0.39999999674E+01  0.40000000000E+01  0.51100000000E-03 0. -1.
    9000002   -1    0    0    0    0 -0.00000000000E+00 -0.00000000000E+00  0.00000000000E+00  0.93800000000E+00  0.93800000000E+00 0.  1.
         11    1    1    2    0    0  0.42770726622E-01 -0.25282795602E+00  0.17436731835E+00  0.31008955679E+00  0.51100000000E-03 0. -1.
    9000002    1    1    2    0    0  0.17023981176E+00  0.24980035769E+00  0.21206169570E+00  0.10080654617E+01  0.93800000000E+00 0.  1.
         22    1    1    2    0    0 -0.21301053838E+00  0.30275983256E-02  0.36135709533E+01  0.36198449816E+01  0.00000000000E+00 0. -1.
</event>
<event>
 5    1  0.2111786E+001  0.1496008E+01  0.7818608E-02  0.3474591E+00
         11   -1    0    0    0    0  0.00000000000E+00  0.00000000000E+00  0.39999999674E+01  0.40000000000E+01  0.51100000000E-03 0. -1.
    9000002   -1    0    0    0    0 -0.00000000000E+00 -0.00000000000E+00  0.00000000000E+00  0.93800000000E+00  0.93800000000E+00 0. -1.
         11    1    1    2    0    0 -0.21806545462E+00  0.33252367438E+00  0.11401340496E+01  0.12074893162E+01  0.51100000000E-03 0. -1.
    9000002    1    1    2    0    0  0.46267323024E-01 -0.14475427367E+00  0.96129484944E-01  0.95508080433E+00  0.93800000000E+00 0. -1.
         22    1    1    2    0    0  0.17179813159E+00 -0.18776940070E+00  0.27637364328E+01  0.27754298795E+01  0.00000000000E+00 0.  1.
</event>
<event>
 5    1  0.2111786E+001  0.1579688E+01  0.7818608E-02  0.3375709E+00
         11   -1    0    0    0    0  0.00000000000E+00  0.00000000000E+00  0.39999999674E+01  0.40000000000E+01  0.51100000000E-03 0.  1.
    9000002   -1    0    0    0    0 -0.00000000000E+00 -0.00000000000E+00  0.00000000000E+00  0.93800000000E+00  0.93800000000E+00 0. -1.
         11    1    1    2    0    0 -0.40322541611E-01 -0.10056264100E+00  0.20956408462E+01  0.20984397941E+01  0.51100000000E-03 0.  1.
    9000002    1    1    2    0    0 -0.69003282932E-01 -0.96973562173E-01  0.24133963709E-01  0.94582861715E+00  0.93800000000E+00 0. -1.
         22    1    1    2    0    0  0.10932582454E+00  0.19753620317E+00  0.18802251575E+01  0.18937315887E+01  0.00000000000E+00 0. -1.
</event>
<event>
 5    1  0.2111786E+001  0.1444253E+01  0.7818608E-02  0.3541941E+00
         11   -1    0    0    0    0  0.00000000000E+00  0.00000000000E+00  0.39999999674E+01  0.40000000000E+01  0.51100000000E-03 0. -1.
    9000002   -1    0    0    0    0 -0.00000000000E+00 -0.00000000000E+00  0.00000000000E+00  0.93800000000E+00  0.93800000000E+00 0.  1.
         11    1    1    2    0    0  0.56888776162E+00 -0.59692625466E+00  0.30096687095E+01  0.31205865219E+01  0.51100000000E-03 0. -1.
    9000002    1    1    2    0    0 -0.41830450588E+00  0.38318770925E+00  0.39153561095E+00  0.11640256075E+01  0.93800000000E+00 0.  1.
         22    1    1    2    0    0 -0.15058325574E+00  0.21373854542E+00  0.59879564690E+00  0.65338787060E+00  0.00000000000E+00 0. -1.
</event>
<event>
 5    1  0.2111786E+001  0.1542941E+01  0.7818608E-02  0.3417721E+00
         11   -1    0    0    0    0  0.00000000000E+00  0.00000000000E+00  0.39999999674E+01  0.40000000000E+01  0.51100000000E-03 0. -1.
    9000002   -1    0    0    0    0 -0.00000000000E+00 -0.00000000000E+00  0.00000000000E+00  0.93800000000E+00  0.93800000000E+00 0. -1.
         11    1    1    2    0    0 -0.16266124513E+00 -0.13771373243E+00  0.63723709739E+00  0.67193387486E+00  0.51100000000E-03 0. -1.
    9000002    1    1    2    0    0  0.37283766570E-01 -0.37009471232E-01  0.44164882499E-01  0.94050747847E+00  0.93800000000E+00 0. -1.
         22    1    1    2    0    0  0.12537747856E+00  0.17472320367E+00  0.33185979875E+01  0.33255586467E+01  0.00000000000E+00 0. -1.
</event>
<event>
 5    1  0.2111786E+001  0.1595003E+01  0.7818608E-02  0.3358805E+00
         11   -1    0    0    0    0  0.00000000000E+00  0.00000000000E+00  0.39999999674E+01  0.40000000000E+01  0.51100000000E-03 0.  1.
    9000002   -1    0    0    0    0 -0.00000000000E+00 -0.00000000000E+00  0.00000000000E+00  0.93800000000E+00  0.93800000000E+00 0.  1.
         11    1    1    2    0    0 -0.22984607638E-01 -0.21921388187E-01  0.22619081011E+00  0.22841055831E+00  0.51100000000E-03 0.  1.
    9000002    1    1    2    0    0  0.28369702249E+00 -0.27580236475E+00  0.10942595163E+00  0.10238989129E+01  0.93800000000E+00 0.  1.
         22    1    1    2    0    0 -0.26071241485E+00  0.29772375293E+00  0.36643832056E+01  0.36856905288E+01  0.00000000000E+00 0.  1.
</event>
<event>
 5    1  0.2111786E+001  0.1540725E+01  0.7818608E-02  0.3420322E+00
         11   -1    0    0    0    0  0.00000000000E+00  0.00000000000E+00  0.39999999674E+01  0.40000000000E+01  0.51100000000E-03 0.  1.
    9000002   -1    0    0    0    0 -0.00000000000E+00 -0.00000000000E+00  0.00000000000E+00  0.93800000000E+00  0.93800000000E+00 0. -1.
         11    1    1    2    0    0 -0.99263827649E-01  0.26211697887E+00  0.11352582021E+01  0.11693459987E+01  0.51100000000E-03 0.  1.
    9000002    1    1    2    0    0  0.79066443380E-01 -0.28304516218E-01  0.48869458946E-01  0.94301902002E+00  0.93800000000E+00 0. -1.
         22    1    1    2    0    0  0.20197384269E-01 -0.23381246265E+00  0.28158723063E+01  0.28256349813E+01  0.00000000000E+00 0. -1.
</event>
<event>
 5    1  0.2111786E+001  0.1518290E+01  0.7818608E-02  0.3447121E+00
         11   -1    0    0    0    0  0.00000000000E+00  0.00000000000E+00  0.39999999674E+01  0.40000000000E+01  0.51100000000E-03 0.  1.
    9000002   -1    0    0    0    0 -0.00000000000E+00 -0.00000000000E+00  0.00000000000E+00  0.93800000000E+00  0.93800000000E+00 0.  1.
         11    1    1    2    0    0 -0.30396055449E+00  0.48921089531E+00  0.30496909377E+01  0.31036002312E+01  0.51100000000E-03 0.  1.
    9000002    1    1    2    0    0  0.40250518963E+00 -0.27174289318E+00  0.23745822515E+00  0.10826287620E+01  0.93800000000E+00 0.  1.
         22    1    1    2    0    0 -0.98544635145E-01 -0.21746800214E+00  0.71285080456E+00  0.75177100677E+00  0.00000000000E+00 0.  1.
</event>
<event>
 5    1  0.2111786E+001  0.1540215E+01  0.7818608E-02  0.3420922E+00
         11   -1    0    0    0    0  0.00000000000E+00  0.00000000000E+00  0.39999999674E+01  0.40000000000E+01  0.51100000000E-03 0. -1.
    9000002   -1    0    0    0    0 -0.00000000000E+00 -0.00000000000E+00  0.00000000000E+00  0.93800000000E+00  0.93800000000E+00 0. -1.
         11    1    1    2    0    0 -0.15119370424E+00  0.24075184085E+00  0.13243371250E+01  0.13545073152E+01  0.51100000000E-03 0. -1.
    9000002    1    1    2    0    0 -0.13068251634E+00 -0.12841961191E+00  0.67900046095E-01  0.95813565483E+00  0.93800000000E+00 0. -1.
         22    1    1    2    0    0  0.28187622058E+00 -0.11233222894E+00  0.26077627962E+01  0.26253570300E+01  0.00000000000E+00 0.  1.
</event>
<event>
 5    1  0.2111786E+001  0.1460524E+01  0.7818608E-02  0.3520208E+00
         11   -1    0    0    0    0  0.00000000000E+00  0.00000000000E+00  0.39999999674E+01  0.40000000000E+01  0.51100000000E-03 0.  1.
    9000002   -1    0    0    0    0 -0.00000000000E+00 -0.00000000000E+00  0.00000000000E+00  0.93800000000E+00  0.93800000000E+00 0. -1.
         11    1    1    2    0    0  0.30774684065E-01  0.11634959980E+00  0.33978887463E+01  0.34000194858E+01  0.51100000000E-03 0.  1.
    9000002    1    1    2    0    0 -0.18243468756E+00 -0.40186901730E+00  0.26306409599E+00  0.10694988737E+01  0.93800000000E+00 0. -1.
         22    1    1    2    0    0  0.15166000349E+00  0.28551941751E+00  0.33904712507E+00  0.46848164047E+00  0.00000000000E+00 0.  1.
</event>
<event>
 5    1  0.2111786E+001  0.1543560E+01  0.7818608E-02  0.3416996E+00
         11   -1    0    0    0    0  0.00000000000E+00  0.00000000000E+00  0.39999999674E+01  0.40000000000E+01  0.51100000000E-03 0. -1.
    9000002   -1    0    0    0    0 -0.00000000000E+00 -0.00000000000E+00  0.00000000000E+00  0.93800000000E+00  0.93800000000E+00 0. -1.
         11    1    1    2    0    0  0.52267885388E-01 -0.11342105810E+00  0.29637806509E+01  0.29664106721E+01  0.51100000000E-03 0. -1.
    9000002    1    1    2    0    0  0.76381627351E-01 -0.14484804638E+00  0.60505851090E-01  0.95410694765E+00  0.93800000000E+00 0. -1.
         22    1    1    2    0    0 -0.12864951274E+00  0.25826910447E+00  0.97571346541E+00  0.10174823802E+01  0.00000000000E+00 0.  1.
</event>
<event>
 5    1  0.2111786E+001  0.1566094E+01  0.7818608E-02  0.3391006E+00
         11   -1    0    0    0    0  0.00000000000E+00  0.00000000000E+00  0.39999999674E+01  0.40000000000E+01  0.51100000000E-03 0. -1.
    9000002   -1    0    0    0    0 -0.00000000000E+00 -0.00000000000E+00  0.00000000000E+00  0.93800000000E+00  0.93800000000E+00 0. -1.
         11    1    1    2    0    0  0.12610880816E+00 -0.14932604062E+00  0.23565082812E+01  0.23646000166E+01  0.51100000000E-03 0. -1.
    9000002    1    1    2    0    0  0.26291129813E-01 -0.24786958464E-01  0.25599187188E-01  0.93904469287E+00  0.93800000000E+00 0. -1.
         22    1    1    2    0    0 -0.15239993797E+00  0.17411299909E+00  0.16178924990E+01  0.16343552906E+01  0.00000000000E+00 0. -1.
</event>
<event>
 5    1  0.2111786E+001  0.1523754E+01  0.7818608E-02  0.3440517E+00
         11   -1    0    0    0    0  0.00000000000E+00  0.00000000000E+00  0.39999999674E+01  0.40000000000E+01  0.51100000000E-03 0.  1.
    9000002   -1    0    0    0    0 -0.00000000000E+00 -0.00000000000E+00  0.00000000000E+00  0.93800000000E+00  0.93800000000E+00 0. -1.
         11    1    1    2    0    0  0.13812880711E-01 -0.40444729056E+00  0.17307181404E+01  0.17774008971E+01  0.51100000000E-03 0.  1.
    9000002    1    1    2    0    0  0.40926878184E-01  0.17239485555E+00  0.79518838118E-01  0.95789469212E+00  0.93800000000E+00 0. -1.
         22    1    1    2    0    0 -0.54739758895E-01  0.23205243501E+00  0.21897629889E+01  0.22027044108E+01  0.00000000000E+00 0.  1.
</event>
<event>
 5    1  0.2111786E+001  0.1497357E+01  0.7818608E-02  0.3472903E+00
         11   -1    0    0    0    0  0.00000000000E+00  0.00000000000E+00  0.39999999674E+01  0.40000000000E+01  0.51100000000E-03 0. -1.
    9000002   -1    0    0    0    0 -0.00000000000E+00 -0.00000000000E+00  0.00000000000E+00  0.93800000000E+00  0.93800000000E+00 0.  1.
         11    1    1    2    0    0 -0.60563704404E-01 -0.37268221016E+00  0.98205837915E+00  0.10521401586E+01  0.51100000000E-03 0. -1.
    9000002    1    1    2    0    0  0.27824561732E-01  0.15566710529E+00  0.96424672214E-01  0.95611096182E+00  0.93800000000E+00 0.  1.
         22    1    1    2    0    0  0.32739142673E-01  0.21701510487E+00  0.29215169160E+01  0.29297488796E+01  0.00000000000E+00 0. -1.
</event>
<event>
 5    1  0.2111786E+001  0.1505884E+01  0.7818608E-02  0.3462308E+00
         11   -1    0    0    0    0  0.00000000000E+00  0.00000000000E+00  0.39999999674E+01  0.40000000000E+01  0.51100000000E-03 0.  1.
    9000002   -1    0    0    0    0 -0.00000000000E+00 -0.00000000000E+00  0.00000000000E+00  0.93800000000E+00  0.93800000000E+00 0.  1.
         11    1    1    2    0    0 -0.37189072309E+00  0.32271766805E+00  0.20681374036E+01  0.21259449627E+01  0.51100000000E-03 0.  1.
    9000002    1    1    2    0    0  0.16103616089E+00 -0.17145857397E+00  0.11168458616E+00  0.97347220530E+00  0.93800000000E+00 0.  1.
         22    1    1    2    0    0  0.21085456221E+00 -0.15125909408E+00  0.18201779776E+01  0.18385828320E+01  0.00000000000E+00 0.  1.
</event>
<event>
 5    1  0.2111786E+001  0.1065565E+01  0.7818608E-02  0.4359329E+00
         11   -1    0    0    0    0  0.00000000000E+00  0.00000000000E+00  0.39999999674E+01  0.40000000000E+01  0.51100000000E-03 0. -1.
    9000002   -1    0    0    0    0 -0.00000000000E+00 -0.00000000000E+00  0.00000000000E+00  0.93800000000E+00  0.93800000000E+00 0. -1.
         11    1    1    2    0    0  0.93946609937E+00  0.27428180538E+00  0.20634770272E+01  0.22838048873E+01  0.51100000000E-03 0. -1.
    9000002    1    1    2    0    0 -0.16230724084E+00 -0.18759434748E+00  0.72078349768E+00  0.12086803259E+01  0.93800000000E+00 0. -1.
         22    1    1    2    0    0 -0.77715885853E+00 -0.86687457904E-01  0.12157394425E+01  0.14455147868E+01  0.00000000000E+00 0.  1.
</event>
<event>
 5    1  0.2111786E+001  0.1450299E+01  0.7818608E-02  0.3533804E+00
         11   -1    0    0    0    0  0.00000000000E+00  0.00000000000E+00  0.39999999674E+01  0.40000000000E+01  0.51100000000E-03 0.  1.
    9000002   -1    0    0    0    0 -0.00000000000E+00 -0.00000000000E+00  0.00000000000E+00  0.93800000000E+00  0.93800000000E+00 0.  1.
         11    1    1    2    0    0  0.43085226080E+00 -0.17596313665E+00  0.11533129049E+01  0.12436750435E+01  0.51100000000E-03 0.  1.
    9000002    1    1    2    0    0 -0.10279443976E+00  0.70523893743E-01  0.12914101325E+00  0.95501922375E+00  0.93800000000E+00 0.  1.
         22    1    1    2    0    0 -0.32805782104E+00  0.10543924291E+00  0.27175460492E+01  0.27393057328E+01  0.00000000000E+00 0. -1.
</event>
<event>
 5    1  0.2111786E+001  0.1552334E+01  0.7818608E-02  0.3406781E+00
         11   -1    0    0    0    0  0.00000000000E+00  0.00000000000E+00  0.39999999674E+01  0.40000000000E+01  0.51100000000E-03 0.  1.
    9000002   -1    0    0    0    0 -0.00000000000E+00 -0.00000000000E+00  0.00000000000E+00  0.93800000000E+00  0.93800000000E+00 0.  1.
         11    1    1    2    0    0  0.11850653257E+00 -0.15653412041E+00  0.30902771516E+01  0.30965076883E+01  0.51100000000E-03 0.  1.
    9000002    1    1    2    0    0  0.42955304332E-01  0.30379703511E-03  0.36352416630E-01  0.93968651616E+00  0.93800000000E+00 0.  1.
         22    1    1    2    0    0 -0.16146183690E+00  0.15623032338E+00  0.87337039912E+00  0.90180579549E+00  0.00000000000E+00 0.  1.
</event>
<event>
 5    1  0.2111786E+001  0.1530365E+01  0.7818608E-02  0.3432593E+00
         11   -1    0    0    0    0  0.00000000000E+00  0.00000000000E+00  0.39999999674E+01  0.40000000000E+01  0.51100000000E-03 0. -1.
    9000002   -1    0    0    0    0 -0.00000000000E+00 -0.00000000000E+00  0.00000000000E+00  0.93800000000E+00  0.93800000000E+00 0. -1.
         11    1    1    2    0    0  0.65498676220E-01 -0.36671941265E+00  0.15936749284E+01  0.16366347310E+01  0.51100000000E-03 0. -1.
    9000002    1    1    2    0    0  0.10324105311E+00  0.18178361939E+00  0.83000590960E-01  0.96459167393E+00  0.93800000000E+00 0. -1.
         22    1    1    2    0    0 -0.16873972933E+00  0.18493579327E+00  0.23233244480E+01  0.23367735951E+01  0.00000000000E+00 0. -1.
</event>
<event>
 5    1  0.2111786E+001  0.1538222E+01  0.7818608E-02  0.3423271E+00
         11   -1    0    0    0    0  0.00000000000E+00  0.00000000000E+00  0.39999999674E+01  0.40000000000E+01  0.51100000000E-03 0. -1.
    9000002   -1    0    0    0    0 -0.00000000000E+00 -0.00000000000E+00  0.00000000000E+00  0.93800000000E+00  0.93800000000E+00 0. -1.
         11    1    1    2    0    0 -0.65183144416E-01  0.12791553764E+00  0.23555555043E+00  0.27585848826E+00  0.51100000000E-03 0. -1.
    9000002    1    1    2    0    0  0.12616451527E+00  0.11114857964E+00  0.65738049748E-01  0.95521567348E+00  0.93800000000E+00 0. -1.
         22    1    1    2    0    0 -0.60981370853E-01 -0.23906411728E+00  0.36987063672E+01  0.37069258383E+01  0.00000000000E+00 0. -1.
</event>
<event>
 5    1  0.2111786E+001  0.1592822E+01  0.7818608E-02  0.3361191E+00
         11   -1    0    0    0    0  0.00000000000E+00  0.00000000000E+00  0.39999999674E+01  0.40000000000E+01  0.51100000000E-03 0.  1.
    9000002   -1    0    0    0    0 -0.00000000000E+00 -0.00000000000E+00  0.00000000000E+00  0.93800000000E+00  0.93800000000E+00 0. -1.
         11    1    1    2    0    0  0.54742063570E-01 -0.42575815900E-02  0.10671597119E+01  0.10685714446E+01  0.51100000000E-03 0.  1.
    9000002    1    1    2    0    0  0.77522769124E-01 -0.15437696186E+00  0.24835113304E-01  0.95409790322E+00  0.93800000000E+00 0. -1.
         22    1    1    2    0    0 -0.13226483269E+00  0.15863454345E+00  0.29080051422E+01  0.29153306521E+01  0.00000000000E+00 0.  1.
</event>
<event>
 5    1  0.2111786E+001  0.1591091E+01  0.7818608E-02  0.3363090E+00
         11   -1    0    0    0    0  0.00000000000E+00  0.00000000000E+00  0.39999999674E+01  0.40000000000E+01  0.51100000000E-03 0. -1.
    9000002   -1    0    0    0    0 -0.00000000000E+00 -0.00000000000E+00  0.00000000000E+00  0.93800000000E+00  0.93800000000E+00 0.  1.
         11    1    1    2    0    0 -0.64660302203E-01  0.87037118398E-01  0.21416875291E+01  0.21444304950E+01  0.51100000000E-03 0. -1.
    9000002    1    1    2    0    0  0.24713977900E+00 -0.31710304270E-04  0.47146917597E-01  0.97115647720E+00  0.93800000000E+00 0.  1.
         22    1    1    2    0    0 -0.18247947679E+00 -0.87005408094E-01  0.18111655207E+01  0.18224130278E+01  0.00000000000E+00 0. -1.
</event>
<event>
 5    1  0.2111786E+001  0.1470146E+01  0.7818608E-02  0.3507603E+00
         11   -1    0    0    0    0  0.00000000000E+00  0.00000000000E+00  0.39999999674E+01  0.40000000000E+01  0.51100000000E-03 0. -1.
    9000002   -1    0    0    0    0 -0.00000000000E+00 -0.00000000000E+00  0.00000000000E+00  0.93800000000E+00  0.93800000000E+00 0.  1.
         11    1    1    2    0    0  0.71428834504E+00  0.56644734059E+00  0.27573080840E+01  0.29041037449E+01  0.51100000000E-03 0. -1.
    9000002    1    1    2    0    0 -0.71840460205E+00 -0.31444320078E+00  0.63865341269E+00  0.13793846020E+01  0.93800000000E+00 0.  1.
         22    1    1    2    0    0  0.41162570056E-02 -0.25200413981E+00  0.60403847064E+00  0.65451165312E+00  0.00000000000E+00 0. -1.
</event>
<event>
 5    1  0.2111786E+001  0.1561325E+01  0.7818608E-02  0.3396440E+00
         11   -1    0    0    0    0  0.00000000000E+00  0.00000000000E+00  0.39999999674E+01  0.40000000000E+01  0.51100000000E-03 0.  1.
    9000002   -1    0    0    0    0 -0.00000000000E+00 -0.00000000000E+00  0.00000000000E+00  0.93800000000E+00  0.93800000000E+00 0. -1.
         11    1    1    2    0    0 -0.21272269667E+00 -0.13157223812E+00  0.15808482354E+01  0.16005135438E+01  0.51100000000E-03 0.  1.
    9000002    1    1    2    0    0  0.23746018004E-01  0.55541535644E-01  0.30782850426E-01  0.94044687220E+00  0.93800000000E+00 0. -1.
         22    1    1    2    0    0  0.18897667866E+00  0.76030702473E-01  0.23883688815E+01  0.23970395840E+01  0.00000000000E+00 0.  1.
</event>
<event>
 5    1  0.2111786E+001  0.1504561E+01  0.7818608E-02  0.3463943E+00
         11   -1    0    0    0    0  0.00000000000E+00  0.00000000000E+00  0.39999999674E+01  0.40000000000E+01  0.51100000000E-03 0. -1.
    9000002   -1    0    0    0    0 -0.00000000000E+00 -0.00000000000E+00  0.00000000000E+00  0.93800000000E+00  0.93800000000E+00 0.  1.
         11    1    1    2    0    0 -0.33127210479E+00  0.67333903937E+00  0.25624280144E+01  0.26700494863E+01  0.51100000000E-03 0. -1.
    9000002    1    1    2    0    0  0.40705259256E+00 -0.47767736974E+00  0.38163376786E+00  0.11913672043E+01  0.93800000000E+00 0.  1.
         22    1    1    2    0    0 -0.75780487767E-01 -0.19566166962E+00  0.10559381851E+01  0.10765833094E+01  0.00000000000E+00 0. -1.
</event>
<event>
 5    1  0.2111786E+001  0.1252975E+01  0.7818608E-02  0.3876058E+00
         11   -1    0    0    0    0  0.00000000000E+00  0.00000000000E+00  0.39999999674E+01  0.40000000000E+01  0.51100000000E-03 0.  1.
    9000002   -1    0    0    0    0 -0.00000000000E+00 -0.00000000000E+00  0.00000000000E+00  0.93800000000E+00  0.93800000000E+00 0. -1.
         11    1    1    2    0    0 -0.44923446780E+00 -0.27209380663E+00  0.17588361254E+01  0.18355793155E+01  0.51100000000E-03 0.  1.
    9000002    1    1    2    0    0 -0.39371380622E+00 -0.53300592519E-01  0.48674292512E+00  0.11289881264E+01  0.93800000000E+00 0. -1.
         22    1    1    2    0    0  0.84294827402E+00  0.32539439915E+00  0.17544209169E+01  0.19734325581E+01  0.00000000000E+00 0.  1.
</event>
<event>
 5    1  0.2111786E+001  0.1564342E+01  0.7818608E-02  0.3392999E+00
         11   -1    0    0    0    0  0.00000000000E+00  0.00000000000E+00  0.39999999674E+01  0.40000000000E+01  0.51100000000E-03 0. -1.
    9000002   -1    0    0    0    0 -0.00000000000E+00 -0.00000000000E+00  0.00000000000E+00  0.93800000000E+00  0.93800000000E+00 0. -1.
         11    1    1    2    0    0  0.18816493092E+00  0.15957069062E+00  0.25392268395E+01  0.25511844406E+01  0.51100000000E-03 0. -1.
    9000002    1    1    2    0    0 -0.36786510982E-01 -0.27823615171E-01  0.27473427272E-01  0.93953509256E+00  0.93800000000E+00 0. -1.
         22    1    1    2    0    0 -0.15137841994E+00 -0.13174707544E+00  0.14332997006E+01  0.14472804668E+01  0.00000000000E+00 0.  1.
</event>
<event>
 5    1  0.2111786E+001  0.1530143E+01  0.7818608E-02  0.3432858E+00
         11   -1    0    0    0    0  0.00000000000E+00  0.00000000000E+00  0.39999999674E+01  0.40000000000E+01  0.51100000000E-03 0. -1.
    9000002   -1    0    0    0    0 -0.00000000000E+00 -0.00000000000E+00  0.00000000000E+00  0.93800000000E+00  0.93800000000E+00 0.  1.
         11    1    1    2    0    0  0.34421852510E+00 -0.48407769804E-01  0.14810084036E+01  0.15212546985E+01  0.51100000000E-03 0. -1.
    9000002    1    1    2    0    0 -0.96809079481E-01  0.92059451274E-01  0.64746722520E-01  0.94967524898E+00  0.93800000000E+00 0.  1.
         22    1    1    2    0    0 -0.24740944562E+00 -0.43651681471E-01  0.24542448413E+01  0.24670700525E+01  0.00000000000E+00 0. -1.
</event>
<event>
 5    1  0.2111786E+001  0.1410844E+01  0.7818608E-02  0.3589650E+00
         11   -1    0    0    0    0  0.00000000000E+00  0.00000000000E+00  0.39999999674E+01  0.40000000000E+01  0.51100000000E-03 0. -1.
    9000002   -1    0    0    0    0 -0.00000000000E+00 -0.00000000000E+00  0.00000000000E+00  0.93800000000E+00  0.93800000000E+00 0. -1.
         11    1    1    2    0    0 -0.53234970002E+00 -0.11456042930E+00  0.19846016020E+01  0.20579514268E+01  0.51100000000E-03 0. -1.
    9000002    1    1    2    0    0  0.61572092726E-01 -0.68850817623E-01  0.15866188185E+00  0.95579765141E+00  0.93800000000E+00 0. -1.
         22    1    1    2    0    0  0.47077760729E+00  0.18341124693E+00  0.18567364835E+01  0.19242509218E+01  0.00000000000E+00 0. -1.
</event>
<event>
 5    1  0.2111786E+001  0.1523487E+01  0.7818608E-02  0.3440838E+00
         11   -1    0    0    0    0  0.00000000000E+00  0.00000000000E+00  0.39999999674E+01  0.40000000000E+01  0.51100000000E-03 0.  1.
    9000002   -1    0    0    0    0 -0.00000000000E+00 -0.00000000000E+00  0.00000000000E+00  0.93800000000E+00  0.93800000000E+00 0.  1.
         11    1    1    2    0    0  0.32301061563E+00 -0.27775460371E+00  0.26127451951E+01  0.26472478527E+01  0.51100000000E-03 0.  1.
    9000002    1    1    2    0    0 -0.27679370896E+00 -0.37960740497E-02  0.11248435422E+00  0.98444192182E+00  0.93800000000E+00 0.  1.
         22    1    1    2    0    0 -0.46216906665E-01  0.28155067776E+00  0.12747704180E+01  0.13063102255E+01  0.00000000000E+00 0.  1.
</event>
<event>
 5    1  0.2111786E+001  0.1553740E+01  0.7818608E-02  0.3405155E+00
         11   -1    0    0    0    0  0.00000000000E+00  0.00000000000E+00  0.39999999674E+01  0.40000000000E+01  0.51100000000E-03 0. -1.
    9000002   -1    0    0    0    0 -0.00000000000E+00 -0.00000000000E+00  0.00000000000E+00  0.93800000000E+00  0.93800000000E+00 0. -1.
         11    1    1    2    0    0 -0.24439640840E+00  0.20636117820E+00  0.24192008692E+01  0.24402556520E+01  0.51100000000E-03 0. -1.
    9000002    1    1    2    0    0  0.10469914495E+00 -0.51105501425E-01  0.43378492712E-01  0.94620260878E+00  0.93800000000E+00 0. -1.
         22    1    1    2    0    0  0.13969726345E+00 -0.15525567678E+00  0.15374206054E+01  0.15515417392E+01  0.00000000000E+00 0. -1.
</event>
<event>
 5    1  0.2111786E+001  0.1576255E+01  0.7818608E-02  0.3379545E+00
         11   -1    0    0    0    0  0.00000000000E+00  0.00000000000E+00  0.39999999674E+01  0.40000000000E+01  0.51100000000E-03 0. -1.
    9000002   -1    0    0    0    0 -0.00000000000E+00 -0.00000000000E+00  0.00000000000E+00  0.93800000000E+00  0.93800000000E+00 0.  1.
         11    1    1    2    0    0  0.14934479075E+00 -0.83020642698E-02  0.96023320814E+00  0.97181318469E+00  0.51100000000E-03 0. -1.
    9000002    1    1    2    0    0  0.28090586131E-01  0.13009721510E+00  0.29104896128E-01  0.94784252985E+00  0.93800000000E+00 0.  1.
         22    1    1    2    0    0 -0.17743537689E+00 -0.12179515083E+00  0.30106618631E+01  0.30183442855E+01  0.00000000000E+00 0. -1.
</event>
<event>
 5    1  0.2111786E+001  0.1546290E+01  0.7818608E-02  0.3413805E+00
         11   -1    0    0    0    0  0.00000000000E+00  0.00000000000E+00  0.39999999674E+01  0.40000000000E+01  0.51100000000E-03 0.  1.
    9000002   -1    0    0    0    0 -0.00000000000E+00 -0.00000000000E+00  0.00000000000E+00  0.93800000000E+00  0.93800000000E+00 0. -1.
         11    1    1    2    0    0  0.16026917293E+00  0.15755978279E+00  0.81953562981E+00  0.84979421191E+00  0.51100000000E-03 0.  1.
    9000002    1    1    2    0    0 -0.27165482683E-01  0.37449052145E-01  0.41166682537E-01  0.94004206858E+00  0.93800000000E+00 0. -1.
         22    1    1    2    0    0 -0.13310369025E+00 -0.19500883493E+00  0.31392976550E+01  0.31481637195E+01  0.00000000000E+00 0.  1.
</event>
<event>
 5    1  0.2111786E+001  0.1576272E+01  0.7818608E-02  0.3379526E+00
         11   -1    0    0    0    0  0.00000000000E+00  0.00000000000E+00  0.39999999674E+01  0.40000000000E+01  0.51100000000E-03 0.  1.
    9000002   -1    0    0    0    0 -0.00000000000E+00 -0.00000000000E+00  0.00000000000E+00  0.93800000000E+00  0.93800000000E+00 0.  1.
         11    1    1    2    0    0  0.14258913816E+00  0.40080754389E-01  0.18126763342E+01  0.18187176479E+01  0.51100000000E-03 0.  1.
    9000002    1    1    2    0    0  0.51897828079E-01  0.81814814911E-01  0.23463111190E-01  0.94328233636E+00  0.93800000000E+00 0.  1.
         22    1    1    2    0    0 -0.19448696624E+00 -0.12189556930E+00  0.21638605220E+01  0.21760000157E+01  0.00000000000E+00 0.  1.
</event>
<event>
 5    1  0.2111786E+001  0.1403714E+01  0.7818608E-02  0.3600940E+00
         11   -1    0    0    0    0  0.00000000000E+00  0.00000000000E+00  0.39999999674E+01  0.40000000000E+01  0.51100000000E-03 0.  1.
    9000002   -1    0    0    0    0 -0.00000000000E+00 -0.00000000000E+00  0.00000000000E+00  0.93800000000E+00  0.93800000000E+00 0. -1.
         11    1    1    2    0    0 -0.43266209774E+00  0.17029179749E+00  0.29624281832E+01  0.29986958480E+01  0.51100000000E-03 0.  1.
    9000002    1    1    2    0    0  0.27736020831E+00  0.26941649404E+00  0.28478871745E+00  0.10537848670E+01  0.93800000000E+00 0. -1.
         22    1    1    2    0    0  0.15530188943E+00 -0.43970829152E+00  0.75278306666E+00  0.88551928491E+00  0.00000000000E+00 0. -1.
</event>
<event>
 5    1  0.2111786E+001  0.1547072E+01  0.7818608E-02  0.3412892E+00
         11   -1    0    0    0    0  0.00000000000E+00  0.00000000000E+00  0.39999999674E+01  0.40000000000E+01  0.51100000000E-03 0.  1.
    9000002   -1    0    0    0    0 -0.00000000000E+00 -0.00000000000E+00  0.00000000000E+00  0.93800000000E+00  0.93800000000E+00 0. -1.
         11    1    1    2    0    0  0.14113815556E+00 -0.16174940644E+00  0.45312245201E+00  0.50140110398E+00  0.51100000000E-03 0.  1.
    9000002    1    1    2    0    0 -0.37297518076E+00  0.63265313986E-01  0.14073784829E+00  0.10211582284E+01  0.93800000000E+00 0. -1.
         22    1    1    2    0    0  0.23183702519E+00  0.98484092449E-01  0.34061396671E+01  0.34154406677E+01  0.00000000000E+00 0.  1.
</event>
<event>
 5    1  0.2111786E+001  0.1559352E+01  0.7818608E-02  0.3398698E+00
         11   -1    0    0    0    0  0.00000000000E+00  0.00000000000E+00  0.39999999674E+01  0.40000000000E+01  0.51100000000E-03 0. -1.
    9000002   -1    0    0    0    0 -0.00000000000E+00 -0.00000000000E+00  0.00000000000E+00  0.93800000000E+00  0.93800000000E+00 0.  1.
         11    1    1    2    0    0  0.10464507425E+00 -0.53654693791E+00  0.63293060051E+00  0.83632207571E+00  0.51100000000E-03 0. -1.
    9000002    1    1    2    0    0  0.16499927131E+00  0.33767862570E+00  0.35500875492E+00  0.10710400692E+01  0.93800000000E+00 0.  1.
         22    1    1    2    0    0 -0.26964434556E+00  0.19886831220E+00  0.30120606119E+01  0.30306378551E+01  0.00000000000E+00 0. -1.
</event>
<event>
 5    1  0.2111786E+001  0.1420621E+01  0.7818608E-02  0.3574477E+00
         11   -1    0    0    0    0  0.00000000000E+00  0.00000000000E+00  0.39999999674E+01  0.40000000000E+01  0.51100000000E-03 0. -1.
    9000002   -1    0    0    0    0 -0.00000000000E+00 -0.00000000000E+00  0.00000000000E+00  0.93800000000E+00  0.93800000000E+00 0.  1.
         11    1    1    2    0    0 -0.34861858774E+00  0.95598213785E-01  0.21621631642E+01  0.21921732934E+01  0.51100000000E-03 0. -1.
    9000002    1    1    2    0    0 -0.23093077525E+00  0.11874094640E+00  0.19770422037E+00  0.99315627877E+00  0.93800000000E+00 0.  1.
         22    1    1    2    0    0  0.57954936299E+00 -0.21433916019E+00  0.16401325827E+01  0.17526704279E+01  0.00000000000E+00 0.  1.
</event>
<event>
 5    1  0.2111786E+001  0.1523003E+01  0.7818608E-02  0.3441422E+00
         11   -1    0    0    0    0  0.00000000000E+00  0.00000000000E+00  0.39999999674E+01  0.40000000000E+01  0.51100000000E-03 0.  1.
    9000002   -1    0    0    0    0 -0.00000000000E+00 -0.00000000000E+00  0.00000000000E+00  0.93800000000E+00  0.93800000000E+00 0. -1.
         11    1    1    2    0    0 -0.33329969495E+00 -0.25977445249E-01  0.32821797693E+01  0.32991616835E+01  0.51100000000E-03 0.  1.
    9000002    1    1    2    0    0  0.11944296798E+00 -0.72702221737E-01  0.71633189163E-01  0.95106653260E+00  0.93800000000E+00 0. -1.
         22    1    1    2    0    0  0.21385672697E+00  0.98679666986E-01  0.64618700885E+00  0.68777178392E+00  0.00000000000E+00 0. -1.
</event>
<event>
 5    1  0.2111786E+001  0.1511639E+01  0.7818608E-02  0.3455229E+00
         11   -1    0    0    0    0  0.00000000000E+00  0.00000000000E+00  0.39999999674E+01  0.40000000000E+01  0.51100000000E-03 0.  1.
    9000002   -1    0    0    0    0 -0.00000000000E+00 -0.00000000000E+00  0.00000000000E+00  0.93800000000E+00  0.93800000000E+00 0.  1.
         11    1    1    2    0    0  0.48221448902E+00  0.18016678218E+00  0.20463697605E+01  0.21101232999E+01  0.51100000000E-03 0.  1.
    9000002    1    1    2    0    0 -0.25445520002E+00 -0.18385546125E+00  0.13882618441E+00  0.99883281330E+00  0.93800000000E+00 0.  1.
         22    1    1    2    0    0 -0.22775928900E+00  0.36886790712E-02  0.18148040224E+01  0.18290438868E+01  0.00000000000E+00 0.  1.
</event>
<event>
 5    1  0.2111786E+001  0.1580086E+01  0.7818608E-02  0.3375265E+00
         11   -1    0    0    0    0  0.00000000000E+00  0.00000000000E+00  0.39999999674E+01  0.40000000000E+01  0.51100000000E-03 0. -1.
    9000002   -1    0    0    0    0 -0.00000000000E+00 -0.00000000000E+00  0.00000000000E+00  0.93800000000E+00  0.93800000000E+00 0.  1.
         11    1    1    2    0    0 -0.11479159095E+00  0.77071896901E-01  0.21557653199E+01  0.21601947973E+01  0.51100000000E-03 0. -1.
    9000002    1    1    2    0    0 -0.93085844194E-01 -0.87988608168E-01  0.25347007271E-01  0.94704458202E+00  0.93800000000E+00 0.  1.
         22    1    1    2    0    0  0.20787743514E+00  0.10916711267E-01  0.18188876401E+01  0.18307606206E+01  0.00000000000E+00 0.  1.
</event>
<event>
 5    1  0.2111786E+001  0.1575633E+01  0.7818608E-02  0.3380243E+00
         11   -1    0    0    0    0  0.00000000000E+00  0.00000000000E+00  0.39999999674E+01  0.40000000000E+01  0.51100000000E-03 0.  1.
    9000002   -1    0    0    0    0 -0.00000000000E+00 -0.00000000000E+00  0.00000000000E+00  0.93800000000E+00  0.93800000000E+00 0. -1.
         11    1    1    2    0    0 -0.55586662993E-01  0.14671859917E+00  0.30760738774E+01  0.30800725616E+01  0.51100000000E-03 0.  1.
    9000002    1    1    2    0    0 -0.74813813176E-01 -0.31780077175E+00  0.90639908647E-01  0.99732343310E+00  0.93800000000E+00 0. -1.
         22    1    1    2    0    0  0.13040047617E+00  0.17108217257E+00  0.83328618130E+00  0.86060400528E+00  0.00000000000E+00 0.  1.
</event>
<event>
 5    1  0.2111786E+001  0.1535984E+01  0.7818608E-02  0.3425916E+00
         11   -1    0    0    0    0  0.00000000000E+00  0.00000000000E+00  0.39999999674E+01  0.40000000000E+01  0.51100000000E-03 0.  1.
    9000002   -1    0    0    0    0 -0.00000000000E+00 -0.00000000000E+00  0.00000000000E+00  0.93800000000E+00  0.93800000000E+00 0.  1.
         11    1    1    2    0    0  0.21082862214E+00  0.25846878096E+00  0.25654379373E+01  0.25870305158E+01  0.51100000000E-03 0.  1.
    9000002    1    1    2    0    0 -0.95974276626E-01 -0.14719879017E-01  0.54215483041E-01  0.94456924321E+00  0.93800000000E+00 0.  1.
         22    1    1    2    0    0 -0.11485434551E+00 -0.24374890194E+00  0.13803465471E+01  0.14064002410E+01  0.00000000000E+00 0.  1.
</event>
<event>
 5    1  0.2111786E+001  0.1497081E+01  0.7818608E-02  0.3473248E+00
         11   -1    0    0    0    0  0.00000000000E+00  0.00000000000E+00  0.39999999674E+01  0.40000000000E+01  0.51100000000E-03 0.  1.
    9000002   -1    0    0    0    0 -0.00000000000E+00 -0.00000000000E+00  0.00000000000E+00  0.93800000000E+00  0.93800000000E+00 0. -1.
         11    1    1    2    0    0 -0.85552933354E-02 -0.33504315534E+00  0.65842112146E+00  0.73881374059E+00  0.51100000000E-03 0.  1.
    9000002    1    1    2    0    0 -0.21472038607E+00  0.23905940515E+00  0.15524000410E+00  0.10035923985E+01  0.93800000000E+00 0. -1.
         22    1    1    2    0    0  0.22327567941E+00  0.95983750194E-01  0.31863388418E+01  0.31955938609E+01  0.00000000000E+00 0.  1.
</event>
<event>
 5    1  0.2111786E+001  0.1478656E+01  0.7818608E-02  0.3496602E+00
         11   -1    0    0    0    0  0.00000000000E+00  0.00000000000E+00  0.39999999674E+01  0.40000000000E+01  0.51100000000E-03 0. -1.
    9000002   -1    0    0    0    0 -0.00000000000E+00 -0.00000000000E+00  0.00000000000E+00  0.93800000000E+00  0.93800000000E+00 0.  1.
         11    1    1    2    0    0 -0.26574874523E+00 -0.35628676655E+00  0.84780164669E+00  0.95725155986E+00  0.51100000000E-03 0. -1.
    9000002    1    1    2    0    0 -0.25628608335E-01  0.80912161162E-01  0.15216458676E+00  0.95404489666E+00  0.93800000000E+00 0.  1.
         22    1    1    2    0    0  0.29137735356E+00  0.27537460539E+00  0.30000337339E+01  0.30267035435E+01  0.00000000000E+00 0. -1.
</event>
<event>
 5    1  0.2111786E+001  0.1582041E+01  0.7818608E-02  0.3373089E+00
         11   -1    0    0    0    0  0.00000000000E+00  0.00000000000E+00  0.39999999674E+01  0.40000000000E+01  0.51100000000E-03 0.  1.
    9000002   -1    0    0    0    0 -0.00000000000E+00 -0.00000000000E+00  0.00000000000E+00  0.93800000000E+00  0.93800000000E+00 0.  1.
         11    1    1    2    0    0 -0.16727196502E+00 -0.17325588004E+00  0.16514533246E+01  0.16689205658E+01  0.51100000000E-03 0.  1.
    9000002    1    1    2    0    0  0.29198970953E-01  0.33726903277E+00  0.90986293253E-01  0.10013618157E+01  0.93800000000E+00 0.  1.
         22    1    1    2    0    0  0.13807299407E+00 -0.16401315273E+00  0.22575603495E+01  0.22677176185E+01  0.00000000000E+00 0.  1.
</event>
<event>
 5    1  0.2111786E+001  0.1509540E+01  0.7818608E-02  0.3457804E+00
         11   -1    0    0    0    0  0.00000000000E+00  0.00000000000E+00  0.39999999674E+01  0.40000000000E+01  0.51100000000E-03 0. -1.
    9000002   -1    0    0    0    0 -0.00000000000E+00 -0.00000000000E+00  0.00000000000E+00  0.93800000000E+00  0.93800000000E+00 0.  1.
         11    1    1    2    0    0  0.91016535129E-01 -0.19509531853E+00  0.33574803075E+00  0.39883981026E+00  0.51100000000E-03 0. -1.
    9000002    1    1    2    0    0  0.95461584890E-01  0.11385948035E+00  0.84294335997E-01  0.95342877581E+00  0.93800000000E+00 0.  1.
         22    1    1    2    0    0 -0.18647812002E+00  0.81235838176E-01  0.35799576006E+01  0.35857314139E+01  0.00000000000E+00 0. -1.
</event>
<event>
 5    1  0.2111786E+001  0.1565181E+01  0.7818608E-02  0.3392044E+00
         11   -1    0    0    0    0  0.00000000000E+00  0.00000000000E+00  0.39999999674E+01  0.40000000000E+01  0.51100000000E-03 0. -1.
    9000002   -1    0    0    0    0 -0.00000000000E+00 -0.00000000000E+00  0.00000000000E+00  0.93800000000E+00  0.93800000000E+00 0. -1.
         11    1    1    2    0    0  0.21951886491E+00 -0.16409869461E+00  0.22312649460E+01  0.22480347938E+01  0.51100000000E-03 0. -1.
    9000002    1    1    2    0    0 -0.75806116224E-02  0.19727517503E+00  0.52086014810E-01  0.95996453752E+00  0.93800000000E+00 0. -1.
         22    1    1    2    0    0 -0.21193825328E+00 -0.33176480419E-01  0.17166490065E+01  0.17300006687E+01  0.00000000000E+00 0. -1.
</event>
<event>
 5    1  0.2111786E+001  0.1544576E+01  0.7818608E-02  0.3415807E+00
         11   -1    0    0    0    0  0.00000000000E+00  0.00000000000E+00  0.39999999674E+01  0.40000000000E+01  0.51100000000E-03 0.  1.
    9000002   -1    0    0    0    0 -0.00000000000E+00 -0.00000000000E+00  0.00000000000E+00  0.93800000000E+00  0.93800000000E+00 0. -1.
         11    1    1    2    0    0  0.28593107005E+00 -0.54943032854E-01  0.31985814896E+01  0.32118062084E+01  0.51100000000E-03 0.  1.
    9000002    1    1    2    0    0 -0.78422320502E-01  0.51180958720E-01  0.47093918405E-01  0.94383864513E+00  0.93800000000E+00 0. -1.
         22    1    1    2    0    0 -0.20750874955E+00  0.37620741343E-02  0.75432455935E+00  0.78235514645E+00  0.00000000000E+00 0.  1.
</event>
<event>
 5    1  0.2111786E+001  0.1551917E+01  0.7818608E-02  0.3407263E+00
         11   -1    0    0    0    0  0.00000000000E+00  0.00000000000E+00  0.39999999674E+01  0.40000000000E+01  0.51100000000E-03 0.  1.
    9000002   -1    0    0    0    0 -0.00000000000E+00 -0.00000000000E+00  0.00000000000E+00  0.93800000000E+00  0.93800000000E+00 0.  1.
         11    1    1    2    0    0 -0.14788116834E+00  0.37180005434E+00  0.19419489889E+01  0.19827431142E+01  0.51100000000E-03 0.  1.
    9000002    1    1    2    0    0 -0.95075741934E-01 -0.38847121526E+00  0.14875849214E+00  0.10304961770E+01  0.93800000000E+00 0.  1.
         22    1    1    2    0    0  0.24295691027E+00  0.16671160920E-01  0.19092924863E+01  0.19247607088E+01  0.00000000000E+00 0.  1.
</event>
<event>
 5    1  0.2111786E+001  0.1585222E+01  0.7818608E-02  0.3369561E+00
         11   -1    0    0    0    0  0.00000000000E+00  0.00000000000E+00  0.39999999674E+01  0.40000000000E+01  0.51100000000E-03 0. -1.
    9000002   -1    0    0    0    0 -0.00000000000E+00 -0.00000000000E+00  0.00000000000E+00  0.93800000000E+00  0.93800000000E+00 0.  1.
         11    1    1    2    0    0  0.48730436823E+00 -0.25735277317E-01  0.16772718892E+01  0.17468168488E+01  0.51100000000E-03 0. -1.
    9000002    1    1    2    0    0 -0.73077361581E+00  0.98208692700E-01  0.40990024257E+00  0.12615614269E+01  0.93800000000E+00 0.  1.
         22    1    1    2    0    0  0.24346924759E+00 -0.72473415383E-01  0.19128278356E+01  0.19296217244E+01  0.00000000000E+00 0. -1.
</event>
<event>
 5    1  0.2111786E+001  0.1450310E+01  0.7818608E-02  0.3533789E+00
         11   -1    0    0    0    0  0.00000000000E+00  0.00000000000E+00  0.39999999674E+01  0.40000000000E+01  0.51100000000E-03 0. -1.
    9000002   -1    0    0    0    0 -0.00000000000E+00 -0.00000000000E+00  0.00000000000E+00  0.93800000000E+00  0.93800000000E+00 0. -1.
         11    1    1    2    0    0  0.33991465172E+00 -0.49554282612E+00  0.25743048666E+01  0.26435110120E+01  0.51100000000E-03 0. -1.
    9000002    1    1    2    0    0 -0.38484645776E+00  0.10186681864E+00  0.24352029293E+00  0.10476782797E+01  0.93800000000E+00 0. -1.
         22    1    1    2    0    0  0.44931806040E-01  0.39367600748E+00  0.11821748078E+01  0.12468107083E+01  0.00000000000E+00 0.  1.
</event>
<event>
 5    1  0.2111786E+001  0.1568047E+01  0.7818608E-02  0.3388791E+00
         11   -1    0    0    0    0  0.00000000000E+00  0.00000000000E+00  0.39999999674E+01  0.40000000000E+01  0.51100000000E-03 0. -1.
    9000002   -1    0    0    0    0 -0.00000000000E+00 -0.00000000000E+00  0.00000000000E+00  0.93800000000E+00  0.93800000000E+00 0. -1.
         11    1    1    2    0    0  0.15969772807E+00 -0.11799870579E+00  0.12689684416E+01  0.12844096799E+01  0.51100000000E-03 0. -1.
    9000002    1    1    2    0    0  0.28397714780E-01  0.35338340022E-01  0.24646993312E-01  0.93941827891E+00  0.93800000000E+00 0. -1.
         22    1    1    2    0    0 -0.18809544285E+00  0.82660365770E-01  0.27063845324E+01  0.27141720412E+01  0.00000000000E+00 0. -1.
</event>
<event>
 5    1  0.2111786E+001  0.1595108E+01  0.7818608E-02  0.3358690E+00
         11   -1    0    0    0    0  0.00000000000E+00  0.00000000000E+00  0.39999999674E+01  0.40000000000E+01  0.51100000000E-03 0.  1.
    9000002   -1    0    0    0    0 -0.00000000000E+00 -0.00000000000E+00  0.00000000000E+00  0.93800000000E+00  0.93800000000E+00 0. -1.
         11    1    1    2    0    0  0.10525514062E-01 -0.29605844574E-01  0.52230743124E+00  0.52325195301E+00  0.51100000000E-03 0.  1.
    9000002    1    1    2    0    0  0.25936265855E+00 -0.18548686222E-01  0.48465430769E-01  0.97457987892E+00  0.93800000000E+00 0. -1.
         22    1    1    2    0    0 -0.26988817261E+00  0.48154530796E-01  0.34292271054E+01  0.34401681681E+01  0.00000000000E+00 0.  1.
</event>
<event>
 5    1  0.2111786E+001  0.1400101E+01  0.7818608E-02  0.3606712E+00
         11   -1    0    0    0    0  0.00000000000E+00  0.00000000000E+00  0.39999999674E+01  0.40000000000E+01  0.51100000000E-03 0. -1.
    9000002   -1    0    0    0    0 -0.00000000000E+00 -0.00000000000E+00  0.00000000000E+00  0.93800000000E+00  0.93800000000E+00 0. -1.
         11    1    1    2    0    0 -0.53266542409E+00 -0.29188227025E+00  0.21289037516E+01  0.22138561738E+01  0.51100000000E-03 0. -1.
    9000002    1    1    2    0    0  0.31247221747E-01  0.27336568013E+00  0.22473944255E+00  0.10030239284E+01  0.93800000000E+00 0. -1.
         22    1    1    2    0    0  0.50141820234E+00  0.18516590126E-01  0.16463567733E+01  0.17211198978E+01  0.00000000000E+00 0. -1.
</event>
<event>
 5    1  0.2111786E+001  0.1554097E+01  0.7818608E-02  0.3404743E+00
         11   -1    0    0    0    0  0.00000000000E+00  0.00000000000E+00  0.39999999674E+01  0.40000000000E+01  0.51100000000E-03 0.  1.
    9000002   -1    0    0    0    0 -0.00000000000E+00 -0.00000000000E+00  0.00000000000E+00  0.93800000000E+00  0.93800000000E+00 0. -1.
         11    1    1    2    0    0  0.15798499093E+00  0.19247056001E+00  0.12280279396E+01  0.12530191760E+01  0.51100000000E-03 0.  1.
    9000002    1    1    2    0    0 -0.94091383702E-02 -0.38495469211E-01  0.34824139876E-01  0.93948238608E+00  0.93800000000E+00 0. -1.
         22    1    1    2    0    0 -0.14857585256E+00 -0.15397509080E+00  0.27371478879E+01  0.27454984379E+01  0.00000000000E+00 0.  1.
</event>
<event>
 5    1  0.2111786E+001  0.1573957E+01  0.7818608E-02  0.3382124E+00
         11   -1    0    0    0    0  0.00000000000E+00  0.00000000000E+00  0.39999999674E+01  0.40000000000E+01  0.51100000000E-03 0.  1.
    9000002   -1    0    0    0    0 -0.00000000000E+00 -0.00000000000E+00  0.00000000000E+00  0.93800000000E+00  0.93800000000E+00 0. -1.
         11    1    1    2    0    0 -0.13012882801E+00  0.14462588061E+00  0.23808647720E+01  0.23888004272E+01  0.51100000000E-03 0.  1.
    9000002    1    1    2    0    0 -0.82059898612E-01 -0.14143980527E+00  0.36967925035E-01  0.95286393203E+00  0.93800000000E+00 0. -1.
         22    1    1    2    0    0  0.21218872662E+00 -0.31860753348E-02  0.15821672703E+01  0.15963356408E+01  0.00000000000E+00 0.  1.
</event>
<event>
 5    1  0.2111786E+001  0.1558034E+01  0.7818608E-02  0.3400211E+00
         11   -1    0    0    0    0  0.00000000000E+00  0.00000000000E+00  0.39999999674E+01  0.40000000000E+01  0.51100000000E-03 0.  1.
    9000002   -1    0    0    0    0 -0.00000000000E+00 -0.00000000000E+00  0.00000000000E+00  0.93800000000E+00  0.93800000000E+00 0.  1.
         11    1    1    2    0    0 -0.15368511767E+00 -0.21045330804E+00  0.63274775852E+00  0.68430965015E+00  0.51100000000E-03 0.  1.
    9000002    1    1    2    0    0  0.33026075362E+00  0.31124109575E+00  0.17696523656E+00  0.10569313507E+01  0.93800000000E+00 0.  1.
         22    1    1    2    0    0 -0.17657563594E+00 -0.10078778771E+00  0.31902869723E+01  0.31967589992E+01  0.00000000000E+00 0.  1.
</event>
<event>
 5    1  0.2111786E+001  0.1590280E+01  0.7818608E-02  0.3363981E+00
         11   -1    0    0    0    0  0.00000000000E+00  0.00000000000E+00  0.39999999674E+01  0.40000000000E+01  0.51100000000E-03 0.  1.
    9000002   -1    0    0    0    0 -0.00000000000E+00 -0.00000000000E+00  0.00000000000E+00  0.93800000000E+00  0.93800000000E+00 0.  1.
         11    1    1    2    0    0  0.37080209707E-01 -0.46675059029E-02  0.10098409672E+01  0.10105324179E+01  0.51100000000E-03 0.  1.
    9000002    1    1    2    0    0  0.57202606729E-01  0.35887014991E+00  0.96350319291E-01  0.10105381273E+01  0.93800000000E+00 0.  1.
         22    1    1    2    0    0 -0.94282816437E-01 -0.35420264401E+00  0.28938086809E+01  0.29169294548E+01  0.00000000000E+00 0.  1.
</event>
<event>
 5    1  0.2111786E+001  0.1396538E+01  0.7818608E-02  0.3612438E+00
         11   -1    0    0    0    0  0.00000000000E+00  0.00000000000E+00  0.39999999674E+01  0.40000000000E+01  0.51100000000E-03 0. -1.
    9000002   -1    0    0    0    0 -0.00000000000E+00 -0.00000000000E+00  0.00000000000E+00  0.93800000000E+00  0.93800000000E+00 0. -1.
         11    1    1    2    0    0  0.45621615185E+00  0.44662843896E-01  0.17073385994E+01  0.17678046558E+01  0.51100000000E-03 0. -1.
    9000002    1    1    2    0    0  0.15485761635E+00  0.16990820098E+00  0.20888581451E+00  0.98809258757E+00  0.93800000000E+00 0. -1.
         22    1    1    2    0    0 -0.61107376821E+00 -0.21457104488E+00  0.20837755534E+01  0.21821027567E+01  0.00000000000E+00 0. -1.
</event>
<event>
 5    1  0.2111786E+001  0.1549516E+01  0.7818608E-02  0.3410049E+00
         11   -1    0    0    0    0  0.00000000000E+00  0.00000000000E+00  0.39999999674E+01  0.40000000000E+01  0.51100000000E-03 0. -1.
    9000002   -1    0    0    0    0 -0.00000000000E+00 -0.00000000000E+00  0.00000000000E+00  0.93800000000E+00  0.93800000000E+00 0. -1.
         11    1    1    2    0    0  0.27675384079E+00 -0.60348633645E-01  0.20481945651E+01  0.20676885364E+01  0.51100000000E-03 0. -1.
    9000002    1    1    2    0    0 -0.17845199608E-01  0.56598388135E-01  0.39658098229E-01  0.94071174833E+00  0.93800000000E+00 0. -1.
         22    1    1    2    0    0 -0.25890864119E+00  0.37502455093E-02  0.19121473040E+01  0.19295997153E+01  0.00000000000E+00 0. -1.
</event>
<event>
 5    1  0.2111786E+001  0.1545772E+01  0.7818608E-02  0.3414408E+00
         11   -1    0    0    0    0  0.00000000000E+00  0.00000000000E+00  0.39999999674E+01  0.40000000000E+01  0.51100000000E-03 0. -1.
    9000002   -1    0    0    0    0 -0.00000000000E+00 -0.00000000000E+00  0.00000000000E+00  0.93800000000E+00  0.93800000000E+00 0. -1.
         11    1    1    2    0    0 -0.10175182083E+00  0.19142031699E+00  0.20967583102E+01  0.21079352085E+01  0.51100000000E-03 0. -1.
    9000002    1    1    2    0    0 -0.82492045710E-01  0.87864536303E-01  0.50181629506E-01  0.94704134560E+00  0.93800000000E+00 0. -1.
         22    1    1    2    0    0  0.18424386654E+00 -0.27928485329E+00  0.18530600277E+01  0.18830234459E+01  0.00000000000E+00 0. -1.
</event>
<event>
 5    1  0.2111786E+001  0.1560837E+01  0.7818608E-02  0.3396999E+00
         11   -1    0    0    0    0  0.00000000000E+00  0.00000000000E+00  0.39999999674E+01  0.40000000000E+01  0.51100000000E-03 0. -1.
    9000002   -1    0    0    0    0 -0.00000000000E+00 -0.00000000000E+00  0.00000000000E+00  0.93800000000E+00  0.93800000000E+00 0.  1.
         11    1    1    2    0    0  0.10888759556E+00 -0.25008719421E+00  0.26695425562E+01  0.26834414161E+01  0.51100000000E-03 0. -1.
    9000002    1    1    2    0    0 -0.90084002250E-01  0.48830670373E-01  0.35844490298E-01  0.94426076341E+00  0.93800000000E+00 0.  1.
         22    1    1    2    0    0 -0.18803593306E-01  0.20125652384E+00  0.12946129209E+01  0.13102978205E+01  0.00000000000E+00 0. -1.
</event>
<event>
 5    1  0.2111786E+001  0.1510988E+01  0.7818608E-02  0.3456028E+00
         11   -1    0    0    0    0  0.00000000000E+00  0.00000000000E+00  0.39999999674E+01  0.40000000000E+01  0.51100000000E-03 0.  1.
    9000002   -1    0    0    0    0 -0.00000000000E+00 -0.00000000000E+00  0.00000000000E+00  0.93800000000E+00  0.93800000000E+00 0.  1.
         11    1    1    2    0    0 -0.31879566867E+00 -0.29229674875E+00  0.17388109169E+01  0.17917956729E+01  0.51100000000E-03 0.  1.
    9000002    1    1    2    0    0  0.10840930072E+00  0.13431025938E+00  0.88724774371E-01  0.95786633089E+00  0.93800000000E+00 0.  1.
         22    1    1    2    0    0  0.21038636794E+00  0.15798648937E+00  0.21724642761E+01  0.21883379962E+01  0.00000000000E+00 0.  1.
</event>
<event>
 5    1  0.2111786E+001  0.1547308E+01  0.7818608E-02  0.3412617E+00
         11   -1    0    0    0    0  0.00000000000E+00  0.00000000000E+00  0.39999999674E+01  0.40000000000E+01  0.51100000000E-03 0. -1.
    9000002   -1    0    0    0    0 -0.00000000000E+00 -0.00000000000E+00  0.00000000000E+00  0.93800000000E+00  0.93800000000E+00 0. -1.
         11    1    1    2    0    0  0.15825336641E+00 -0.41548184960E-02  0.37411373016E+00  0.40622990377E+00  0.51100000000E-03 0. -1.
    9000002    1    1    2    0    0  0.56588896214E-01  0.38703620148E-01  0.42163198903E-01  0.94144676362E+00  0.93800000000E+00 0. -1.
         22    1    1    2    0    0 -0.21484226263E+00 -0.34548801653E-01  0.35837230383E+01  0.35903233326E+01  0.00000000000E+00 0. -1.
</event>
<event>
 5    1  0.2111786E+001  0.1582130E+01  0.7818608E-02  0.3372991E+00
         11   -1    0    0    0    0  0.00000000000E+00  0.00000000000E+00  0.39999999674E+01  0.40000000000E+01  0.51100000000E-03 0.  1.
    9000002   -1    0    0    0    0 -0.00000000000E+00 -0.00000000000E+00  0.00000000000E+00  0.93800000000E+00  0.93800000000E+00 0.  1.
         11    1    1    2    0    0  0.76620264195E-01  0.71619951574E-01  0.72497928120E+00  0.73252665593E+00  0.51100000000E-03 0.  1.
    9000002    1    1    2    0    0  0.40312750371E-01  0.10134140317E+00  0.20785905258E-01  0.94454817331E+00  0.93800000000E+00 0.  1.
         22    1    1    2    0    0 -0.11693301457E+00 -0.17296135474E+00  0.32542347809E+01  0.32609251708E+01  0.00000000000E+00 0.  1.
</event>
<event>
 5    1  0.2111786E+001  0.1566514E+01  0.7818608E-02  0.3390530E+00
         11   -1    0    0    0    0  0.00000000000E+00  0.00000000000E+00  0.39999999674E+01  0.40000000000E+01  0.51100000000E-03 0.  1.
    9000002   -1    0    0    0    0 -0.00000000000E+00 -0.00000000000E+00  0.00000000000E+00  0.93800000000E+00  0.93800000000E+00 0.  1.
         11    1    1    2    0    0 -0.19436252227E-01 -0.82259492049E-01  0.16875467438E+00  0.18874001478E+00  0.51100000000E-03 0.  1.
    9000002    1    1    2    0    0 -0.79691342624E-01 -0.12448229487E+00  0.39297243775E-01  0.95038667141E+00  0.93800000000E+00 0.  1.
         22    1    1    2    0    0  0.99127594851E-01  0.20674178692E+00  0.37919480492E+01  0.37988733138E+01  0.00000000000E+00 0.  1.
</event>
<event>
 5    1  0.2111786E+001  0.1490145E+01  0.7818608E-02  0.3481967E+00
         11   -1    0    0    0    0  0.00000000000E+00  0.00000000000E+00  0.39999999674E+01  0.40000000000E+01  0.51100000000E-03 0. -1.
    9000002   -1    0    0    0    0 -0.00000000000E+00 -0.00000000000E+00  0.00000000000E+00  0.93800000000E+00  0.93800000000E+00 0. -1.
         11    1    1    2    0    0 -0.18210026273E+00 -0.38875019746E+00  0.29499757494E+01  0.29810475349E+01  0.51100000000E-03 0. -1.
    9000002    1    1    2    0    0 -0.97475163946E-01  0.21441612772E+00  0.12519766207E+00  0.97518928317E+00  0.93800000000E+00 0. -1.
         22    1    1    2    0    0  0.27957542667E+00  0.17433406974E+00  0.92482655586E+00  0.98176318198E+00  0.00000000000E+00 0. -1.
</event>
<event>
 5    1  0.2111786E+001  0.1560117E+01  0.7818608E-02  0.3397822E+00
         11   -1    0    0    0    0  0.00000000000E+00  0.00000000000E+00  0.39999999674E+01  0.40000000000E+01  0.51100000000E-03 0.  1.
    9000002   -1    0    0    0    0 -0.00000000000E+00 -0.00000000000E+00  0.00000000000E+00  0.93800000000E+00  0.93800000000E+00 0. -1.
         11    1    1    2    0    0 -0.13521096219E+00  0.37116537782E-01  0.29418439897E+01  0.29451835193E+01  0.51100000000E-03 0.  1.
    9000002    1    1    2    0    0 -0.97991744552E-01 -0.81026660152E-02  0.35820680011E-01  0.94381945112E+00  0.93800000000E+00 0. -1.
         22    1    1    2    0    0  0.23320270674E+00 -0.29013871767E-01  0.10223352976E+01  0.10489970295E+01  0.00000000000E+00 0.  1.
</event>
<event>
 5    1  0.2111786E+001  0.1575740E+01  0.7818608E-02  0.3380123E+00
         11   -1    0    0    0    0  0.00000000000E+00  0.00000000000E+00  0.39999999674E+01  0.40000000000E+01  0.51100000000E-03 0.  1.
    9000002   -1    0    0    0    0 -0.00000000000E+00 -0.00000000000E+00  0.00000000000E+00  0.93800000000E+00  0.93800000000E+00 0.  1.
         11    1    1    2    0    0 -0.15768582217E+00 -0.39568159358E-01  0.11795195061E+01  0.11906708127E+01  0.51100000000E-03 0.  1.
    9000002    1    1    2    0    0 -0.40876941171E-01  0.96302538040E-01  0.24913320175E-01  0.94414499770E+00  0.93800000000E+00 0.  1.
         22    1    1    2    0    0  0.19856276334E+00 -0.56734378682E-01  0.27955671411E+01  0.28031841896E+01  0.00000000000E+00 0.  1.
</event>
<event>
 5    1  0.2111786E+001  0.1535204E+01  0.7818608E-02  0.3426840E+00
         11   -1    0    0    0    0  0.00000000000E+00  0.00000000000E+00  0.39999999674E+01  0.40000000000E+01  0.51100000000E-03 0.  1.
    9000002   -1    0    0    0    0 -0.00000000000E+00 -0.00000000000E+00  0.00000000000E+00  0.93800000000E+00  0.93800000000E+00 0.  1.
         11    1    1    2    0    0 -0.70258388745E+00  0.48869655180E+00  0.23357639680E+01  0.24876177387E+01  0.51100000000E-03 0.  1.
    9000002    1    1    2    0    0  0.59672284617E+00 -0.66730299181E+00  0.71902469266E+00  0.14826368222E+01  0.93800000000E+00 0.  1.
         22    1    1    2    0    0  0.10586104128E+00  0.17860644001E+00  0.94521130668E+00  0.96774543902E+00  0.00000000000E+00 0. -1.
</event>
<event>
 5    1  0.2111786E+001  0.1571419E+01  0.7818608E-02  0.3384980E+00
         11   -1    0    0    0    0  0.00000000000E+00  0.00000000000E+00  0.39999999674E+01  0.40000000000E+01  0.51100000000E-03 0. -1.
    9000002   -1    0    0    0    0 -0.00000000000E+00 -0.00000000000E+00  0.00000000000E+00  0.93800000000E+00  0.93800000000E+00 0.  1.
         11    1    1    2    0    0  0.12438919366E+00 -0.12991639805E+00  0.13223234346E+01  0.13345000819E+01  0.51100000000E-03 0. -1.
    9000002    1    1    2    0    0  0.32866409210E-01 -0.13120536267E-01  0.21585162614E-01  0.93891547467E+00  0.93800000000E+00 0.  1.
         22    1    1    2    0    0 -0.15725560287E+00  0.14303693431E+00  0.26560913702E+01  0.26645844434E+01  0.00000000000E+00 0. -1.
</event>
<event>
 5    1  0.2111786E+001  0.1067033E+01  0.7818608E-02  0.4354661E+00
         11   -1    0    0    0    0  0.00000000000E+00  0.00000000000E+00  0.39999999674E+01  0.40000000000E+01  0.51100000000E-03 0.  1.
    9000002   -1    0    0    0    0 -0.00000000000E+00 -0.00000000000E+00  0.00000000000E+00  0.93800000000E+00  0.93800000000E+00 0.  1.
         11    1    1    2    0    0 -0.43747444578E-01  0.76310593704E+00  0.42699180447E+00  0.87553799019E+00  0.51100000000E-03 0.  1.
    9000002    1    1    2    0    0 -0.26054382579E+00 -0.33503845087E+00  0.99599417622E+00  0.14324741700E+01  0.93800000000E+00 0.  1.
         22    1    1    2    0    0  0.30429127037E+00 -0.42806748618E+00  0.25770139867E+01  0.26299878398E+01  0.00000000000E+00 0.  1.
</event>
<event>
 5    1  0.2111786E+001  0.1568180E+01  0.7818608E-02  0.3388641E+00
         11   -1    0    0    0    0  0.00000000000E+00  0.00000000000E+00  0.39999999674E+01  0.40000000000E+01  0.51100000000E-03 0.  1.
    9000002   -1    0    0    0    0 -0.00000000000E+00 -0.00000000000E+00  0.00000000000E+00  0.93800000000E+00  0.93800000000E+00 0.  1.
         11    1    1    2    0    0  0.21885483186E+00 -0.99173225444E-02  0.15506216329E+01  0.15660215517E+01  0.51100000000E-03 0.  1.
    9000002    1    1    2    0    0 -0.43515589082E-01  0.15946012930E+00  0.41771431517E-01  0.95336771071E+00  0.93800000000E+00 0.  1.
         22    1    1    2    0    0 -0.17533924277E+00 -0.14954280676E+00  0.24076069029E+01  0.24186107376E+01  0.00000000000E+00 0.  1.
</event>
<event>
 5    1  0.2111786E+001  0.1568947E+01  0.7818608E-02  0.3387773E+00
         11   -1    0    0    0    0  0.00000000000E+00  0.00000000000E+00  0.39999999674E+01  0.40000000000E+01  0.51100000000E-03 0. -1.
    9000002   -1    0    0    0    0 -0.00000000000E+00 -0.00000000000E+00  0.00000000000E+00  0.93800000000E+00  0.93800000000E+00 0. -1.
         11    1    1    2    0    0  0.70231518297E-01 -0.20117696218E+00  0.16201737195E+01  0.16341259984E+01  0.51100000000E-03 0. -1.
    9000002    1    1    2    0    0  0.12144215028E+00  0.78049926077E-01  0.36756453330E-01  0.94975524410E+00  0.93800000000E+00 0. -1.
         22    1    1    2    0    0 -0.19167366857E+00  0.12312703610E+00  0.23430697946E+01  0.23541187575E+01  0.00000000000E+00 0.  1.
</event>
<event>
 5    1  0.2111786E+001  0.1543851E+01  0.7818608E-02  0.3416656E+00
         11   -1    0    0    0    0  0.00000000000E+00  0.00000000000E+00  0.39999999674E+01  0.40000000000E+01  0.51100000000E-03 0.  1.
    9000002   -1    0    0    0    0 -0.00000000000E+00 -0.00000000000E+00  0.00000000000E+00  0.93800000000E+00  0.93800000000E+00 0.  1.
         11    1    1    2    0    0 -0.44772349263E-02  0.37136785132E+00  0.16240595107E+01  0.16659842983E+01  0.51100000000E-03 0.  1.
    9000002    1    1    2    0    0 -0.15752343462E+00 -0.23829989345E+00  0.99082263552E-01  0.98552613696E+00  0.93800000000E+00 0.  1.
         22    1    1    2    0    0  0.16200066955E+00 -0.13306795788E+00  0.22768581931E+01  0.22864895648E+01  0.00000000000E+00 0.  1.
</event>
<event>
 5    1  0.2111786E+001  0.1551196E+01  0.7818608E-02  0.3408099E+00
         11   -1    0    0    0    0  0.00000000000E+00  0.00000000000E+00  0.39999999674E+01  0.40000000000E+01  0.51100000000E-03 0.  1.
    9000002   -1    0    0    0    0 -0.00000000000E+00 -0.00000000000E+00  0.00000000000E+00  0.93800000000E+00  0.93800000000E+00 0. -1.
         11    1    1    2    0    0  0.10035046305E+00 -0.13245521432E+00  0.47093343133E+00  0.49939278840E+00  0.51100000000E-03 0.  1.
    9000002    1    1    2    0    0  0.91631788586E-01 -0.28365529611E-02  0.41752927292E-01  0.94339373416E+00  0.93800000000E+00 0. -1.
         22    1    1    2    0    0 -0.19198225163E+00  0.13529176728E+00  0.34873136087E+01  0.34952134774E+01  0.00000000000E+00 0.  1.
</event>
<event>
 5    1  0.2111786E+001  0.1499968E+01  0.7818608E-02  0.3469645E+00
         11   -1    0    0    0    0  0.00000000000E+00  0.00000000000E+00  0.39999999674E+01  0.40000000000E+01  0.51100000000E-03 0. -1.
    9000002   -1    0    0    0    0 -0.00000000000E+00 -0.00000000000E+00  0.00000000000E+00  0.93800000000E+00  0.93800000000E+00 0. -1.
         11    1    1    2    0    0  0.33995138322E+00 -0.10067729639E+00  0.98347967803E+00  0.10454355069E+01  0.51100000000E-03 0. -1.
    9000002    1    1    2    0    0 -0.73362312842E-01  0.66073181178E-01  0.83081676718E-01  0.94683380760E+00  0.93800000000E+00 0. -1.
         22    1    1    2    0    0 -0.26658907038E+00  0.34604115215E-01  0.29334386126E+01  0.29457306854E+01  0.00000000000E+00 0. -1.
</event>
<event>
 5    1  0.2111786E+001  0.1574160E+01  0.7818608E-02  0.3381896E+00
         11   -1    0    0    0    0  0.00000000000E+00  0.00000000000E+00  0.39999999674E+01  0.40000000000E+01  0.51100000000E-03 0. -1.
    9000002   -1    0    0    0    0 -0.00000000000E+00 -0.00000000000E+00  0.00000000000E+00  0.93800000000E+00  0.93800000000E+00 0. -1.
         11    1    1    2    0    0 -0.52108898951E-01  0.16291065901E+00  0.17581197283E+01  0.17664202389E+01  0.51100000000E-03 0. -1.
    9000002    1    1    2    0    0 -0.35622237430E-01  0.35139092686E-01  0.20391025493E-01  0.93955494440E+00  0.93800000000E+00 0. -1.
         22    1    1    2    0    0  0.87731136381E-01 -0.19804975169E+00  0.22214892135E+01  0.22320248167E+01  0.00000000000E+00 0. -1.
</event>
<event>
 5    1  0.2111786E+001  0.1569588E+01  0.7818608E-02  0.3387048E+00
         11   -1    0    0    0    0  0.00000000000E+00  0.00000000000E+00  0.39999999674E+01  0.40000000000E+01  0.51100000000E-03 0. -1.
    9000002   -1    0    0    0    0 -0.00000000000E+00 -0.00000000000E+00  0.00000000000E+00  0.93800000000E+00  0.93800000000E+00 0. -1.
         11    1    1    2    0    0  0.99703070701E-01  0.96421164326E-01  0.72910323533E+00  0.74217890844E+00  0.51100000000E-03 0. -1.
    9000002    1    1    2    0    0 -0.13302542306E+00  0.25718372967E+00  0.79681744428E-01  0.98490223595E+00  0.93800000000E+00 0. -1.
         22    1    1    2    0    0  0.33322352362E-01 -0.35360489400E+00  0.31912149876E+01  0.32109188556E+01  0.00000000000E+00 0. -1.
</event>
<event>
 5    1  0.2111786E+001  0.1574631E+01  0.7818608E-02  0.3381367E+00
         11   -1    0    0    0    0  0.00000000000E+00  0.00000000000E+00  0.39999999674E+01  0.40000000000E+01  0.51100000000E-03 0. -1.
    9000002   -1    0    0    0    0 -0.00000000000E+00 -0.00000000000E+00  0.00000000000E+00  0.93800000000E+00  0.93800000000E+00 0. -1.
         11    1    1    2    0    0  0.15564924397E+00 -0.44735464025E-02  0.15583457369E+01  0.15661061256E+01  0.51100000000E-03 0. -1.
    9000002    1    1    2    0    0  0.60215617470E-01  0.13724557708E+00  0.33549337137E-01  0.95049030875E+00  0.93800000000E+00 0. -1.
         22    1    1    2    0    0 -0.21586486144E+00 -0.13277203068E+00  0.24081048933E+01  0.24214035656E+01  0.00000000000E+00 0. -1.
</event>
<event>
 5    1  0.2111786E+001  0.1310189E+01  0.7818608E-02  0.3762625E+00
         11   -1    0    0    0    0  0.00000000000E+00  0.00000000000E+00  0.39999999674E+01  0.40000000000E+01  0.51100000000E-03 0.  1.
    9000002   -1    0    0    0    0 -0.00000000000E+00 -0.00000000000E+00  0.00000000000E+00  0.93800000000E+00  0.93800000000E+00 0.  1.
         11    1    1    2    0    0  0.58130900088E+00  0.27090360522E+00  0.11883328978E+01  0.13503496787E+01  0.51100000000E-03 0.  1.
    9000002    1    1    2    0    0 -0.43940840166E-01 -0.14461446138E+00  0.27140553383E+00  0.98810379195E+00  0.93800000000E+00 0.  1.
         22    1    1    2    0    0 -0.53736816071E+00 -0.12628914384E+00  0.25402615358E+01  0.25995465293E+01  0.00000000000E+00 0. -1.
</event>
<event>
 5    1  0.2111786E+001  0.1522083E+01  0.7818608E-02  0.3442531E+00
         11   -1    0    0    0    0  0.00000000000E+00  0.00000000000E+00  0.39999999674E+01  0.40000000000E+01  0.51100000000E-03 0.  1.
    9000002   -1    0    0    0    0 -0.00000000000E+00 -0.00000000000E+00  0.00000000000E+00  0.93800000000E+00  0.93800000000E+00 0. -1.
         11    1    1    2    0    0  0.24501309108E+00  0.33833584860E+00  0.19967884146E+01  0.20400163713E+01  0.51100000000E-03 0.  1.
    9000002    1    1    2    0    0 -0.17709304724E+00 -0.80067020599E-01  0.85459928680E-01  0.96172765094E+00  0.93800000000E+00 0. -1.
         22    1    1    2    0    0 -0.67920043832E-01 -0.25826882800E+00  0.19177516241E+01  0.19362559778E+01  0.00000000000E+00 0.  1.
</event>
<event>
 5    1  0.2111786E+001  0.1451364E+01  0.7818608E-02  0.3532378E+00
         11   -1    0    0    0    0  0.00000000000E+00  0.00000000000E+00  0.39999999674E+01  0.40000000000E+01  0.51100000000E-03 0. -1.
    9000002   -1    0    0    0    0 -0.00000000000E+00 -0.00000000000E+00  0.00000000000E+00  0.93800000000E+00  0.93800000000E+00 0.  1.
         11    1    1    2    0    0 -0.28775810420E+00 -0.20580970605E+00  0.19752136898E+01  0.20066468905E+01  0.51100000000E-03 0. -1.
    9000002    1    1    2    0    0  0.19337420198E+00 -0.41433069252E+00  0.28468895907E+00  0.10816447236E+01  0.93800000000E+00 0.  1.
         22    1    1    2    0    0  0.94383902222E-01  0.62014039857E+00  0.17400973185E+01  0.18497083858E+01  0.00000000000E+00 0. -1.
</event>
<event>
 5    1  0.2111786E+001  0.1381220E+01  0.7818608E-02  0.3637455E+00
         11   -1    0    0    0    0  0.00000000000E+00  0.00000000000E+00  0.39999999674E+01  0.40000000000E+01  0.51100000000E-03 0.  1.
    9000002   -1    0    0    0    0 -0.00000000000E+00 -0.00000000000E+00  0.00000000000E+00  0.93800000000E+00  0.93800000000E+00 0.  1.
         11    1    1    2    0    0  0.55037509751E+00  0.44178194471E+00  0.24846787281E+01  0.25829658685E+01  0.51100000000E-03 0.  1.
    9000002    1    1    2    0    0 -0.21976677770E+00 -0.14496698001E+00  0.23835230656E+00  0.10029799021E+01  0.93800000000E+00 0.  1.
         22    1    1    2    0    0 -0.33060831981E+00 -0.29681496470E+00  0.12769689327E+01  0.13520542294E+01  0.00000000000E+00 0. -1.
</event>
<event>
 5    1  0.2111786E+001  0.1556024E+01  0.7818608E-02  0.3402522E+00
         11   -1    0    0    0    0  0.00000000000E+00  0.00000000000E+00  0.39999999674E+01  0.40000000000E+01  0.51100000000E-03 0. -1.
    9000002   -1    0    0    0    0 -0.00000000000E+00 -0.00000000000E+00  0.00000000000E+00  0.93800000000E+00  0.93800000000E+00 0. -1.
         11    1    1    2    0    0 -0.86171189834E-01 -0.23583948897E+00  0.15634753729E+01  0.15835091542E+01  0.51100000000E-03 0. -1.
    9000002    1    1    2    0    0  0.15541807235E+00 -0.22406090690E-01  0.49288421442E-01  0.95232880803E+00  0.93800000000E+00 0. -1.
         22    1    1    2    0    0 -0.69246882513E-01  0.25824557966E+00  0.23872361730E+01  0.24021620378E+01  0.00000000000E+00 0. -1.
</event>
<event>
 5    1  0.2111786E+001  0.1485871E+01  0.7818608E-02  0.3487382E+00
         11   -1    0    0    0    0  0.00000000000E+00  0.00000000000E+00  0.39999999674E+01  0.40000000000E+01  0.51100000000E-03 0.  1.
    9000002   -1    0    0    0    0 -0.00000000000E+00 -0.00000000000E+00  0.00000000000E+00  0.93800000000E+00  0.93800000000E+00 0. -1.
         11    1    1    2    0    0 -0.22123095493E+00 -0.18464613115E-01  0.33762715317E+00  0.40407478643E+00  0.51100000000E-03 0.  1.
    9000002    1    1    2    0    0 -0.15663026268E+00 -0.54444823485E-01  0.10784948729E+00  0.95863068483E+00  0.93800000000E+00 0. -1.
         22    1    1    2    0    0  0.37786121761E+00  0.72909436600E-01  0.35545233269E+01  0.35752945287E+01  0.00000000000E+00 0.  1.
</event>
<event>
 5    1  0.2111786E+001  0.1541854E+01  0.7818608E-02  0.3418996E+00
         11   -1    0    0    0    0  0.00000000000E+00  0.00000000000E+00  0.39999999674E+01  0.40000000000E+01  0.51100000000E-03 0. -1.
    9000002   -1    0    0    0    0 -0.00000000000E+00 -0.00000000000E+00  0.00000000000E+00  0.93800000000E+00  0.93800000000E+00 0. -1.
         11    1    1    2    0    0  0.14343345144E+00 -0.75477608594E-01  0.34245745204E+00  0.37887648643E+00  0.51100000000E-03 0. -1.
    9000002    1    1    2    0    0  0.20302559451E-01 -0.57847101640E-01  0.45697210460E-01  0.94111142599E+00  0.93800000000E+00 0. -1.
         22    1    1    2    0    0 -0.16373601089E+00  0.13332471023E+00  0.36118453049E+01  0.36180120876E+01  0.00000000000E+00 0. -1.
</event>
<event>
 5    1  0.2111786E+001  0.1527423E+01  0.7818608E-02  0.3436110E+00
         11   -1    0    0    0    0  0.00000000000E+00  0.00000000000E+00  0.39999999674E+01  0.40000000000E+01  0.51100000000E-03 0.  1.
    9000002   -1    0    0    0    0 -0.00000000000E+00 -0.00000000000E+00  0.00000000000E+00  0.93800000000E+00  0.93800000000E+00 0. -1.
         11    1    1    2    0    0  0.36336008581E+00  0.90750883045E-01  0.25498752918E+01  0.25772331170E+01  0.51100000000E-03 0.  1.
    9000002    1    1    2    0    0 -0.10065015093E+00 -0.14238718555E-01  0.61558845509E-01  0.94549811499E+00  0.93800000000E+00 0. -1.
         22    1    1    2    0    0 -0.26270993488E+00 -0.76512164489E-01  0.13885658301E+01  0.14152687680E+01  0.00000000000E+00 0.  1.
</event>
<event>
 5    1  0.2111786E+001  0.1593858E+01  0.7818608E-02  0.3360057E+00
         11   -1    0    0    0    0  0.00000000000E+00  0.00000000000E+00  0.39999999674E+01  0.40000000000E+01  0.51100000000E-03 0. -1.
    9000002   -1    0    0    0    0 -0.00000000000E+00 -0.00000000000E+00  0.00000000000E+00  0.93800000000E+00  0.93800000000E+00 0.  1.
         11    1    1    2    0    0 -0.14623265590E+00  0.18736681346E+00  0.11026118705E+01  0.11279377245E+01  0.51100000000E-03 0. -1.
    9000002    1    1    2    0    0  0.36999518365E+00 -0.38725444273E+00  0.20304002196E+00  0.10990594569E+01  0.93800000000E+00 0.  1.
         22    1    1    2    0    0 -0.22376252775E+00  0.19988762927E+00  0.26943480749E+01  0.27110028185E+01  0.00000000000E+00 0. -1.
</event>
<event>
 5    1  0.2111786E+001  0.1537843E+01  0.7818608E-02  0.3423719E+00
         11   -1    0    0    0    0  0.00000000000E+00  0.00000000000E+00  0.39999999674E+01  0.40000000000E+01  0.51100000000E-03 0. -1.
    9000002   -1    0    0    0    0 -0.00000000000E+00 -0.00000000000E+00  0.00000000000E+00  0.93800000000E+00  0.93800000000E+00 0.  1.
         11    1    1    2    0    0  0.15994405750E+00 -0.23431477432E+00  0.12183001069E+01  0.12508960495E+01  0.51100000000E-03 0. -1.
    9000002    1    1    2    0    0 -0.16991648038E-01  0.15011373687E-01  0.46521332229E-01  0.93942657605E+00  0.93800000000E+00 0.  1.
         22    1    1    2    0    0 -0.14295240947E+00  0.21930340063E+00  0.27351785282E+01  0.27476773744E+01  0.00000000000E+00 0.  1.
</event>
<event>
 5    1  0.2111786E+001  0.1448872E+01  0.7818608E-02  0.3535718E+00
         11   -1    0    0    0    0  0.00000000000E+00  0.00000000000E+00  0.39999999674E+01  0.40000000000E+01  0.51100000000E-03 0. -1.
    9000002   -1    0    0    0    0 -0.00000000000E+00 -0.00000000000E+00  0.00000000000E+00  0.93800000000E+00  0.93800000000E+00 0. -1.
         11    1    1    2    0    0  0.40720803394E+00  0.15624978319E-01  0.83426996905E+00  0.92847679843E+00  0.51100000000E-03 0. -1.
    9000002    1    1    2    0    0 -0.68481730442E-01  0.40439256278E-01  0.12518224637E+00  0.94965239728E+00  0.93800000000E+00 0. -1.
         22    1    1    2    0    0 -0.33872630350E+00 -0.56064234597E-01  0.30405477519E+01  0.30598708043E+01  0.00000000000E+00 0. -1.
</event>
<event>
 5    1  0.2111786E+001  0.1592410E+01  0.7818608E-02  0.3361642E+00
         11   -1    0    0    0    0  0.00000000000E+00  0.00000000000E+00  0.39999999674E+01  0.40000000000E+01  0.51100000000E-03 0.  1.
    9000002   -1    0    0    0    0 -0.00000000000E+00 -0.00000000000E+00  0.00000000000E+00  0.93800000000E+00  0.93800000000E+00 0. -1.
         11    1    1    2    0    0  0.12308760046E+00 -0.67665003826E-01  0.11493247912E+01  0.11578760067E+01  0.51100000000E-03 0.  1.
    9000002    1    1    2    0    0 -0.11784211718E+00  0.33310211160E+00  0.89626080154E-01  0.10063402087E+01  0.93800000000E+00 0. -1.
         22    1    1    2    0    0 -0.52454832795E-02 -0.26543710777E+00  0.27610490960E+01  0.27737837846E+01  0.00000000000E+00 0.  1.
</event>
<event>
 5    1  0.2111786E+001  0.1478333E+01  0.7818608E-02  0.3497017E+00
         11   -1    0    0    0    0  0.00000000000E+00  0.00000000000E+00  0.39999999674E+01  0.40000000000E+01  0.51100000000E-03 0.  1.
    9000002   -1    0    0    0    0 -0.00000000000E+00 -0.00000000000E+00  0.00000000000E+00  0.93800000000E+00  0.93800000000E+00 0. -1.
         11    1    1    2    0    0  0.14966680788E+00  0.44300332793E+00  0.11615773819E+01  0.12521638779E+01  0.51100000000E-03 0.  1.
    9000002    1    1    2    0    0 -0.12596362441E-01 -0.27136644814E+00  0.14946036433E+00  0.98791741458E+00  0.93800000000E+00 0. -1.
         22    1    1    2    0    0 -0.13707044544E+00 -0.17163687979E+00  0.26889622212E+01  0.26979187075E+01  0.00000000000E+00 0.  1.
</event>
<event>
 5    1  0.2111786E+001  0.1550993E+01  0.7818608E-02  0.3408335E+00
         11   -1    0    0    0    0  0.00000000000E+00  0.00000000000E+00  0.39999999674E+01  0.40000000000E+01  0.51100000000E-03 0. -1.
    9000002   -1    0    0    0    0 -0.00000000000E+00 -0.00000000000E+00  0.00000000000E+00  0.93800000000E+00  0.93800000000E+00 0.  1.
         11    1    1    2    0    0 -0.17549695914E+00 -0.20270440587E+00  0.25523953284E+01  0.25664392516E+01  0.51100000000E-03 0. -1.
    9000002    1    1    2    0    0 -0.15007239133E-01  0.43926131780E-01  0.37586580204E-01  0.93989971449E+00  0.93800000000E+00 0.  1.
         22    1    1    2    0    0  0.19050419828E+00  0.15877827408E+00  0.14100180588E+01  0.14316610339E+01  0.00000000000E+00 0. -1.
</event>
<event>
 5    1  0.2111786E+001  0.1523771E+01  0.7818608E-02  0.3440496E+00
         11   -1    0    0    0    0  0.00000000000E+00  0.00000000000E+00  0.39999999674E+01  0.40000000000E+01  0.51100000000E-03 0. -1.
    9000002   -1    0    0    0    0 -0.00000000000E+00 -0.00000000000E+00  0.00000000000E+00  0.93800000000E+00  0.93800000000E+00 0. -1.
         11    1    1    2    0    0  0.18897028088E+00 -0.36551422322E-01  0.32601347813E+00  0.37859057381E+00  0.51100000000E-03 0. -1.
    9000002    1    1    2    0    0 -0.12671880987E+00 -0.36543743200E+00  0.16622748298E+00  0.10281428644E+01  0.93800000000E+00 0. -1.
         22    1    1    2    0    0 -0.62251471017E-01  0.40198885432E+00  0.35077590063E+01  0.35312665618E+01  0.00000000000E+00 0. -1.
</event>
<event>
 5    1  0.2111786E+001  0.1543995E+01  0.7818608E-02  0.3416486E+00
         11   -1    0    0    0    0  0.00000000000E+00  0.00000000000E+00  0.39999999674E+01  0.40000000000E+01  0.51100000000E-03 0.  1.
    9000002   -1    0    0    0    0 -0.00000000000E+00 -0.00000000000E+00  0.00000000000E+00  0.93800000000E+00  0.93800000000E+00 0. -1.
         11    1    1    2    0    0  0.62479746419E-01 -0.25993326567E+00  0.30825074307E+01  0.30940784319E+01  0.51100000000E-03 0.  1.
    9000002    1    1    2    0    0 -0.53090410367E-01  0.31398918489E-01  0.44082562341E-01  0.94105884835E+00  0.93800000000E+00 0. -1.
         22    1    1    2    0    0 -0.93893360515E-02  0.22853434718E+00  0.87340997432E+00  0.90286271975E+00  0.00000000000E+00 0. -1.
</event>
<event>
 5    1  0.2111786E+001  0.1577754E+01  0.7818608E-02  0.3377868E+00
         11   -1    0    0    0    0  0.00000000000E+00  0.00000000000E+00  0.39999999674E+01  0.40000000000E+01  0.51100000000E-03 0.  1.
    9000002   -1    0    0    0    0 -0.00000000000E+00 -0.00000000000E+00  0.00000000000E+00  0.93800000000E+00  0.93800000000E+00 0.  1.
         11    1    1    2    0    0  0.85378975026E-01 -0.81984739652E-01  0.18286589730E+01  0.18324860074E+01  0.51100000000E-03 0.  1.
    9000002    1    1    2    0    0  0.18698768089E+00  0.78828206482E-01  0.43895772542E-01  0.96070240855E+00  0.93800000000E+00 0.  1.
         22    1    1    2    0    0 -0.27236665592E+00  0.31565331697E-02  0.21274452219E+01  0.21448115840E+01  0.00000000000E+00 0.  1.
</event>
<event>
 5    1  0.2111786E+001  0.1519835E+01  0.7818608E-02  0.3445248E+00
         11   -1    0    0    0    0  0.00000000000E+00  0.00000000000E+00  0.39999999674E+01  0.40000000000E+01  0.51100000000E-03 0.  1.
    9000002   -1    0    0    0    0 -0.00000000000E+00 -0.00000000000E+00  0.00000000000E+00  0.93800000000E+00  0.93800000000E+00 0.  1.
         11    1    1    2    0    0  0.15004133172E+00  0.30994328994E-01  0.20942464955E+00  0.25948409318E+00  0.51100000000E-03 0.  1.
    9000002    1    1    2    0    0  0.10794474766E+00  0.85672079833E-01  0.73762974581E-01  0.95093467190E+00  0.93800000000E+00 0.  1.
         22    1    1    2    0    0 -0.25798607938E+00 -0.11666640883E+00  0.37168123432E+01  0.37275812349E+01  0.00000000000E+00 0.  1.
</event>
<event>
 5    1  0.2111786E+001  0.1524245E+01  0.7818608E-02  0.3439925E+00
         11   -1    0    0    0    0  0.00000000000E+00  0.00000000000E+00  0.39999999674E+01  0.40000000000E+01  0.51100000000E-03 0. -1.
    9000002   -1    0    0    0    0 -0.00000000000E+00 -0.00000000000E+00  0.00000000000E+00  0.93800000000E+00  0.93800000000E+00 0. -1.
         11    1    1    2    0    0 -0.32616367515E+00 -0.73041562156E-01  0.88366027684E+00  0.94476111202E+00  0.51100000000E-03 0. -1.
    9000002    1    1    2    0    0  0.20108462545E+00  0.23236567321E+00  0.12487044349E+00  0.99491982608E+00  0.93800000000E+00 0. -1.
         22    1    1    2    0    0  0.12507904970E+00 -0.15932411105E+00  0.29914692470E+01  0.29983190619E+01  0.00000000000E+00 0. -1.
</event>
<event>
 5    1  0.2111786E+001  0.1462760E+01  0.7818608E-02  0.3517263E+00
         11   -1    0    0    0    0  0.00000000000E+00  0.00000000000E+00  0.39999999674E+01  0.40000000000E+01  0.51100000000E-03 0.  1.
    9000002   -1    0    0    0    0 -0.00000000000E+00 -0.00000000000E+00  0.00000000000E+00  0.93800000000E+00  0.93800000000E+00 0. -1.
         11    1    1    2    0    0 -0.98689589336E-01 -0.43445672252E+00  0.97777107893E+00  0.10744900291E+01  0.51100000000E-03 0.  1.
    9000002    1    1    2    0    0  0.13423438523E+00  0.25796763351E-01  0.14708462515E+00  0.95925086924E+00  0.93800000000E+00 0. -1.
         22    1    1    2    0    0 -0.35544795894E-01  0.40865995917E+00  0.28751442633E+01  0.29042591016E+01  0.00000000000E+00 0.  1.
</event>
<event>
 5    1  0.2111786E+001  0.1536343E+01  0.7818608E-02  0.3425492E+00
         11   -1    0    0    0    0  0.00000000000E+00  0.00000000000E+00  0.39999999674E+01  0.40000000000E+01  0.51100000000E-03 0.  1.
    9000002   -1    0    0    0    0 -0.00000000000E+00 -0.00000000000E+00  0.00000000000E+00  0.93800000000E+00  0.93800000000E+00 0.  1.
         11    1    1    2    0    0  0.13470867355E+00 -0.15260211453E+00  0.44712138044E+00  0.49127550525E+00  0.51100000000E-03 0.  1.
    9000002    1    1    2    0    0 -0.16905210765E+00 -0.51681201179E-01  0.69334888975E-01  0.95702710959E+00  0.93800000000E+00 0.  1.
         22    1    1    2    0    0  0.34343434096E-01  0.20428331571E+00  0.34835436979E+01  0.34896973852E+01  0.00000000000E+00 0.  1.
</event>
<event>
 5    1  0.2111786E+001  0.1565636E+01  0.7818608E-02  0.3391526E+00
         11   -1    0    0    0    0  0.00000000000E+00  0.00000000000E+00  0.39999999674E+01  0.40000000000E+01  0.51100000000E-03 0.  1.
    9000002   -1    0    0    0    0 -0.00000000000E+00 -0.00000000000E+00  0.00000000000E+00  0.93800000000E+00  0.93800000000E+00 0. -1.
         11    1    1    2    0    0 -0.13268252514E+00 -0.17967274063E+00  0.24095243564E+01  0.24198542997E+01  0.51100000000E-03 0.  1.
    9000002    1    1    2    0    0  0.19476288184E+00 -0.59851107931E-01  0.53483041187E-01  0.96136318369E+00  0.93800000000E+00 0. -1.
         22    1    1    2    0    0 -0.62080356696E-01  0.23952384856E+00  0.15369925697E+01  0.15567825167E+01  0.00000000000E+00 0.  1.
</event>
<event>
 5    1  0.2111786E+001  0.1593327E+01  0.7818608E-02  0.3360638E+00
         11   -1    0    0    0    0  0.00000000000E+00  0.00000000000E+00  0.39999999674E+01  0.40000000000E+01  0.51100000000E-03 0. -1.
    9000002   -1    0    0    0    0 -0.00000000000E+00 -0.00000000000E+00  0.00000000000E+00  0.93800000000E+00  0.93800000000E+00 0.  1.
         11    1    1    2    0    0  0.10453743763E+00  0.24757625723E+00  0.14639222776E+01  0.14883852912E+01  0.51100000000E-03 0. -1.
    9000002    1    1    2    0    0 -0.10981049971E+00 -0.46596814141E+00  0.16198145316E+00  0.10654889234E+01  0.93800000000E+00 0.  1.
         22    1    1    2    0    0  0.52730620770E-02  0.21839188418E+00  0.23740962366E+01  0.23841257855E+01  0.00000000000E+00 0. -1.
</event>
<event>
 5    1  0.2111786E+001  0.1540460E+01  0.7818608E-02  0.3420634E+00
         11   -1    0    0    0    0  0.00000000000E+00  0.00000000000E+00  0.39999999674E+01  0.40000000000E+01  0.51100000000E-03 0. -1.
    9000002   -1    0    0    0    0 -0.00000000000E+00 -0.00000000000E+00  0.00000000000E+00  0.93800000000E+00  0.93800000000E+00 0.  1.
         11    1    1    2    0    0 -0.20883405413E+00 -0.59109307267E-01  0.23621458462E+01  0.23720958733E+01  0.51100000000E-03 0. -1.
    9000002    1    1    2    0    0 -0.11530660907E+00 -0.24924003664E-01  0.53881375069E-01  0.94692345131E+00  0.93800000000E+00 0.  1.
         22    1    1    2    0    0  0.32414066320E+00  0.84033310931E-01  0.15839727461E+01  0.16189806754E+01  0.00000000000E+00 0. -1.
</event>
<event>
 5    1  0.2111786E+001  0.1555966E+01  0.7818608E-02  0.3402588E+00
         11   -1    0    0    0    0  0.00000000000E+00  0.00000000000E+00  0.39999999674E+01  0.40000000000E+01  0.51100000000E-03 0.  1.
    9000002   -1    0    0    0    0 -0.00000000000E+00 -0.00000000000E+00  0.00000000000E+00  0.93800000000E+00  0.93800000000E+00 0. -1.
         11    1    1    2    0    0  0.10666432941E+00  0.13673439624E+00  0.62656037925E+00  0.65011671587E+00  0.51100000000E-03 0.  1.
    9000002    1    1    2    0    0  0.29130832048E-01  0.65701361680E-01  0.35879538249E-01  0.94143327728E+00  0.93800000000E+00 0. -1.
         22    1    1    2    0    0 -0.13579516145E+00 -0.20243575792E+00  0.33375600499E+01  0.33464500069E+01  0.00000000000E+00 0.  1.
</event>
<event>
 5    1  0.2111786E+001  0.1580340E+01  0.7818608E-02  0.3374982E+00
         11   -1    0    0    0    0  0.00000000000E+00  0.00000000000E+00  0.39999999674E+01  0.40000000000E+01  0.51100000000E-03 0.  1.
    9000002   -1    0    0    0    0 -0.00000000000E+00 -0.00000000000E+00  0.00000000000E+00  0.93800000000E+00  0.93800000000E+00 0.  1.
         11    1    1    2    0    0 -0.15816275515E+00  0.64171116282E-01  0.19407526355E+01  0.19482439381E+01  0.51100000000E-03 0.  1.
    9000002    1    1    2    0    0 -0.11919203808E-01 -0.19825859461E+00  0.40739913648E-01  0.95966258566E+00  0.93800000000E+00 0.  1.
         22    1    1    2    0    0  0.17008195896E+00  0.13408747833E+00  0.20185074182E+01  0.20300934762E+01  0.00000000000E+00 0.  1.
</event>
<event>
 5    1  0.2111786E+001  0.1562866E+01  0.7818608E-02  0.3394681E+00
         11   -1    0    0    0    0  0.00000000000E+00  0.00000000000E+00  0.39999999674E+01  0.40000000000E+01  0.51100000000E-03 0. -1.
    9000002   -1    0    0    0    0 -0.00000000000E+00 -0.00000000000E+00  0.00000000000E+00  0.93800000000E+00  0.93800000000E+00 0. -1.
         11    1    1    2    0    0  0.20672042584E+00 -0.61592099394E-01  0.12674772301E+01  0.12857004748E+01  0.51100000000E-03 0. -1.
    9000002    1    1    2    0    0 -0.13738186262E-01 -0.38791212711E-01  0.28286426974E-01  0.93932828015E+00  0.93800000000E+00 0. -1.
         22    1    1    2    0    0 -0.19298223957E+00  0.10038331211E+00  0.27042363103E+01  0.27129712450E+01  0.00000000000E+00 0. -1.
</event>
<event>
 5    1  0.2111786E+001  0.1577498E+01  0.7818608E-02  0.3378154E+00
         11   -1    0    0    0    0  0.00000000000E+00  0.00000000000E+00  0.39999999674E+01  0.40000000000E+01  0.51100000000E-03 0.  1.
    9000002   -1    0    0    0    0 -0.00000000000E+00 -0.00000000000E+00  0.00000000000E+00  0.93800000000E+00  0.93800000000E+00 0. -1.
         11    1    1    2    0    0  0.86189022201E-01  0.11911045594E+00  0.11440301003E+01  0.11534387629E+01  0.51100000000E-03 0.  1.
    9000002    1    1    2    0    0  0.48047833318E-01  0.30112900421E-01  0.18390970089E-01  0.93989233896E+00  0.93800000000E+00 0. -1.
         22    1    1    2    0    0 -0.13423685552E+00 -0.14922335636E+00  0.28375788970E+01  0.28446688981E+01  0.00000000000E+00 0.  1.
</event>
<event>
 5    1  0.2111786E+001  0.1563728E+01  0.7818608E-02  0.3393698E+00
         11   -1    0    0    0    0  0.00000000000E+00  0.00000000000E+00  0.39999999674E+01  0.40000000000E+01  0.51100000000E-03 0. -1.
    9000002   -1    0    0    0    0 -0.00000000000E+00 -0.00000000000E+00  0.00000000000E+00  0.93800000000E+00  0.93800000000E+00 0. -1.
         11    1    1    2    0    0  0.41379455467E-01 -0.23219795825E+00  0.12669321490E+01  0.12886991435E+01  0.51100000000E-03 0. -1.
    9000002    1    1    2    0    0  0.21496516928E+00  0.15365601960E+00  0.74611370714E-01  0.97735922414E+00  0.93800000000E+00 0. -1.
         22    1    1    2    0    0 -0.25634462474E+00  0.78541938653E-01  0.26584564477E+01  0.26719416324E+01  0.00000000000E+00 0. -1.
</event>
<event>
 5    1  0.2111786E+001  0.1553987E+01  0.7818608E-02  0.3404870E+00
         11   -1    0    0    0    0  0.00000000000E+00  0.00000000000E+00  0.39999999674E+01  0.40000000000E+01  0.51100000000E-03 0. -1.
    9000002   -1    0    0    0    0 -0.00000000000E+00 -0.00000000000E+00  0.00000000000E+00  0.93800000000E+00  0.93800000000E+00 0. -1.
         11    1    1    2    0    0  0.16955600701E+00  0.20935876547E+00  0.16396843624E+01  0.16616694622E+01  0.51100000000E-03 0. -1.
    9000002    1    1    2    0    0 -0.12294562989E-01 -0.39961011691E-01  0.35029581425E-01  0.93958454133E+00  0.93800000000E+00 0. -1.
         22    1    1    2    0    0 -0.15726144402E+00 -0.16939775378E+00  0.23252860235E+01  0.23367459964E+01  0.00000000000E+00 0. -1.
</event>
<event>
 5    1  0.2111786E+001  0.1586692E+01  0.7818608E-02  0.3367936E+00
         11   -1    0    0    0    0  0.00000000000E+00  0.00000000000E+00  0.39999999674E+01  0.40000000000E+01  0.51100000000E-03 0.  1.
    9000002   -1    0    0    0    0 -0.00000000000E+00 -0.00000000000E+00  0.00000000000E+00  0.93800000000E+00  0.93800000000E+00 0.  1.
         11    1    1    2    0    0 -0.28193381940E+00 -0.28472305882E-01  0.23204573643E+01  0.23376954445E+01  0.51100000000E-03 0.  1.
    9000002    1    1    2    0    0  0.62748622321E+00 -0.76073373322E-01  0.29424745056E+00  0.11687393553E+01  0.93800000000E+00 0.  1.
         22    1    1    2    0    0 -0.34555240381E+00  0.10454567920E+00  0.13852951525E+01  0.14315652002E+01  0.00000000000E+00 0.  1.
</event>
<event>
 5    1  0.2111786E+001  0.1522483E+01  0.7818608E-02  0.3442049E+00
         11   -1    0    0    0    0  0.00000000000E+00  0.00000000000E+00  0.39999999674E+01  0.40000000000E+01  0.51100000000E-03 0. -1.
    9000002   -1    0    0    0    0 -0.00000000000E+00 -0.00000000000E+00  0.00000000000E+00  0.93800000000E+00  0.93800000000E+00 0. -1.
         11    1    1    2    0    0 -0.39020899757E+00 -0.49329287774E+00  0.18855492870E+01  0.19876864189E+01  0.51100000000E-03 0. -1.
    9000002    1    1    2    0    0  0.54778434519E+00  0.33368161215E+00  0.37522062844E+00  0.11966810883E+01  0.93800000000E+00 0. -1.
         22    1    1    2    0    0 -0.15757534761E+00  0.15961126559E+00  0.17392300519E+01  0.17536324928E+01  0.00000000000E+00 0. -1.
</event>
<event>
 5    1  0.2111786E+001  0.1588342E+01  0.7818608E-02  0.3366115E+00
         11   -1    0    0    0    0  0.00000000000E+00  0.00000000000E+00  0.39999999674E+01  0.40000000000E+01  0.51100000000E-03 0. -1.
    9000002   -1    0    0    0    0 -0.00000000000E+00 -0.00000000000E+00  0.00000000000E+00  0.93800000000E+00  0.93800000000E+00 0. -1.
         11    1    1    2    0    0 -0.57799056060E-01 -0.49044759320E-01  0.97651034855E+00  0.97944823306E+00  0.51100000000E-03 0. -1.
    9000002    1    1    2    0    0 -0.13499603000E+00 -0.54232294296E-01  0.22375689171E-01  0.94947866818E+00  0.93800000000E+00 0. -1.
         22    1    1    2    0    0  0.19279508606E+00  0.10327705362E+00  0.30011139296E+01  0.30090730988E+01  0.00000000000E+00 0. -1.
</event>
<event>
 5    1  0.2111786E+001  0.1453331E+01  0.7818608E-02  0.3529751E+00
         11   -1    0    0    0    0  0.00000000000E+00  0.00000000000E+00  0.39999999674E+01  0.40000000000E+01  0.51100000000E-03 0.  1.
    9000002   -1    0    0    0    0 -0.00000000000E+00 -0.00000000000E+00  0.00000000000E+00  0.93800000000E+00  0.93800000000E+00 0.  1.
         11    1    1    2    0    0  0.34731059713E+00 -0.20400762066E+00  0.15414394661E+01  0.15931979315E+01  0.51100000000E-03 0.  1.
    9000002    1    1    2    0    0  0.58353472070E-01 -0.13212533118E+00  0.13063025397E+00  0.95800338940E+00  0.93800000000E+00 0.  1.
         22    1    1    2    0    0 -0.40566406920E+00  0.33613295183E+00  0.23279302473E+01  0.23867986791E+01  0.00000000000E+00 0.  1.
</event>
<event>
 5    1  0.2111786E+001  0.1563559E+01  0.7818608E-02  0.3393890E+00
         11   -1    0    0    0    0  0.00000000000E+00  0.00000000000E+00  0.39999999674E+01  0.40000000000E+01  0.51100000000E-03 0. -1.
    9000002   -1    0    0    0    0 -0.00000000000E+00 -0.00000000000E+00  0.00000000000E+00  0.93800000000E+00  0.93800000000E+00 0. -1.
         11    1    1    2    0    0  0.38954594988E-01  0.23851512519E+00  0.17469601850E+01  0.17635977644E+01  0.51100000000E-03 0. -1.
    9000002    1    1    2    0    0  0.33727890134E-01 -0.40730499490E-01  0.28517494340E-01  0.93992222638E+00  0.93800000000E+00 0. -1.
         22    1    1    2    0    0 -0.72682485122E-01 -0.19778462570E+00  0.22245222880E+01  0.22344800093E+01  0.00000000000E+00 0. -1.
</event>
<event>
 5    1  0.2111786E+001  0.1576154E+01  0.7818608E-02  0.3379659E+00
         11   -1    0    0    0    0  0.00000000000E+00  0.00000000000E+00  0.39999999674E+01  0.40000000000E+01  0.51100000000E-03 0.  1.
    9000002   -1    0    0    0    0 -0.00000000000E+00 -0.00000000000E+00  0.00000000000E+00  0.93800000000E+00  0.93800000000E+00 0. -1.
         11    1    1    2    0    0  0.72279992972E-01 -0.17883222350E+00  0.15768374603E+01  0.15885911994E+01  0.51100000000E-03 0.  1.
    9000002    1    1    2    0    0  0.12485278237E+00  0.11439610000E+00  0.36613806064E-01  0.95386542853E+00  0.93800000000E+00 0. -1.
         22    1    1    2    0    0 -0.19713277534E+00  0.64436123507E-01  0.23865487010E+01  0.23955433721E+01  0.00000000000E+00 0.  1.
</event>
<event>
 5    1  0.2111786E+001  0.1559279E+01  0.7818608E-02  0.3398782E+00
         11   -1    0    0    0    0  0.00000000000E+00  0.00000000000E+00  0.39999999674E+01  0.40000000000E+01  0.51100000000E-03 0.  1.
    9000002   -1    0    0    0    0 -0.00000000000E+00 -0.00000000000E+00  0.00000000000E+00  0.93800000000E+00  0.93800000000E+00 0.  1.
         11    1    1    2    0    0 -0.23958046835E+00 -0.75826749807E-01  0.19863460855E+01  0.20021786957E+01  0.51100000000E-03 0.  1.
    9000002    1    1    2    0    0  0.35728730401E-01 -0.41561269856E-01  0.31885601360E-01  0.94014071973E+00  0.93800000000E+00 0.  1.
         22    1    1    2    0    0  0.20385173795E+00  0.11738801966E+00  0.19817682805E+01  0.19956805846E+01  0.00000000000E+00 0.  1.
</event>
<event>
 5    1  0.2111786E+001  0.1478899E+01  0.7818608E-02  0.3496290E+00
         11   -1    0    0    0    0  0.00000000000E+00  0.00000000000E+00  0.39999999674E+01  0.40000000000E+01  0.51100000000E-03 0.  1.
    9000002   -1    0    0    0    0 -0.00000000000E+00 -0.00000000000E+00  0.00000000000E+00  0.93800000000E+00  0.93800000000E+00 0.  1.
         11    1    1    2    0    0 -0.31648204045E+00  0.29423572357E+00  0.22630737297E+01  0.23039614819E+01  0.51100000000E-03 0.  1.
    9000002    1    1    2    0    0 -0.14595201245E+00 -0.36361429185E+00  0.21118497896E+00  0.10382487363E+01  0.93800000000E+00 0.  1.
         22    1    1    2    0    0  0.46243405291E+00  0.69378568280E-01  0.15257412587E+01  0.15957897818E+01  0.00000000000E+00 0.  1.
</event>
<event>
 5    1  0.2111786E+001  0.1469332E+01  0.7818608E-02  0.3508662E+00
         11   -1    0    0    0    0  0.00000000000E+00  0.00000000000E+00  0.39999999674E+01  0.40000000000E+01  0.51100000000E-03 0.  1.
    9000002   -1    0    0    0    0 -0.00000000000E+00 -0.00000000000E+00  0.00000000000E+00  0.93800000000E+00  0.93800000000E+00 0. -1.
         11    1    1    2    0    0 -0.32908192134E-01 -0.17871312064E+00  0.35598169283E+01  0.35644520129E+01  0.51100000000E-03 0.  1.
    9000002    1    1    2    0    0  0.93583777036E-01 -0.78308897830E-01  0.11231288894E+00  0.95254836719E+00  0.93800000000E+00 0. -1.
         22    1    1    2    0    0 -0.60675584902E-01  0.25702201847E+00  0.32787015014E+00  0.42099961988E+00  0.00000000000E+00 0.  1.
</event>
<event>
 5    1  0.2111786E+001  0.1530491E+01  0.7818608E-02  0.3432443E+00
         11   -1    0    0    0    0  0.00000000000E+00  0.00000000000E+00  0.39999999674E+01  0.40000000000E+01  0.51100000000E-03 0. -1.
    9000002   -1    0    0    0    0 -0.00000000000E+00 -0.00000000000E+00  0.00000000000E+00  0.93800000000E+00  0.93800000000E+00 0. -1.
         11    1    1    2    0    0  0.30972550950E+00 -0.18812479484E+00  0.32841635763E+01  0.33040961679E+01  0.51100000000E-03 0. -1.
    9000002    1    1    2    0    0 -0.13937671612E+00  0.62986503655E-01  0.68410506232E-01  0.95284687437E+00  0.93800000000E+00 0. -1.
         22    1    1    2    0    0 -0.17034879339E+00  0.12513829119E+00  0.64742588478E+00  0.68105695768E+00  0.00000000000E+00 0. -1.
</event>
<event>
 5    1  0.2111786E+001  0.1571962E+01  0.7818608E-02  0.3384368E+00
         11   -1    0    0    0    0  0.00000000000E+00  0.00000000000E+00  0.39999999674E+01  0.40000000000E+01  0.51100000000E-03 0.  1.
    9000002   -1    0    0    0    0 -0.00000000000E+00 -0.00000000000E+00  0.00000000000E+00  0.93800000000E+00  0.93800000000E+00 0.  1.
         11    1    1    2    0    0  0.31876005853E-01  0.29024287632E+00  0.10832241179E+01  0.11218875869E+01  0.51100000000E-03 0.  1.
    9000002    1    1    2    0    0 -0.37441672704E+00 -0.42982070828E+00  0.25251183725E+00  0.11262947903E+01  0.93800000000E+00 0.  1.
         22    1    1    2    0    0  0.34254072118E+00  0.13957783196E+00  0.26642640122E+01  0.26898176228E+01  0.00000000000E+00 0.  1.
</event>
<event>
 5    1  0.2111786E+001  0.1548567E+01  0.7818608E-02  0.3411152E+00
         11   -1    0    0    0    0  0.00000000000E+00  0.00000000000E+00  0.39999999674E+01  0.40000000000E+01  0.51100000000E-03 0.  1.
    9000002   -1    0    0    0    0 -0.00000000000E+00 -0.00000000000E+00  0.00000000000E+00  0.93800000000E+00  0.93800000000E+00 0. -1.
         11    1    1    2    0    0  0.91906075051E-02  0.24847242196E+00  0.27898972288E+01  0.28009551621E+01  0.51100000000E-03 0.  1.
    9000002    1    1    2    0    0  0.23618151777E-01 -0.15028897932E-02  0.38332020340E-01  0.93908115706E+00  0.93800000000E+00 0. -1.
         22    1    1    2    0    0 -0.32808759282E-01 -0.24696953217E+00  0.11717707182E+01  0.11979636808E+01  0.00000000000E+00 0.  1.
</event>
<event>
 5    1  0.2111786E+001  0.1458698E+01  0.7818608E-02  0.3522621E+00
         11   -1    0    0    0    0  0.00000000000E+00  0.00000000000E+00  0.39999999674E+01  0.40000000000E+01  0.51100000000E-03 0.  1.
    9000002   -1    0    0    0    0 -0.00000000000E+00 -0.00000000000E+00  0.00000000000E+00  0.93800000000E+00  0.93800000000E+00 0.  1.
         11    1    1    2    0    0  0.42758060844E+00 -0.14619100774E+00  0.12809501393E+01  0.13583190008E+01  0.51100000000E-03 0.  1.
    9000002    1    1    2    0    0 -0.97015174136E-01 -0.44341284612E-01  0.11868859152E+00  0.95147731202E+00  0.93800000000E+00 0.  1.
         22    1    1    2    0    0 -0.33056543430E+00  0.19053229235E+00  0.26003612366E+01  0.26282036872E+01  0.00000000000E+00 0.  1.
</event>
<event>
 5    1  0.2111786E+001  0.1590449E+01  0.7818608E-02  0.3363796E+00
         11   -1    0    0    0    0  0.00000000000E+00  0.00000000000E+00  0.39999999674E+01  0.40000000000E+01  0.51100000000E-03 0.  1.
    9000002   -1    0    0    0    0 -0.00000000000E+00 -0.00000000000E+00  0.00000000000E+00  0.93800000000E+00  0.93800000000E+00 0.  1.
         11    1    1    2    0    0  0.24352814103E+00  0.23824926134E+00  0.13244018726E+01  0.13675193773E+01  0.51100000000E-03 0.  1.
    9000002    1    1    2    0    0 -0.54612575190E+00 -0.37731666906E+00  0.32191488017E+00  0.11933542624E+01  0.93800000000E+00 0.  1.
         22    1    1    2    0    0  0.30259761087E+00  0.13906740772E+00  0.23536832146E+01  0.23771263603E+01  0.00000000000E+00 0.  1.
</event>
<event>
 5    1  0.2111786E+001  0.1598327E+01  0.7818608E-02  0.3355181E+00
         11   -1    0    0    0    0  0.00000000000E+00  0.00000000000E+00  0.39999999674E+01  0.40000000000E+01  0.51100000000E-03 0. -1.
    9000002   -1    0    0    0    0 -0.00000000000E+00 -0.00000000000E+00  0.00000000000E+00  0.93800000000E+00  0.93800000000E+00 0.  1.
         11    1    1    2    0    0  0.28599061605E-01  0.61329484307E-01  0.82974616192E+00  0.83250115094E+00  0.51100000000E-03 0. -1.
    9000002    1    1    2    0    0  0.34814729499E-01 -0.27809535964E+00  0.53355273980E-01  0.98042841641E+00  0.93800000000E+00 0.  1.
         22    1    1    2    0    0 -0.63413791103E-01  0.21676587534E+00  0.31168985315E+01  0.31250704327E+01  0.00000000000E+00 0.  1.
</event>
<event>
 5    1  0.2111786E+001  0.1581618E+01  0.7818608E-02  0.3373559E+00
         11   -1    0    0    0    0  0.00000000000E+00  0.00000000000E+00  0.39999999674E+01  0.40000000000E+01  0.51100000000E-03 0.  1.
    9000002   -1    0    0    0    0 -0.00000000000E+00 -0.00000000000E+00  0.00000000000E+00  0.93800000000E+00  0.93800000000E+00 0. -1.
         11    1    1    2    0    0  0.12779106997E+00  0.36372967278E-01  0.17645923031E+01  0.17695874682E+01  0.51100000000E-03 0.  1.
    9000002    1    1    2    0    0  0.63070007325E-01 -0.16998872041E+00  0.35311949823E-01  0.95601512786E+00  0.93800000000E+00 0. -1.
         22    1    1    2    0    0 -0.19086107729E+00  0.13361575314E+00  0.22000957145E+01  0.22123974040E+01  0.00000000000E+00 0. -1.
</event>
<event>
 5    1  0.2111786E+001  0.1574003E+01  0.7818608E-02  0.3382073E+00
         11   -1    0    0    0    0  0.00000000000E+00  0.00000000000E+00  0.39999999674E+01  0.40000000000E+01  0.51100000000E-03 0. -1.
    9000002   -1    0    0    0    0 -0.00000000000E+00 -0.00000000000E+00  0.00000000000E+00  0.93800000000E+00  0.93800000000E+00 0. -1.
         11    1    1    2    0    0  0.31014298935E-01  0.11799926345E+00  0.50255783376E+00  0.51715602125E+00  0.51100000000E-03 0. -1.
    9000002    1    1    2    0    0  0.13296441604E+00  0.12333805240E-01  0.30881423824E-01  0.94796061154E+00  0.93800000000E+00 0. -1.
         22    1    1    2    0    0 -0.16397871498E+00 -0.13033306869E+00  0.34665607098E+01  0.34728833672E+01  0.00000000000E+00 0. -1.
</event>
<event>
 5    1  0.2111786E+001  0.1542318E+01  0.7818608E-02  0.3418452E+00
         11   -1    0    0    0    0  0.00000000000E+00  0.00000000000E+00  0.39999999674E+01  0.40000000000E+01  0.51100000000E-03 0. -1.
    9000002   -1    0    0    0    0 -0.00000000000E+00 -0.00000000000E+00  0.00000000000E+00  0.93800000000E+00  0.93800000000E+00 0. -1.
         11    1    1    2    0    0  0.18490360104E+00 -0.11516070689E+00  0.33652508829E+01  0.33722937441E+01  0.51100000000E-03 0. -1.
    9000002    1    1    2    0    0 -0.88686410431E-01 -0.70653332197E-01  0.51695418064E-01  0.94624182374E+00  0.93800000000E+00 0. -1.
         22    1    1    2    0    0 -0.96217190604E-01  0.18581403909E+00  0.58305366636E+00  0.61946443219E+00  0.00000000000E+00 0. -1.
</event>
<event>
 5    1  0.2111786E+001  0.1497186E+01  0.7818608E-02  0.3473117E+00
         11   -1    0    0    0    0  0.00000000000E+00  0.00000000000E+00  0.39999999674E+01  0.40000000000E+01  0.51100000000E-03 0.  1.
    9000002   -1    0    0    0    0 -0.00000000000E+00 -0.00000000000E+00  0.00000000000E+00  0.93800000000E+00  0.93800000000E+00 0.  1.
         11    1    1    2    0    0 -0.99292519501E-01 -0.13690178775E+00  0.17399972442E+00  0.24264638702E+00  0.51100000000E-03 0.  1.
    9000002    1    1    2    0    0 -0.25134987284E-01 -0.50496271511E-01  0.80534566342E-01  0.94313915060E+00  0.93800000000E+00 0.  1.
         22    1    1    2    0    0  0.12442750679E+00  0.18739805926E+00  0.37454656766E+01  0.37522144624E+01  0.00000000000E+00 0.  1.
</event>
<event>
 5    1  0.2111786E+001  0.1552109E+01  0.7818608E-02  0.3407041E+00
         11   -1    0    0    0    0  0.00000000000E+00  0.00000000000E+00  0.39999999674E+01  0.40000000000E+01  0.51100000000E-03 0. -1.
    9000002   -1    0    0    0    0 -0.00000000000E+00 -0.00000000000E+00  0.00000000000E+00  0.93800000000E+00  0.93800000000E+00 0.  1.
         11    1    1    2    0    0 -0.18085890827E+00  0.31624774517E-01  0.60991110762E+00  0.63694732230E+00  0.51100000000E-03 0. -1.
    9000002    1    1    2    0    0 -0.49172847758E-01 -0.17727025900E-01  0.37135343617E-01  0.94018894386E+00  0.93800000000E+00 0.  1.
         22    1    1    2    0    0  0.23003175603E+00 -0.13897748616E-01  0.33529535161E+01  0.33608637338E+01  0.00000000000E+00 0. -1.
</event>
<event>
 5    1  0.2111786E+001  0.1547855E+01  0.7818608E-02  0.3411980E+00
         11   -1    0    0    0    0  0.00000000000E+00  0.00000000000E+00  0.39999999674E+01  0.40000000000E+01  0.51100000000E-03 0. -1.
    9000002   -1    0    0    0    0 -0.00000000000E+00 -0.00000000000E+00  0.00000000000E+00  0.93800000000E+00  0.93800000000E+00 0.  1.
         11    1    1    2    0    0  0.21487552988E+00  0.13031349756E+00  0.16710603002E+01  0.16898508482E+01  0.51100000000E-03 0. -1.
    9000002    1    1    2    0    0  0.10485082391E+00 -0.12407781144E+00  0.56842708144E-01  0.95365826795E+00  0.93800000000E+00 0.  1.
         22    1    1    2    0    0 -0.31972635379E+00 -0.62356861197E-02  0.22720969590E+01  0.22944908839E+01  0.00000000000E+00 0.  1.
</event>
<event>
 5    1  0.2111786E+001  0.1403217E+01  0.7818608E-02  0.3601732E+00
         11   -1    0    0    0    0  0.00000000000E+00  0.00000000000E+00  0.39999999674E+01  0.40000000000E+01  0.51100000000E-03 0. -1.
    9000002   -1    0    0    0    0 -0.00000000000E+00 -0.00000000000E+00  0.00000000000E+00  0.93800000000E+00  0.93800000000E+00 0.  1.
         11    1    1    2    0    0 -0.33832600885E+00 -0.83216911464E+00  0.26891639288E+01  0.28352377009E+01  0.51100000000E-03 0. -1.
    9000002    1    1    2    0    0  0.16711104323E+00  0.56397798159E+00  0.46829153507E+00  0.12021390212E+01  0.93800000000E+00 0.  1.
         22    1    1    2    0    0  0.17121496562E+00  0.26819113305E+00  0.84254450352E+00  0.90062327791E+00  0.00000000000E+00 0.  1.
</event>
<event>
 5    1  0.2111786E+001  0.1599362E+01  0.7818608E-02  0.3354056E+00
         11   -1    0    0    0    0  0.00000000000E+00  0.00000000000E+00  0.39999999674E+01  0.40000000000E+01  0.51100000000E-03 0. -1.
    9000002   -1    0    0    0    0 -0.00000000000E+00 -0.00000000000E+00  0.00000000000E+00  0.93800000000E+00  0.93800000000E+00 0.  1.
         11    1    1    2    0    0 -0.30959528848E-01  0.14881588562E+00  0.18295437002E+01  0.18358472356E+01  0.51100000000E-03 0. -1.
    9000002    1    1    2    0    0  0.67586083039E-01 -0.36355987146E+00  0.92151560126E-01  0.10124621320E+01  0.93800000000E+00 0.  1.
         22    1    1    2    0    0 -0.36626554191E-01  0.21474398584E+00  0.20783047070E+01  0.20896906324E+01  0.00000000000E+00 0. -1.
</event>
<event>
 5    1  0.2111786E+001  0.1563882E+01  0.7818608E-02  0.3393522E+00
         11   -1    0    0    0    0  0.00000000000E+00  0.00000000000E+00  0.39999999674E+01  0.40000000000E+01  0.51100000000E-03 0. -1.
    9000002   -1    0    0    0    0 -0.00000000000E+00 -0.00000000000E+00  0.00000000000E+00  0.93800000000E+00  0.93800000000E+00 0.  1.
         11    1    1    2    0    0  0.31794340608E-01  0.17576649441E+00  0.27756576401E+01  0.27813989891E+01  0.51100000000E-03 0. -1.
    9000002    1    1    2    0    0 -0.47693869942E-02  0.45154960266E-01  0.27773730015E-01  0.93950896620E+00  0.93800000000E+00 0.  1.
         22    1    1    2    0    0 -0.27024953614E-01 -0.22092145467E+00  0.11965685973E+01  0.12170920447E+01  0.00000000000E+00 0. -1.
</event>
<event>
 5    1  0.2111786E+001  0.1546716E+01  0.7818608E-02  0.3413308E+00
         11   -1    0    0    0    0  0.00000000000E+00  0.00000000000E+00  0.39999999674E+01  0.40000000000E+01  0.51100000000E-03 0. -1.
    9000002   -1    0    0    0    0 -0.00000000000E+00 -0.00000000000E+00  0.00000000000E+00  0.93800000000E+00  0.93800000000E+00 0.  1.
         11    1    1    2    0    0 -0.33442709642E+00  0.77782777391E-01  0.24373410770E+01  0.24614067989E+01  0.51100000000E-03 0. -1.
    9000002    1    1    2    0    0  0.12360852745E+00 -0.23185902217E-02  0.49980427853E-01  0.94743152105E+00  0.93800000000E+00 0.  1.
         22    1    1    2    0    0  0.21081856897E+00 -0.75464187169E-01  0.15126784625E+01  0.15291616800E+01  0.00000000000E+00 0. -1.
</event>
<event>
 5    1  0.2111786E+001  0.1573668E+01  0.7818608E-02  0.3382448E+00
         11   -1    0    0    0    0  0.00000000000E+00  0.00000000000E+00  0.39999999674E+01  0.40000000000E+01  0.51100000000E-03 0.  1.
    9000002   -1    0    0    0    0 -0.00000000000E+00 -0.00000000000E+00  0.00000000000E+00  0.93800000000E+00  0.93800000000E+00 0. -1.
         11    1    1    2    0    0  0.49524490337E-01 -0.18281917463E+00  0.16212784945E+01  0.16323050400E+01  0.51100000000E-03 0.  1.
    9000002    1    1    2    0    0 -0.12813024397E+00 -0.19439876744E-01  0.30430343349E-01  0.94739921576E+00  0.93800000000E+00 0. -1.
         22    1    1    2    0    0  0.78605753630E-01  0.20225905138E+00  0.23482911295E+01  0.23582957442E+01  0.00000000000E+00 0.  1.
</event>
<event>
 5    1  0.2111786E+001  0.1543926E+01  0.7818608E-02  0.3416567E+00
         11   -1    0    0    0    0  0.00000000000E+00  0.00000000000E+00  0.39999999674E+01  0.40000000000E+01  0.51100000000E-03 0.  1.
    9000002   -1    0    0    0    0 -0.00000000000E+00 -0.00000000000E+00  0.00000000000E+00  0.93800000000E+00  0.93800000000E+00 0.  1.
         11    1    1    2    0    0  0.85215392773E-01 -0.20439052941E+00  0.77386957283E+00  0.80492951775E+00  0.51100000000E-03 0.  1.
    9000002    1    1    2    0    0  0.10039271820E+00  0.17702112732E-01  0.48727480869E-01  0.94478062536E+00  0.93800000000E+00 0.  1.
         22    1    1    2    0    0 -0.18560811098E+00  0.18668841668E+00  0.31774029137E+01  0.31882898569E+01  0.00000000000E+00 0.  1.
</event>
<event>
 5    1  0.2111786E+001  0.1597325E+01  0.7818608E-02  0.3356271E+00
         11   -1    0    0    0    0  0.00000000000E+00  0.00000000000E+00  0.39999999674E+01  0.40000000000E+01  0.51100000000E-03 0.  1.
    9000002   -1    0    0    0    0 -0.00000000000E+00 -0.00000000000E+00  0.00000000000E+00  0.93800000000E+00  0.93800000000E+00 0.  1.
         11    1    1    2    0    0 -0.49893438328E-02  0.88791042760E-01  0.94859454139E+00  0.95275422219E+00  0.51100000000E-03 0.  1.
    9000002    1    1    2    0    0  0.19346162352E+00 -0.25405933058E+00  0.70016787241E-01  0.99333775410E+00  0.93800000000E+00 0.  1.
         22    1    1    2    0    0 -0.18847227969E+00  0.16526828782E+00  0.29813886387E+01  0.29919080237E+01  0.00000000000E+00 0.  1.
</event>
<event>
 5    1  0.3292010E+001  0.1570952E+01  0.7818608E-02  0.3385508E+00
         11   -1    0    0    0    0  0.00000000000E+00  0.00000000000E+00  0.39999999674E+01  0.40000000000E+01  0.51100000000E-03 0.  1.
    9000002   -1    0    0    0    0 -0.00000000000E+00 -0.00000000000E+00  0.00000000000E+00  0.93800000000E+00  0.93800000000E+00 0. -1.
         11    1    1    2    0    0  0.20419435487E+00  0.14718679815E-01  0.20429624963E+01  0.20531945832E+01  0.51100000000E-03 0.  1.
    9000002    1    1    2    0    0 -0.53157458251E-02  0.31944270266E-01  0.21795699839E-01  0.93881188003E+00  0.93800000000E+00 0. -1.
         22    1    1    2    0    0 -0.19887860904E+00 -0.46662950081E-01  0.19352417712E+01  0.19459935368E+01  0.00000000000E+00 0. -1.
</event>
<event>
 5    1  0.2111786E+001  0.1570433E+01  0.7818608E-02  0.3386093E+00
         11   -1    0    0    0    0  0.00000000000E+00  0.00000000000E+00  0.39999999674E+01  0.40000000000E+01  0.51100000000E-03 0. -1.
    9000002   -1    0    0    0    0 -0.00000000000E+00 -0.00000000000E+00  0.00000000000E+00  0.93800000000E+00  0.93800000000E+00 0. -1.
         11    1    1    2    0    0  0.96858297945E-01 -0.87489686589E-01  0.52579275588E+00  0.54175110373E+00  0.51100000000E-03 0. -1.
    9000002    1    1    2    0    0  0.41319374477E-01 -0.61273371423E-01  0.25172773388E-01  0.94124353133E+00  0.93800000000E+00 0. -1.
         22    1    1    2    0    0 -0.13817767242E+00  0.14876305801E+00  0.34490344381E+01  0.34550053649E+01  0.00000000000E+00 0. -1.
</event>
<event>
 5    1  0.2111786E+001  0.1587090E+01  0.7818608E-02  0.3367496E+00
         11   -1    0    0    0    0  0.00000000000E+00  0.00000000000E+00  0.39999999674E+01  0.40000000000E+01  0.51100000000E-03 0. -1.
    9000002   -1    0    0    0    0 -0.00000000000E+00 -0.00000000000E+00  0.00000000000E+00  0.93800000000E+00  0.93800000000E+00 0.  1.
         11    1    1    2    0    0 -0.14963937158E+00  0.39888756609E-01  0.16577536082E+01  0.16649715736E+01  0.51100000000E-03 0. -1.
    9000002    1    1    2    0    0  0.38662211263E+00  0.21623169337E+00  0.14403342534E+00  0.10472929059E+01  0.93800000000E+00 0.  1.
         22    1    1    2    0    0 -0.23698274105E+00 -0.25612044998E+00  0.21982129339E+01  0.22257355205E+01  0.00000000000E+00 0. -1.
</event>
<event>
 5    1  0.2111786E+001  0.1595394E+01  0.7818608E-02  0.3358378E+00
         11   -1    0    0    0    0  0.00000000000E+00  0.00000000000E+00  0.39999999674E+01  0.40000000000E+01  0.51100000000E-03 0.  1.
    9000002   -1    0    0    0    0 -0.00000000000E+00 -0.00000000000E+00  0.00000000000E+00  0.93800000000E+00  0.93800000000E+00 0. -1.
         11    1    1    2    0    0  0.32286437344E-01 -0.17391745346E-01  0.63454588785E+00  0.63560493370E+00  0.51100000000E-03 0.  1.
    9000002    1    1    2    0    0  0.15790837257E+00  0.79738234617E-01  0.23881800044E-01  0.95483379735E+00  0.93800000000E+00 0. -1.
         22    1    1    2    0    0 -0.19019480992E+00 -0.62346489271E-01  0.33415722795E+01  0.33475612689E+01  0.00000000000E+00 0.  1.
</event>
<event>
 5    1  0.2111786E+001  0.1551421E+01  0.7818608E-02  0.3407838E+00
         11   -1    0    0    0    0  0.00000000000E+00  0.00000000000E+00  0.39999999674E+01  0.40000000000E+01  0.51100000000E-03 0. -1.
    9000002   -1    0    0    0    0 -0.00000000000E+00 -0.00000000000E+00  0.00000000000E+00  0.93800000000E+00  0.93800000000E+00 0.  1.
         11    1    1    2    0    0  0.20470959947E+00 -0.17078489018E+00  0.14326492124E+01  0.14572431251E+01  0.51100000000E-03 0. -1.
    9000002    1    1    2    0    0  0.31061228100E-02  0.59492742061E-01  0.38223605642E-01  0.94066682645E+00  0.93800000000E+00 0.  1.
         22    1    1    2    0    0 -0.20781572228E+00  0.11129214812E+00  0.25291271494E+01  0.25400900485E+01  0.00000000000E+00 0.  1.
</event>
<event>
 5    1  0.2111786E+001  0.1583260E+01  0.7818608E-02  0.3371736E+00
         11   -1    0    0    0    0  0.00000000000E+00  0.00000000000E+00  0.39999999674E+01  0.40000000000E+01  0.51100000000E-03 0. -1.
    9000002   -1    0    0    0    0 -0.00000000000E+00 -0.00000000000E+00  0.00000000000E+00  0.93800000000E+00  0.93800000000E+00 0. -1.
         11    1    1    2    0    0 -0.11419069653E+00 -0.12928612315E-01  0.13443431638E+01  0.13492462590E+01  0.51100000000E-03 0. -1.
    9000002    1    1    2    0    0 -0.77445200637E-01 -0.78962646178E-01  0.20172029658E-01  0.94471359119E+00  0.93800000000E+00 0. -1.
         22    1    1    2    0    0  0.19163589716E+00  0.91891258493E-01  0.26354847739E+01  0.26440401498E+01  0.00000000000E+00 0. -1.
</event>
<event>
 5    1  0.2111786E+001  0.1574177E+01  0.7818608E-02  0.3381877E+00
         11   -1    0    0    0    0  0.00000000000E+00  0.00000000000E+00  0.39999999674E+01  0.40000000000E+01  0.51100000000E-03 0.  1.
    9000002   -1    0    0    0    0 -0.00000000000E+00 -0.00000000000E+00  0.00000000000E+00  0.93800000000E+00  0.93800000000E+00 0.  1.
         11    1    1    2    0    0  0.61222950667E-02  0.14399205269E+00  0.24902387905E+01  0.24944058788E+01  0.51100000000E-03 0.  1.
    9000002    1    1    2    0    0  0.33446377683E-01  0.64102496386E-01  0.22217808575E-01  0.94104485613E+00  0.93800000000E+00 0.  1.
         22    1    1    2    0    0 -0.39568672750E-01 -0.20809454908E+00  0.14875433683E+01  0.15025492650E+01  0.00000000000E+00 0.  1.
</event>
<event>
 5    1  0.2111786E+001  0.1457918E+01  0.7818608E-02  0.3523654E+00
         11   -1    0    0    0    0  0.00000000000E+00  0.00000000000E+00  0.39999999674E+01  0.40000000000E+01  0.51100000000E-03 0.  1.
    9000002   -1    0    0    0    0 -0.00000000000E+00 -0.00000000000E+00  0.00000000000E+00  0.93800000000E+00  0.93800000000E+00 0.  1.
         11    1    1    2    0    0  0.63048317778E-01 -0.46488831437E+00  0.94634714242E+00  0.10562525315E+01  0.51100000000E-03 0.  1.
    9000002    1    1    2    0    0  0.13731672987E+00  0.30928941455E+00  0.20024304097E+00  0.10170826425E+01  0.93800000000E+00 0.  1.
         22    1    1    2    0    0 -0.20036504765E+00  0.15559889983E+00  0.28534097840E+01  0.28646648260E+01  0.00000000000E+00 0.  1.
</event>
<event>
 5    1  0.2111786E+001  0.1550422E+01  0.7818608E-02  0.3408997E+00
         11   -1    0    0    0    0  0.00000000000E+00  0.00000000000E+00  0.39999999674E+01  0.40000000000E+01  0.51100000000E-03 0. -1.
    9000002   -1    0    0    0    0 -0.00000000000E+00 -0.00000000000E+00  0.00000000000E+00  0.93800000000E+00  0.93800000000E+00 0. -1.
         11    1    1    2    0    0 -0.25536257679E+00  0.94825614943E-01  0.25574851468E+01  0.25719511037E+01  0.51100000000E-03 0. -1.
    9000002    1    1    2    0    0  0.18769682965E-01 -0.25048792544E-01  0.37209457435E-01  0.93925943526E+00  0.93800000000E+00 0. -1.
         22    1    1    2    0    0  0.23659289382E+00 -0.69776822399E-01  0.14053053632E+01  0.14267894610E+01  0.00000000000E+00 0. -1.
</event>
<event>
 5    1  0.2111786E+001  0.1530118E+01  0.7818608E-02  0.3432887E+00
         11   -1    0    0    0    0  0.00000000000E+00  0.00000000000E+00  0.39999999674E+01  0.40000000000E+01  0.51100000000E-03 0.  1.
    9000002   -1    0    0    0    0 -0.00000000000E+00 -0.00000000000E+00  0.00000000000E+00  0.93800000000E+00  0.93800000000E+00 0. -1.
         11    1    1    2    0    0  0.21394523189E+00 -0.18355282681E+00  0.10554493069E+01  0.10924457437E+01  0.51100000000E-03 0.  1.
    9000002    1    1    2    0    0 -0.28714401793E+00 -0.24034181968E+00  0.15353550504E+00  0.10215835887E+01  0.93800000000E+00 0. -1.
         22    1    1    2    0    0  0.73198786040E-01  0.42389464649E+00  0.27910151554E+01  0.28239706676E+01  0.00000000000E+00 0.  1.
</event>
<event>
 5    1  0.2111786E+001  0.1551725E+01  0.7818608E-02  0.3407486E+00
         11   -1    0    0    0    0  0.00000000000E+00  0.00000000000E+00  0.39999999674E+01  0.40000000000E+01  0.51100000000E-03 0.  1.
    9000002   -1    0    0    0    0 -0.00000000000E+00 -0.00000000000E+00  0.00000000000E+00  0.93800000000E+00  0.93800000000E+00 0.  1.
         11    1    1    2    0    0 -0.18049040980E-01 -0.32239684687E+00  0.18233372766E+01  0.18517085570E+01  0.51100000000E-03 0.  1.
    9000002    1    1    2    0    0 -0.78175830683E-01  0.14090479447E+00  0.53530440613E-01  0.95324452775E+00  0.93800000000E+00 0.  1.
         22    1    1    2    0    0  0.96224871663E-01  0.18149205240E+00  0.21231322502E+01  0.21330469152E+01  0.00000000000E+00 0.  1.
</event>
<event>
 5    1  0.2111786E+001  0.1558550E+01  0.7818608E-02  0.3399619E+00
         11   -1    0    0    0    0  0.00000000000E+00  0.00000000000E+00  0.39999999674E+01  0.40000000000E+01  0.51100000000E-03 0.  1.
    9000002   -1    0    0    0    0 -0.00000000000E+00 -0.00000000000E+00  0.00000000000E+00  0.93800000000E+00  0.93800000000E+00 0.  1.
         11    1    1    2    0    0 -0.29516418281E+00  0.11640960414E-03  0.27719383169E+01  0.27876090476E+01  0.51100000000E-03 0.  1.
    9000002    1    1    2    0    0  0.11914814399E+00  0.10237953001E+00  0.47352207789E-01  0.95224160798E+00  0.93800000000E+00 0.  1.
         22    1    1    2    0    0  0.17601603882E+00 -0.10249593962E+00  0.11807094427E+01  0.11981493444E+01  0.00000000000E+00 0.  1.
</event>
<event>
 5    1  0.2111786E+001  0.1570816E+01  0.7818608E-02  0.3385661E+00
         11   -1    0    0    0    0  0.00000000000E+00  0.00000000000E+00  0.39999999674E+01  0.40000000000E+01  0.51100000000E-03 0.  1.
    9000002   -1    0    0    0    0 -0.00000000000E+00 -0.00000000000E+00  0.00000000000E+00  0.93800000000E+00  0.93800000000E+00 0.  1.
         11    1    1    2    0    0 -0.64936010978E-01  0.99795970036E-01  0.22173446126E+01  0.22205389691E+01  0.51100000000E-03 0.  1.
    9000002    1    1    2    0    0 -0.17096456442E+00  0.43814268914E-01  0.42371351772E-01  0.95539934263E+00  0.93800000000E+00 0.  1.
         22    1    1    2    0    0  0.23590057540E+00 -0.14361023895E+00  0.17402840030E+01  0.17620616883E+01  0.00000000000E+00 0.  1.
</event>
<event>
 5    1  0.2111786E+001  0.1591193E+01  0.7818608E-02  0.3362978E+00
         11   -1    0    0    0    0  0.00000000000E+00  0.00000000000E+00  0.39999999674E+01  0.40000000000E+01  0.51100000000E-03 0.  1.
    9000002   -1    0    0    0    0 -0.00000000000E+00 -0.00000000000E+00  0.00000000000E+00  0.93800000000E+00  0.93800000000E+00 0.  1.
         11    1    1    2    0    0 -0.14706109085E-01 -0.71534232926E-01  0.17282254111E+01  0.17297678309E+01  0.51100000000E-03 0.  1.
    9000002    1    1    2    0    0 -0.19544972056E+00  0.58588304720E-01  0.33962655483E-01  0.96053664411E+00  0.93800000000E+00 0.  1.
         22    1    1    2    0    0  0.21015582964E+00  0.12945928206E-01  0.22378119008E+01  0.22476955250E+01  0.00000000000E+00 0.  1.
</event>
<event>
 5    1  0.2111786E+001  0.1573421E+01  0.7818608E-02  0.3382726E+00
         11   -1    0    0    0    0  0.00000000000E+00  0.00000000000E+00  0.39999999674E+01  0.40000000000E+01  0.51100000000E-03 0. -1.
    9000002   -1    0    0    0    0 -0.00000000000E+00 -0.00000000000E+00  0.00000000000E+00  0.93800000000E+00  0.93800000000E+00 0.  1.
         11    1    1    2    0    0  0.16464462621E+00  0.44929698302E-01  0.13811169917E+01  0.13916216930E+01  0.51100000000E-03 0. -1.
    9000002    1    1    2    0    0  0.55632828136E-01 -0.56719156893E-01  0.23514691387E-01  0.94165227926E+00  0.93800000000E+00 0.  1.
         22    1    1    2    0    0 -0.22027745435E+00  0.11789458592E-01  0.25953682843E+01  0.26047260277E+01  0.00000000000E+00 0. -1.
</event>
<event>
 5    1  0.2111786E+001  0.1543210E+01  0.7818608E-02  0.3417406E+00
         11   -1    0    0    0    0  0.00000000000E+00  0.00000000000E+00  0.39999999674E+01  0.40000000000E+01  0.51100000000E-03 0.  1.
    9000002   -1    0    0    0    0 -0.00000000000E+00 -0.00000000000E+00  0.00000000000E+00  0.93800000000E+00  0.93800000000E+00 0.  1.
         11    1    1    2    0    0 -0.15136469559E+00 -0.25589049425E+00  0.26196339130E+01  0.26364508938E+01  0.51100000000E-03 0.  1.
    9000002    1    1    2    0    0 -0.58010288653E-01  0.95315297623E-01  0.50718770491E-01  0.94597388613E+00  0.93800000000E+00 0.  1.
         22    1    1    2    0    0  0.20937498425E+00  0.16057519663E+00  0.13296472839E+01  0.13555752201E+01  0.00000000000E+00 0.  1.
</event>
<event>
 5    1  0.2111786E+001  0.1471624E+01  0.7818608E-02  0.3505682E+00
         11   -1    0    0    0    0  0.00000000000E+00  0.00000000000E+00  0.39999999674E+01  0.40000000000E+01  0.51100000000E-03 0. -1.
    9000002   -1    0    0    0    0 -0.00000000000E+00 -0.00000000000E+00  0.00000000000E+00  0.93800000000E+00  0.93800000000E+00 0.  1.
         11    1    1    2    0    0 -0.88609757234E-01  0.27088914034E+00  0.25428068114E+00  0.38195751250E+00  0.51100000000E-03 0. -1.
    9000002    1    1    2    0    0 -0.21823398689E+00 -0.18102689169E+00  0.20527285982E+00  0.10011881719E+01  0.93800000000E+00 0.  1.
         22    1    1    2    0    0  0.30684374412E+00 -0.89862248651E-01  0.35404464264E+01  0.35548543156E+01  0.00000000000E+00 0. -1.
</event>
<event>
 5    1  0.2111786E+001  0.1569418E+01  0.7818608E-02  0.3387240E+00
         11   -1    0    0    0    0  0.00000000000E+00  0.00000000000E+00  0.39999999674E+01  0.40000000000E+01  0.51100000000E-03 0. -1.
    9000002   -1    0    0    0    0 -0.00000000000E+00 -0.00000000000E+00  0.00000000000E+00  0.93800000000E+00  0.93800000000E+00 0. -1.
         11    1    1    2    0    0 -0.34412531423E+00 -0.15241619822E+00  0.21685665907E+01  0.22009848361E+01  0.51100000000E-03 0. -1.
    9000002    1    1    2    0    0  0.55176834764E+00 -0.91469912984E-01  0.24587308296E+00  0.11194251325E+01  0.93800000000E+00 0. -1.
         22    1    1    2    0    0 -0.20764303341E+00  0.24388611121E+00  0.15855602937E+01  0.16175900314E+01  0.00000000000E+00 0. -1.
</event>
<event>
 5    1  0.2111786E+001  0.1576619E+01  0.7818608E-02  0.3379138E+00
         11   -1    0    0    0    0  0.00000000000E+00  0.00000000000E+00  0.39999999674E+01  0.40000000000E+01  0.51100000000E-03 0. -1.
    9000002   -1    0    0    0    0 -0.00000000000E+00 -0.00000000000E+00  0.00000000000E+00  0.93800000000E+00  0.93800000000E+00 0.  1.
         11    1    1    2    0    0 -0.40761668753E-01 -0.13915217234E+00  0.12821204951E+01  0.12902937905E+01  0.51100000000E-03 0. -1.
    9000002    1    1    2    0    0 -0.13013719535E+00 -0.31991236721E-01  0.28997157363E-01  0.94796833490E+00  0.93800000000E+00 0.  1.
         22    1    1    2    0    0  0.17089886410E+00  0.17114340906E+00  0.26888823149E+01  0.26997378746E+01  0.00000000000E+00 0. -1.
</event>
<event>
 5    1  0.2111786E+001  0.1463526E+01  0.7818608E-02  0.3516257E+00
         11   -1    0    0    0    0  0.00000000000E+00  0.00000000000E+00  0.39999999674E+01  0.40000000000E+01  0.51100000000E-03 0. -1.
    9000002   -1    0    0    0    0 -0.00000000000E+00 -0.00000000000E+00  0.00000000000E+00  0.93800000000E+00  0.93800000000E+00 0. -1.
         11    1    1    2    0    0  0.27391490340E+00  0.20891699531E+00  0.18355308649E+01  0.18675785130E+01  0.51100000000E-03 0. -1.
    9000002    1    1    2    0    0  0.32099822469E+00 -0.19506903503E+00  0.21618077939E+00  0.10332811418E+01  0.93800000000E+00 0. -1.
         22    1    1    2    0    0 -0.59491312809E+00 -0.13847960274E-01  0.19482883231E+01  0.20371403451E+01  0.00000000000E+00 0. -1.
</event>
<event>
 5    1  0.2111786E+001  0.1549773E+01  0.7818608E-02  0.3409750E+00
         11   -1    0    0    0    0  0.00000000000E+00  0.00000000000E+00  0.39999999674E+01  0.40000000000E+01  0.51100000000E-03 0. -1.
    9000002   -1    0    0    0    0 -0.00000000000E+00 -0.00000000000E+00  0.00000000000E+00  0.93800000000E+00  0.93800000000E+00 0.  1.
         11    1    1    2    0    0  0.26917342569E+00  0.91222323367E-01  0.29201691885E+01  0.29339673134E+01  0.51100000000E-03 0. -1.
    9000002    1    1    2    0    0 -0.12795434826E+00  0.92037382753E-01  0.54267967987E-01  0.95269733253E+00  0.93800000000E+00 0.  1.
         22    1    1    2    0    0 -0.14121907744E+00 -0.18325970612E+00  0.10255628109E+01  0.10513353541E+01  0.00000000000E+00 0. -1.
</event>
<event>
 5    1  0.2111786E+001  0.1532261E+01  0.7818608E-02  0.3430334E+00
         11   -1    0    0    0    0  0.00000000000E+00  0.00000000000E+00  0.39999999674E+01  0.40000000000E+01  0.51100000000E-03 0. -1.
    9000002   -1    0    0    0    0 -0.00000000000E+00 -0.00000000000E+00  0.00000000000E+00  0.93800000000E+00  0.93800000000E+00 0.  1.
         11    1    1    2    0    0 -0.34125309669E+00 -0.18812989977E-01  0.22057543435E+01  0.22320752876E+01  0.51100000000E-03 0. -1.
    9000002    1    1    2    0    0  0.57430710053E-01  0.79810114543E-01  0.57291368010E-01  0.94487789777E+00  0.93800000000E+00 0.  1.
         22    1    1    2    0    0  0.28382238664E+00 -0.60997124565E-01  0.17369542559E+01  0.17610468146E+01  0.00000000000E+00 0. -1.
</event>
<event>
 5    1  0.2111786E+001  0.1562190E+01  0.7818608E-02  0.3395452E+00
         11   -1    0    0    0    0  0.00000000000E+00  0.00000000000E+00  0.39999999674E+01  0.40000000000E+01  0.51100000000E-03 0.  1.
    9000002   -1    0    0    0    0 -0.00000000000E+00 -0.00000000000E+00  0.00000000000E+00  0.93800000000E+00  0.93800000000E+00 0. -1.
         11    1    1    2    0    0 -0.13067024363E+00 -0.17530319721E+00  0.21743290199E+01  0.21852946875E+01  0.51100000000E-03 0.  1.
    9000002    1    1    2    0    0 -0.35419475623E-01 -0.28472044156E-02  0.28500580698E-01  0.93910538755E+00  0.93800000000E+00 0. -1.
         22    1    1    2    0    0  0.16608971925E+00  0.17815040162E+00  0.17971703668E+01  0.18135999249E+01  0.00000000000E+00 0.  1.
</event>
<event>
 5    1  0.2111786E+001  0.1518894E+01  0.7818608E-02  0.3446388E+00
         11   -1    0    0    0    0  0.00000000000E+00  0.00000000000E+00  0.39999999674E+01  0.40000000000E+01  0.51100000000E-03 0. -1.
    9000002   -1    0    0    0    0 -0.00000000000E+00 -0.00000000000E+00  0.00000000000E+00  0.93800000000E+00  0.93800000000E+00 0. -1.
         11    1    1    2    0    0 -0.30360484797E+00  0.49624035819E+00  0.28590270052E+01  0.29176130783E+01  0.51100000000E-03 0. -1.
    9000002    1    1    2    0    0  0.49689402894E-01 -0.70854556146E+00  0.46012817899E+00  0.12633557656E+01  0.93800000000E+00 0. -1.
         22    1    1    2    0    0  0.25391544507E+00  0.21230520326E+00  0.68084478314E+00  0.75703115610E+00  0.00000000000E+00 0. -1.
</event>
<event>
 5    1  0.2111786E+001  0.1544811E+01  0.7818608E-02  0.3415531E+00
         11   -1    0    0    0    0  0.00000000000E+00  0.00000000000E+00  0.39999999674E+01  0.40000000000E+01  0.51100000000E-03 0.  1.
    9000002   -1    0    0    0    0 -0.00000000000E+00 -0.00000000000E+00  0.00000000000E+00  0.93800000000E+00  0.93800000000E+00 0.  1.
         11    1    1    2    0    0  0.19004216414E+00  0.79855860853E-01  0.31021898995E+01  0.31090312665E+01  0.51100000000E-03 0.  1.
    9000002    1    1    2    0    0  0.48574404242E-01 -0.39814964557E-01  0.43553505909E-01  0.94110871424E+00  0.93800000000E+00 0.  1.
         22    1    1    2    0    0 -0.23861656838E+00 -0.40040896296E-01  0.85425656196E+00  0.88786001922E+00  0.00000000000E+00 0.  1.
</event>
<event>
 5    1  0.2111786E+001  0.1518110E+01  0.7818608E-02  0.3447339E+00
         11   -1    0    0    0    0  0.00000000000E+00  0.00000000000E+00  0.39999999674E+01  0.40000000000E+01  0.51100000000E-03 0.  1.
    9000002   -1    0    0    0    0 -0.00000000000E+00 -0.00000000000E+00  0.00000000000E+00  0.93800000000E+00  0.93800000000E+00 0.  1.
         11    1    1    2    0    0  0.12587358325E+00 -0.31118569716E+00  0.33449928611E+01  0.33617938960E+01  0.51100000000E-03 0.  1.
    9000002    1    1    2    0    0  0.12500043653E+00  0.30933651246E+00  0.14266873666E+00  0.10057398051E+01  0.93800000000E+00 0.  1.
         22    1    1    2    0    0 -0.25087401978E+00  0.18491847000E-02  0.51233836963E+00  0.57046629898E+00  0.00000000000E+00 0.  1.
</event>
<event>
 5    1  0.2111786E+001  0.1597037E+01  0.7818608E-02  0.3356586E+00
         11   -1    0    0    0    0  0.00000000000E+00  0.00000000000E+00  0.39999999674E+01  0.40000000000E+01  0.51100000000E-03 0. -1.
    9000002   -1    0    0    0    0 -0.00000000000E+00 -0.00000000000E+00  0.00000000000E+00  0.93800000000E+00  0.93800000000E+00 0. -1.
         11    1    1    2    0    0  0.80088807237E-02 -0.16462391382E-01  0.10707771220E+01  0.10709337321E+01  0.51100000000E-03 0. -1.
    9000002    1    1    2    0    0 -0.22016583852E+00  0.13111359786E+00  0.45667006304E-01  0.97344401352E+00  0.93800000000E+00 0. -1.
         22    1    1    2    0    0  0.21215695780E+00 -0.11465120647E+00  0.28835558391E+01  0.28936222543E+01  0.00000000000E+00 0. -1.
</event>
<event>
 5    1  0.2111786E+001  0.1563824E+01  0.7818608E-02  0.3393588E+00
         11   -1    0    0    0    0  0.00000000000E+00  0.00000000000E+00  0.39999999674E+01  0.40000000000E+01  0.51100000000E-03 0. -1.
    9000002   -1    0    0    0    0 -0.00000000000E+00 -0.00000000000E+00  0.00000000000E+00  0.93800000000E+00  0.93800000000E+00 0. -1.
         11    1    1    2    0    0  0.17037323380E+00 -0.13957738065E+00  0.13755977570E+01  0.13931182054E+01  0.51100000000E-03 0. -1.
    9000002    1    1    2    0    0  0.30948578576E-01  0.57919500111E-01  0.29352462167E-01  0.94075397955E+00  0.93800000000E+00 0. -1.
         22    1    1    2    0    0 -0.20132181238E+00  0.81657880535E-01  0.25950497482E+01  0.26041278151E+01  0.00000000000E+00 0.  1.
</event>
<event>
 5    1  0.2111786E+001  0.1551216E+01  0.7818608E-02  0.3408076E+00
         11   -1    0    0    0    0  0.00000000000E+00  0.00000000000E+00  0.39999999674E+01  0.40000000000E+01  0.51100000000E-03 0.  1.
    9000002   -1    0    0    0    0 -0.00000000000E+00 -0.00000000000E+00  0.00000000000E+00  0.93800000000E+00  0.93800000000E+00 0.  1.
         11    1    1    2    0    0 -0.26697329340E+00  0.69973610004E-02  0.16431176524E+01  0.16646800243E+01  0.51100000000E-03 0.  1.
    9000002    1    1    2    0    0  0.14894870427E-01 -0.46168107703E-01  0.37553685975E-01  0.94000405886E+00  0.93800000000E+00 0.  1.
         22    1    1    2    0    0  0.25207842297E+00  0.39170746702E-01  0.23193286290E+01  0.23333159168E+01  0.00000000000E+00 0.  1.
</event>
<event>
 5    1  0.2111786E+001  0.1452334E+01  0.7818608E-02  0.3531082E+00
         11   -1    0    0    0    0  0.00000000000E+00  0.00000000000E+00  0.39999999674E+01  0.40000000000E+01  0.51100000000E-03 0. -1.
    9000002   -1    0    0    0    0 -0.00000000000E+00 -0.00000000000E+00  0.00000000000E+00  0.93800000000E+00  0.93800000000E+00 0. -1.
         11    1    1    2    0    0  0.78824998606E-02 -0.79359969300E-02  0.35814622107E+01  0.35814797139E+01  0.51100000000E-03 0. -1.
    9000002    1    1    2    0    0  0.17104549806E+00  0.20991698788E+00  0.17263972726E+00  0.99144852596E+00  0.93800000000E+00 0. -1.
         22    1    1    2    0    0 -0.17892799792E+00 -0.20198099095E+00  0.24589802945E+00  0.36507176011E+00  0.00000000000E+00 0. -1.
</event>
<event>
 5    1  0.2111786E+001  0.1552906E+01  0.7818608E-02  0.3406120E+00
         11   -1    0    0    0    0  0.00000000000E+00  0.00000000000E+00  0.39999999674E+01  0.40000000000E+01  0.51100000000E-03 0. -1.
    9000002   -1    0    0    0    0 -0.00000000000E+00 -0.00000000000E+00  0.00000000000E+00  0.93800000000E+00  0.93800000000E+00 0.  1.
         11    1    1    2    0    0  0.19738891671E+00  0.16591858932E-01  0.74211277913E+00  0.76809459853E+00  0.51100000000E-03 0. -1.
    9000002    1    1    2    0    0  0.12399729161E-01  0.13674492302E+00  0.47675948932E-01  0.94919435489E+00  0.93800000000E+00 0.  1.
         22    1    1    2    0    0 -0.20978864587E+00 -0.15333678195E+00  0.32102112393E+01  0.32207110466E+01  0.00000000000E+00 0. -1.
</event>
<event>
 5    1  0.2111786E+001  0.1540492E+01  0.7818608E-02  0.3420597E+00
         11   -1    0    0    0    0  0.00000000000E+00  0.00000000000E+00  0.39999999674E+01  0.40000000000E+01  0.51100000000E-03 0. -1.
    9000002   -1    0    0    0    0 -0.00000000000E+00 -0.00000000000E+00  0.00000000000E+00  0.93800000000E+00  0.93800000000E+00 0. -1.
         11    1    1    2    0    0  0.20769829519E+00 -0.25312549029E+00  0.24402655607E+01  0.24621347167E+01  0.51100000000E-03 0. -1.
    9000002    1    1    2    0    0  0.43341167589E-01  0.14920009504E+00  0.61035860580E-01  0.95273737275E+00  0.93800000000E+00 0. -1.
         22    1    1    2    0    0 -0.25103946278E+00  0.10392539525E+00  0.14986985461E+01  0.15231279105E+01  0.00000000000E+00 0.  1.
</event>
<event>
 5    1  0.2111786E+001  0.1535218E+01  0.7818608E-02  0.3426823E+00
         11   -1    0    0    0    0  0.00000000000E+00  0.00000000000E+00  0.39999999674E+01  0.40000000000E+01  0.51100000000E-03 0.  1.
    9000002   -1    0    0    0    0 -0.00000000000E+00 -0.00000000000E+00  0.00000000000E+00  0.93800000000E+00  0.93800000000E+00 0.  1.
         11    1    1    2    0    0  0.13017512478E-01  0.28677821631E+00  0.28217563681E+01  0.28363216431E+01  0.51100000000E-03 0.  1.
    9000002    1    1    2    0    0 -0.69744128639E-01 -0.17724341249E-01  0.51823382350E-01  0.94218260370E+00  0.93800000000E+00 0.  1.
         22    1    1    2    0    0  0.56726616161E-01 -0.26905387507E+00  0.11264202169E+01  0.11594957532E+01  0.00000000000E+00 0. -1.
</event>
<event>
 5    1  0.2111786E+001  0.1585112E+01  0.7818608E-02  0.3369683E+00
         11   -1    0    0    0    0  0.00000000000E+00  0.00000000000E+00  0.39999999674E+01  0.40000000000E+01  0.51100000000E-03 0. -1.
    9000002   -1    0    0    0    0 -0.00000000000E+00 -0.00000000000E+00  0.00000000000E+00  0.93800000000E+00  0.93800000000E+00 0.  1.
         11    1    1    2    0    0  0.11097860737E+00  0.87747921869E-01  0.21022338993E+01  0.21069892211E+01  0.51100000000E-03 0. -1.
    9000002    1    1    2    0    0  0.46856505402E-01 -0.25907616361E+00  0.57376059183E-01  0.97593647478E+00  0.93800000000E+00 0.  1.
         22    1    1    2    0    0 -0.15783511277E+00  0.17132824174E+00  0.18403900089E+01  0.18550743042E+01  0.00000000000E+00 0. -1.
</event>
<event>
 5    1  0.2111786E+001  0.1561421E+01  0.7818608E-02  0.3396331E+00
         11   -1    0    0    0    0  0.00000000000E+00  0.00000000000E+00  0.39999999674E+01  0.40000000000E+01  0.51100000000E-03 0. -1.
    9000002   -1    0    0    0    0 -0.00000000000E+00 -0.00000000000E+00  0.00000000000E+00  0.93800000000E+00  0.93800000000E+00 0. -1.
         11    1    1    2    0    0  0.26075220309E-01  0.20696353512E+00  0.21821511461E+01  0.21920989274E+01  0.51100000000E-03 0. -1.
    9000002    1    1    2    0    0 -0.23383446288E-01  0.48944636482E-01  0.30227435079E-01  0.94005322234E+00  0.93800000000E+00 0. -1.
         22    1    1    2    0    0 -0.26917740207E-02 -0.25590817160E+00  0.17876213862E+01  0.18058478503E+01  0.00000000000E+00 0. -1.
</event>
<event>
 5    1  0.2111786E+001  0.1514379E+01  0.7818608E-02  0.3451880E+00
         11   -1    0    0    0    0  0.00000000000E+00  0.00000000000E+00  0.39999999674E+01  0.40000000000E+01  0.51100000000E-03 0.  1.
    9000002   -1    0    0    0    0 -0.00000000000E+00 -0.00000000000E+00  0.00000000000E+00  0.93800000000E+00  0.93800000000E+00 0.  1.
         11    1    1    2    0    0 -0.13150555676E+00 -0.26851167852E+00  0.78098868956E+00  0.83626301323E+00  0.51100000000E-03 0.  1.
    9000002    1    1    2    0    0 -0.26869524782E-01  0.10040894190E+00  0.72240782006E-01  0.94650232834E+00  0.93800000000E+00 0.  1.
         22    1    1    2    0    0  0.15837508154E+00  0.16810273663E+00  0.31467704958E+01  0.31552346584E+01  0.00000000000E+00 0.  1.
</event>
<event>
 5    1  0.2111786E+001  0.1557168E+01  0.7818608E-02  0.3401205E+00
         11   -1    0    0    0    0  0.00000000000E+00  0.00000000000E+00  0.39999999674E+01  0.40000000000E+01  0.51100000000E-03 0.  1.
    9000002   -1    0    0    0    0 -0.00000000000E+00 -0.00000000000E+00  0.00000000000E+00  0.93800000000E+00  0.93800000000E+00 0.  1.
         11    1    1    2    0    0 -0.85471222360E-01 -0.23584825658E+00  0.25941145163E+01  0.26062156693E+01  0.51100000000E-03 0.  1.
    9000002    1    1    2    0    0  0.13037979141E+00 -0.16103572168E-03  0.43114311688E-01  0.94799881847E+00  0.93800000000E+00 0.  1.
         22    1    1    2    0    0 -0.44908569048E-01  0.23600929230E+00  0.13627711393E+01  0.13837855122E+01  0.00000000000E+00 0. -1.
</event>
<event>
 5    1  0.2111786E+001  0.1542633E+01  0.7818608E-02  0.3418082E+00
         11   -1    0    0    0    0  0.00000000000E+00  0.00000000000E+00  0.39999999674E+01  0.40000000000E+01  0.51100000000E-03 0.  1.
    9000002   -1    0    0    0    0 -0.00000000000E+00 -0.00000000000E+00  0.00000000000E+00  0.93800000000E+00  0.93800000000E+00 0. -1.
         11    1    1    2    0    0  0.19036836661E+00  0.61835971184E-01  0.85110490524E+00  0.87432466692E+00  0.51100000000E-03 0.  1.
    9000002    1    1    2    0    0  0.61348707286E-01  0.27744943192E+00  0.99474534128E-01  0.98512995798E+00  0.93800000000E+00 0. -1.
         22    1    1    2    0    0 -0.25171707389E+00 -0.33928540311E+00  0.30494205280E+01  0.30785453751E+01  0.00000000000E+00 0.  1.
</event>
<event>
 5    1  0.2111786E+001  0.1532326E+01  0.7818608E-02  0.3430257E+00
         11   -1    0    0    0    0  0.00000000000E+00  0.00000000000E+00  0.39999999674E+01  0.40000000000E+01  0.51100000000E-03 0. -1.
    9000002   -1    0    0    0    0 -0.00000000000E+00 -0.00000000000E+00  0.00000000000E+00  0.93800000000E+00  0.93800000000E+00 0.  1.
         11    1    1    2    0    0 -0.23409105849E+00 -0.32650906040E-01  0.41048820584E+00  0.47367239056E+00  0.51100000000E-03 0. -1.
    9000002    1    1    2    0    0  0.40271587918E+00 -0.33743820896E+00  0.25479457522E+00  0.11049022128E+01  0.93800000000E+00 0.  1.
         22    1    1    2    0    0 -0.16862482069E+00  0.37008911500E+00  0.33347171863E+01  0.33594253967E+01  0.00000000000E+00 0. -1.
</event>
<event>
 5    1  0.2111786E+001  0.1506109E+01  0.7818608E-02  0.3462030E+00
         11   -1    0    0    0    0  0.00000000000E+00  0.00000000000E+00  0.39999999674E+01  0.40000000000E+01  0.51100000000E-03 0.  1.
    9000002   -1    0    0    0    0 -0.00000000000E+00 -0.00000000000E+00  0.00000000000E+00  0.93800000000E+00  0.93800000000E+00 0.  1.
         11    1    1    2    0    0  0.34715130677E-01  0.45865757856E+00  0.16334670109E+01  0.16969934153E+01  0.51100000000E-03 0.  1.
    9000002    1    1    2    0    0  0.94923439164E-01 -0.24142757285E+00  0.12035230329E+00  0.98062551932E+00  0.93800000000E+00 0.  1.
         22    1    1    2    0    0 -0.12963856984E+00 -0.21723000572E+00  0.22461806532E+01  0.22603810654E+01  0.00000000000E+00 0.  1.
</event>
<event>
 5    1  0.2111786E+001  0.1592979E+01  0.7818608E-02  0.3361019E+00
         11   -1    0    0    0    0  0.00000000000E+00  0.00000000000E+00  0.39999999674E+01  0.40000000000E+01  0.51100000000E-03 0.  1.
    9000002   -1    0    0    0    0 -0.00000000000E+00 -0.00000000000E+00  0.00000000000E+00  0.93800000000E+00  0.93800000000E+00 0. -1.
         11    1    1    2    0    0 -0.27033722045E-01 -0.23785823758E-02  0.15704835489E+01  0.15707180900E+01  0.51100000000E-03 0.  1.
    9000002    1    1    2    0    0 -0.16666292139E+00 -0.58598695856E-01  0.25632108470E-01  0.95483576677E+00  0.93800000000E+00 0. -1.
         22    1    1    2    0    0  0.19369664344E+00  0.60977278232E-01  0.24038843100E+01  0.24124461432E+01  0.00000000000E+00 0.  1.
</event>
<event>
 5    1  0.2111786E+001  0.1567492E+01  0.7818608E-02  0.3389420E+00
         11   -1    0    0    0    0  0.00000000000E+00  0.00000000000E+00  0.39999999674E+01  0.40000000000E+01  0.51100000000E-03 0. -1.
    9000002   -1    0    0    0    0 -0.00000000000E+00 -0.00000000000E+00  0.00000000000E+00  0.93800000000E+00  0.93800000000E+00 0. -1.
         11    1    1    2    0    0  0.14441476420E+00 -0.39024774207E-01  0.17807123452E+01  0.17869849677E+01  0.51100000000E-03 0. -1.
    9000002    1    1    2    0    0  0.15637122531E+00  0.95546503456E-01  0.46589804380E-01  0.95686765245E+00  0.93800000000E+00 0. -1.
         22    1    1    2    0    0 -0.30078598952E+00 -0.56521729249E-01  0.21726978178E+01  0.21941473799E+01  0.00000000000E+00 0. -1.
</event>
<event>
 5    1  0.3239600E+001  0.1565769E+01  0.7818608E-02  0.3391376E+00
         11   -1    0    0    0    0  0.00000000000E+00  0.00000000000E+00  0.39999999674E+01  0.40000000000E+01  0.51100000000E-03 0. -1.
    9000002   -1    0    0    0    0 -0.00000000000E+00 -0.00000000000E+00  0.00000000000E+00  0.93800000000E+00  0.93800000000E+00 0.  1.
         11    1    1    2    0    0  0.19604161231E+00  0.82501858528E-01  0.27166938483E+01  0.27250072655E+01  0.51100000000E-03 0. -1.
    9000002    1    1    2    0    0 -0.93691301636E-02 -0.19133609929E-02  0.25017327604E-01  0.93838228256E+00  0.93800000000E+00 0.  1.
         22    1    1    2    0    0 -0.18667248214E+00 -0.80588497535E-01  0.12582887915E+01  0.12746104520E+01  0.00000000000E+00 0. -1.
</event>
<event>
 5    1  0.2111786E+001  0.1586329E+01  0.7818608E-02  0.3368336E+00
         11   -1    0    0    0    0  0.00000000000E+00  0.00000000000E+00  0.39999999674E+01  0.40000000000E+01  0.51100000000E-03 0.  1.
    9000002   -1    0    0    0    0 -0.00000000000E+00 -0.00000000000E+00  0.00000000000E+00  0.93800000000E+00  0.93800000000E+00 0. -1.
         11    1    1    2    0    0  0.69333979382E-01 -0.60994812525E-01  0.16194165326E+01  0.16220473899E+01  0.51100000000E-03 0.  1.
    9000002    1    1    2    0    0  0.13167497416E+00  0.34805129330E-02  0.21320101417E-01  0.94744338064E+00  0.93800000000E+00 0. -1.
         22    1    1    2    0    0 -0.20100895355E+00  0.57514299592E-01  0.23592633334E+01  0.23685092295E+01  0.00000000000E+00 0.  1.
</event>
<event>
 5    1  0.2111786E+001  0.1523225E+01  0.7818608E-02  0.3441153E+00
         11   -1    0    0    0    0  0.00000000000E+00  0.00000000000E+00  0.39999999674E+01  0.40000000000E+01  0.51100000000E-03 0.  1.
    9000002   -1    0    0    0    0 -0.00000000000E+00 -0.00000000000E+00  0.00000000000E+00  0.93800000000E+00  0.93800000000E+00 0. -1.
         11    1    1    2    0    0  0.30881379950E+00  0.74621293480E-01  0.15701590670E+01  0.16019781700E+01  0.51100000000E-03 0.  1.
    9000002    1    1    2    0    0 -0.94539739238E-01  0.26765373025E+00  0.11558913340E+00  0.98680349076E+00  0.93800000000E+00 0. -1.
         22    1    1    2    0    0 -0.21427406026E+00 -0.34227502373E+00  0.23142517669E+01  0.23492183392E+01  0.00000000000E+00 0.  1.
</event>
<event>
 5    1  0.2111786E+001  0.1583123E+01  0.7818608E-02  0.3371887E+00
         11   -1    0    0    0    0  0.00000000000E+00  0.00000000000E+00  0.39999999674E+01  0.40000000000E+01  0.51100000000E-03 0.  1.
    9000002   -1    0    0    0    0 -0.00000000000E+00 -0.00000000000E+00  0.00000000000E+00  0.93800000000E+00  0.93800000000E+00 0. -1.
         11    1    1    2    0    0  0.97306550788E-01  0.47500766251E-01  0.27109488528E+01  0.27131105454E+01  0.51100000000E-03 0.  1.
    9000002    1    1    2    0    0 -0.22862076712E+00  0.12137000109E+00  0.57346339414E-01  0.97474649780E+00  0.93800000000E+00 0. -1.
         22    1    1    2    0    0  0.13131421633E+00 -0.16887076734E+00  0.12317047751E+01  0.12501429568E+01  0.00000000000E+00 0.  1.
</event>
<event>
 5    1  0.2111786E+001  0.1533474E+01  0.7818608E-02  0.3428892E+00
         11   -1    0    0    0    0  0.00000000000E+00  0.00000000000E+00  0.39999999674E+01  0.40000000000E+01  0.51100000000E-03 0. -1.
    9000002   -1    0    0    0    0 -0.00000000000E+00 -0.00000000000E+00  0.00000000000E+00  0.93800000000E+00  0.93800000000E+00 0.  1.
         11    1    1    2    0    0 -0.26983562650E+00  0.46666870173E+00  0.19283733373E+01  0.20023024076E+01  0.51100000000E-03 0. -1.
    9000002    1    1    2    0    0  0.40927962132E+00 -0.31440985052E+00  0.24609910819E+00  0.10985318082E+01  0.93800000000E+00 0.  1.
         22    1    1    2    0    0 -0.13944399482E+00 -0.15225885121E+00  0.18255275219E+01  0.18371657842E+01  0.00000000000E+00 0.  1.
</event>
<event>
 5    1  0.2111786E+001  0.1530259E+01  0.7818608E-02  0.3432720E+00
         11   -1    0    0    0    0  0.00000000000E+00  0.00000000000E+00  0.39999999674E+01  0.40000000000E+01  0.51100000000E-03 0. -1.
    9000002   -1    0    0    0    0 -0.00000000000E+00 -0.00000000000E+00  0.00000000000E+00  0.93800000000E+00  0.93800000000E+00 0.  1.
         11    1    1    2    0    0  0.42009430625E+00  0.23920527698E+00  0.24680839925E+01  0.25149825538E+01  0.51100000000E-03 0. -1.
    9000002    1    1    2    0    0 -0.21739557752E+00 -0.19257335074E+00  0.11239916399E+00  0.98834351549E+00  0.93800000000E+00 0.  1.
         22    1    1    2    0    0 -0.20269872873E+00 -0.46631926237E-01  0.14195168108E+01  0.14346739307E+01  0.00000000000E+00 0.  1.
</event>
<event>
 5    1  0.2111786E+001  0.1598189E+01  0.7818608E-02  0.3355331E+00
         11   -1    0    0    0    0  0.00000000000E+00  0.00000000000E+00  0.39999999674E+01  0.40000000000E+01  0.51100000000E-03 0.  1.
    9000002   -1    0    0    0    0 -0.00000000000E+00 -0.00000000000E+00  0.00000000000E+00  0.93800000000E+00  0.93800000000E+00 0.  1.
         11    1    1    2    0    0 -0.11295491505E-01  0.11823586166E+00  0.14524877639E+01  0.14573360191E+01  0.51100000000E-03 0.  1.
    9000002    1    1    2    0    0  0.15083393842E+00 -0.30628477457E+00  0.79275131176E-01  0.10013439901E+01  0.93800000000E+00 0.  1.
         22    1    1    2    0    0 -0.13953844691E+00  0.18804891291E+00  0.24682370723E+01  0.24793199908E+01  0.00000000000E+00 0.  1.
</event>
<event>
 5    1  0.2111786E+001  0.1535619E+01  0.7818608E-02  0.3426348E+00
         11   -1    0    0    0    0  0.00000000000E+00  0.00000000000E+00  0.39999999674E+01  0.40000000000E+01  0.51100000000E-03 0.  1.
    9000002   -1    0    0    0    0 -0.00000000000E+00 -0.00000000000E+00  0.00000000000E+00  0.93800000000E+00  0.93800000000E+00 0.  1.
         11    1    1    2    0    0 -0.28984731437E+00  0.19906081375E+00  0.15671916432E+01  0.16061527265E+01  0.51100000000E-03 0.  1.
    9000002    1    1    2    0    0  0.11037710644E+00 -0.74115372115E-01  0.60311143430E-01  0.94929322553E+00  0.93800000000E+00 0.  1.
         22    1    1    2    0    0  0.17947020793E+00 -0.12494544164E+00  0.23724971807E+01  0.23825540480E+01  0.00000000000E+00 0.  1.
</event>
<event>
 5    1  0.2111786E+001  0.1511406E+01  0.7818608E-02  0.3455515E+00
         11   -1    0    0    0    0  0.00000000000E+00  0.00000000000E+00  0.39999999674E+01  0.40000000000E+01  0.51100000000E-03 0.  1.
    9000002   -1    0    0    0    0 -0.00000000000E+00 -0.00000000000E+00  0.00000000000E+00  0.93800000000E+00  0.93800000000E+00 0.  1.
         11    1    1    2    0    0  0.16968806918E-01 -0.18501817504E+00  0.26952462008E+00  0.32735828606E+00  0.51100000000E-03 0.  1.
    9000002    1    1    2    0    0 -0.53235543866E-01 -0.42738295741E-01  0.70188529983E-01  0.94309650344E+00  0.93800000000E+00 0.  1.
         22    1    1    2    0    0  0.36266736948E-01  0.22775647078E+00  0.36602868173E+01  0.36675452105E+01  0.00000000000E+00 0.  1.
</event>
<event>
 5    1  0.2111786E+001  0.1598139E+01  0.7818608E-02  0.3355386E+00
         11   -1    0    0    0    0  0.00000000000E+00  0.00000000000E+00  0.39999999674E+01  0.40000000000E+01  0.51100000000E-03 0.  1.
    9000002   -1    0    0    0    0 -0.00000000000E+00 -0.00000000000E+00  0.00000000000E+00  0.93800000000E+00  0.93800000000E+00 0.  1.
         11    1    1    2    0    0 -0.16190912513E-01 -0.52858113131E-02  0.31444511679E+00  0.31490645920E+00  0.51100000000E-03 0.  1.
    9000002    1    1    2    0    0  0.33435903983E-01 -0.20581510157E+00  0.29955260018E-01  0.96136316411E+00  0.93800000000E+00 0.  1.
         22    1    1    2    0    0 -0.17244991470E-01  0.21110091288E+00  0.36555995905E+01  0.36617303767E+01  0.00000000000E+00 0.  1.
</event>
<event>
 5    1  0.2111786E+001  0.1596456E+01  0.7818608E-02  0.3357219E+00
         11   -1    0    0    0    0  0.00000000000E+00  0.00000000000E+00  0.39999999674E+01  0.40000000000E+01  0.51100000000E-03 0.  1.
    9000002   -1    0    0    0    0 -0.00000000000E+00 -0.00000000000E+00  0.00000000000E+00  0.93800000000E+00  0.93800000000E+00 0. -1.
         11    1    1    2    0    0 -0.79574831406E-01 -0.47308054191E+00  0.22883565268E+01  0.23381003417E+01  0.51100000000E-03 0.  1.
    9000002    1    1    2    0    0  0.25993473809E-01  0.71906281590E+00  0.37571381314E+00  0.12404563125E+01  0.93800000000E+00 0. -1.
         22    1    1    2    0    0  0.53581357597E-01 -0.24598227399E+00  0.13359296274E+01  0.13594433458E+01  0.00000000000E+00 0.  1.
</event>
<event>
 5    1  0.2111786E+001  0.1582892E+01  0.7818608E-02  0.3372144E+00
         11   -1    0    0    0    0  0.00000000000E+00  0.00000000000E+00  0.39999999674E+01  0.40000000000E+01  0.51100000000E-03 0. -1.
    9000002   -1    0    0    0    0 -0.00000000000E+00 -0.00000000000E+00  0.00000000000E+00  0.93800000000E+00  0.93800000000E+00 0. -1.
         11    1    1    2    0    0 -0.30108183740E-01 -0.38263673222E-01  0.26011002913E+01  0.26015559956E+01  0.51100000000E-03 0. -1.
    9000002    1    1    2    0    0  0.18337831865E+00 -0.12065989337E+00  0.44717500167E-01  0.96438066781E+00  0.93800000000E+00 0. -1.
         22    1    1    2    0    0 -0.15327013491E+00  0.15892356659E+00  0.13541821759E+01  0.13720633366E+01  0.00000000000E+00 0.  1.
</event>
<event>
 5    1  0.2111786E+001  0.1554698E+01  0.7818608E-02  0.3404050E+00
         11   -1    0    0    0    0  0.00000000000E+00  0.00000000000E+00  0.39999999674E+01  0.40000000000E+01  0.51100000000E-03 0. -1.
    9000002   -1    0    0    0    0 -0.00000000000E+00 -0.00000000000E+00  0.00000000000E+00  0.93800000000E+00  0.93800000000E+00 0. -1.
         11    1    1    2    0    0  0.34732143623E-01  0.24034057179E+00  0.13119953492E+01  0.13342795695E+01  0.51100000000E-03 0. -1.
    9000002    1    1    2    0    0 -0.81750633146E-01 -0.43237043837E-04  0.37889415996E-01  0.94231776792E+00  0.93800000000E+00 0. -1.
         22    1    1    2    0    0  0.47018489523E-01 -0.24029733475E+00  0.26501152022E+01  0.26614026626E+01  0.00000000000E+00 0. -1.
</event>
<event>
 5    1  0.2111786E+001  0.1513651E+01  0.7818608E-02  0.3452769E+00
         11   -1    0    0    0    0  0.00000000000E+00  0.00000000000E+00  0.39999999674E+01  0.40000000000E+01  0.51100000000E-03 0.  1.
    9000002   -1    0    0    0    0 -0.00000000000E+00 -0.00000000000E+00  0.00000000000E+00  0.93800000000E+00  0.93800000000E+00 0.  1.
         11    1    1    2    0    0 -0.21513519117E+00  0.23025208399E+00  0.84609561550E+00  0.90287165442E+00  0.51100000000E-03 0.  1.
    9000002    1    1    2    0    0 -0.97577708878E-03 -0.14298799648E+00  0.79783000027E-01  0.95218477533E+00  0.93800000000E+00 0.  1.
         22    1    1    2    0    0  0.21611096826E+00 -0.87264087510E-01  0.30741213518E+01  0.30829435703E+01  0.00000000000E+00 0.  1.
</event>
<event>
 5    1  0.2111786E+001  0.1494014E+01  0.7818608E-02  0.3477093E+00
         11   -1    0    0    0    0  0.00000000000E+00  0.00000000000E+00  0.39999999674E+01  0.40000000000E+01  0.51100000000E-03 0.  1.
    9000002   -1    0    0    0    0 -0.00000000000E+00 -0.00000000000E+00  0.00000000000E+00  0.93800000000E+00  0.93800000000E+00 0. -1.
         11    1    1    2    0    0  0.42715910280E+00 -0.74059550036E-02  0.11055688364E+01  0.11852436292E+01  0.51100000000E-03 0.  1.
    9000002    1    1    2    0    0 -0.25125707279E+00 -0.12320172400E+00  0.13905118334E+00  0.98867993456E+00  0.93800000000E+00 0. -1.
         22    1    1    2    0    0 -0.17590203001E+00  0.13060767900E+00  0.27553799476E+01  0.27640764363E+01  0.00000000000E+00 0.  1.
</event>
<event>
 5    1  0.2111786E+001  0.1252911E+01  0.7818608E-02  0.3876192E+00
         11   -1    0    0    0    0  0.00000000000E+00  0.00000000000E+00  0.39999999674E+01  0.40000000000E+01  0.51100000000E-03 0. -1.
    9000002   -1    0    0    0    0 -0.00000000000E+00 -0.00000000000E+00  0.00000000000E+00  0.93800000000E+00  0.93800000000E+00 0. -1.
         11    1    1    2    0    0 -0.44145471484E+00 -0.66529480406E+00  0.24590950124E+01  0.25854686195E+01  0.51100000000E-03 0. -1.
    9000002    1    1    2    0    0 -0.12776806980E+00  0.40945212878E+00  0.51776435208E+00  0.11540795682E+01  0.93800000000E+00 0. -1.
         22    1    1    2    0    0  0.56922278464E+00  0.25584267528E+00  0.10231406029E+01  0.11984518123E+01  0.00000000000E+00 0. -1.
</event>
<event>
 5    1  0.2111786E+001  0.1330791E+01  0.7818608E-02  0.3724669E+00
         11   -1    0    0    0    0  0.00000000000E+00  0.00000000000E+00  0.39999999674E+01  0.40000000000E+01  0.51100000000E-03 0. -1.
    9000002   -1    0    0    0    0 -0.00000000000E+00 -0.00000000000E+00  0.00000000000E+00  0.93800000000E+00  0.93800000000E+00 0.  1.
         11    1    1    2    0    0 -0.10821207326E+01 -0.23576259671E+00  0.19841956051E+01  0.22723559894E+01  0.51100000000E-03 0. -1.
    9000002    1    1    2    0    0  0.73578960799E+00  0.36523825444E+00  0.10451414742E+01  0.16269449993E+01  0.93800000000E+00 0.  1.
         22    1    1    2    0    0  0.34633112464E+00 -0.12947565773E+00  0.97066288806E+00  0.10386990113E+01  0.00000000000E+00 0.  1.
</event>
<event>
 5    1  0.2111786E+001  0.1504995E+01  0.7818608E-02  0.3463407E+00
         11   -1    0    0    0    0  0.00000000000E+00  0.00000000000E+00  0.39999999674E+01  0.40000000000E+01  0.51100000000E-03 0. -1.
    9000002   -1    0    0    0    0 -0.00000000000E+00 -0.00000000000E+00  0.00000000000E+00  0.93800000000E+00  0.93800000000E+00 0. -1.
         11    1    1    2    0    0 -0.18239326002E+00 -0.10464227061E+00  0.34234829493E+00  0.40177098235E+00  0.51100000000E-03 0. -1.
    9000002    1    1    2    0    0 -0.95830544112E-01  0.44690116672E-01  0.80055330679E-01  0.94732969746E+00  0.93800000000E+00 0. -1.
         22    1    1    2    0    0  0.27822380413E+00  0.59952153938E-01  0.35775963418E+01  0.35888993202E+01  0.00000000000E+00 0. -1.
</event>
<event>
 5    1  0.2111786E+001  0.1520512E+01  0.7818608E-02  0.3444429E+00
         11   -1    0    0    0    0  0.00000000000E+00  0.00000000000E+00  0.39999999674E+01  0.40000000000E+01  0.51100000000E-03 0.  1.
    9000002   -1    0    0    0    0 -0.00000000000E+00 -0.00000000000E+00  0.00000000000E+00  0.93800000000E+00  0.93800000000E+00 0.  1.
         11    1    1    2    0    0 -0.12086602905E-01 -0.88322104207E-01  0.25541777881E+01  0.25557330288E+01  0.51100000000E-03 0.  1.
    9000002    1    1    2    0    0 -0.18967371036E+00  0.54185843694E+00  0.30982231650E+00  0.11425500207E+01  0.93800000000E+00 0.  1.
         22    1    1    2    0    0  0.20176031327E+00 -0.45353633274E+00  0.11359998628E+01  0.12397169505E+01  0.00000000000E+00 0.  1.
</event>
<event>
 5    1  0.2111786E+001  0.1597450E+01  0.7818608E-02  0.3356136E+00
         11   -1    0    0    0    0  0.00000000000E+00  0.00000000000E+00  0.39999999674E+01  0.40000000000E+01  0.51100000000E-03 0. -1.
    9000002   -1    0    0    0    0 -0.00000000000E+00 -0.00000000000E+00  0.00000000000E+00  0.93800000000E+00  0.93800000000E+00 0.  1.
         11    1    1    2    0    0 -0.76399600421E-01  0.74997728569E-01  0.18270215127E+01  0.18301555746E+01  0.51100000000E-03 0. -1.
    9000002    1    1    2    0    0  0.28539417676E+00 -0.17372045111E+00  0.76498551954E-01  0.99866143398E+00  0.93800000000E+00 0.  1.
         22    1    1    2    0    0 -0.20899457634E+00  0.98722722537E-01  0.20964799027E+01  0.21091829915E+01  0.00000000000E+00 0. -1.
</event>
<event>
 5    1  0.2111786E+001  0.1550916E+01  0.7818608E-02  0.3408423E+00
         11   -1    0    0    0    0  0.00000000000E+00  0.00000000000E+00  0.39999999674E+01  0.40000000000E+01  0.51100000000E-03 0.  1.
    9000002   -1    0    0    0    0 -0.00000000000E+00 -0.00000000000E+00  0.00000000000E+00  0.93800000000E+00  0.93800000000E+00 0.  1.
         11    1    1    2    0    0 -0.35569183466E+00 -0.25539814003E+00  0.27150023147E+01  0.27500877660E+01  0.51100000000E-03 0.  1.
    9000002    1    1    2    0    0  0.43225094992E+00  0.26723237132E-01  0.16988742321E+00  0.10470247140E+01  0.93800000000E+00 0.  1.
         22    1    1    2    0    0 -0.76559115269E-01  0.22867490289E+00  0.11151102295E+01  0.11408875200E+01  0.00000000000E+00 0.  1.
</event>
<event>
 5    1  0.2111786E+001  0.1563916E+01  0.7818608E-02  0.3393483E+00
         11   -1    0    0    0    0  0.00000000000E+00  0.00000000000E+00  0.39999999674E+01  0.40000000000E+01  0.51100000000E-03 0.  1.
    9000002   -1    0    0    0    0 -0.00000000000E+00 -0.00000000000E+00  0.00000000000E+00  0.93800000000E+00  0.93800000000E+00 0. -1.
         11    1    1    2    0    0  0.19188245080E+00 -0.14007259948E+00  0.22542767480E+01  0.22667604914E+01  0.51100000000E-03 0.  1.
    9000002    1    1    2    0    0 -0.37300436294E-01 -0.12701405466E-01  0.27400883160E-01  0.93922705277E+00  0.93800000000E+00 0. -1.
         22    1    1    2    0    0 -0.15458201451E+00  0.15277400494E+00  0.17183223362E+01  0.17320124558E+01  0.00000000000E+00 0.  1.
</event>
<event>
 5    1  0.2111786E+001  0.1543705E+01  0.7818608E-02  0.3416826E+00
         11   -1    0    0    0    0  0.00000000000E+00  0.00000000000E+00  0.39999999674E+01  0.40000000000E+01  0.51100000000E-03 0.  1.
    9000002   -1    0    0    0    0 -0.00000000000E+00 -0.00000000000E+00  0.00000000000E+00  0.93800000000E+00  0.93800000000E+00 0.  1.
         11    1    1    2    0    0  0.24079970935E+00 -0.15020064135E+00  0.12374393439E+01  0.12695672978E+01  0.51100000000E-03 0.  1.
    9000002    1    1    2    0    0 -0.18795728593E+00 -0.13660836688E+00  0.79551030991E-01  0.96961959230E+00  0.93800000000E+00 0.  1.
         22    1    1    2    0    0 -0.52842423411E-01  0.28680900823E+00  0.26830095925E+01  0.26988131099E+01  0.00000000000E+00 0.  1.
</event>
<event>
 5    1  0.2111786E+001  0.1493132E+01  0.7818608E-02  0.3478202E+00
         11   -1    0    0    0    0  0.00000000000E+00  0.00000000000E+00  0.39999999674E+01  0.40000000000E+01  0.51100000000E-03 0.  1.
    9000002   -1    0    0    0    0 -0.00000000000E+00 -0.00000000000E+00  0.00000000000E+00  0.93800000000E+00  0.93800000000E+00 0.  1.
         11    1    1    2    0    0  0.24749553627E+00  0.38674410118E-02  0.42777820062E+00  0.49423015652E+00  0.51100000000E-03 0.  1.
    9000002    1    1    2    0    0  0.38816753902E-01 -0.15793501831E-01  0.82775963664E-01  0.94257733648E+00  0.93800000000E+00 0.  1.
         22    1    1    2    0    0 -0.28631229017E+00  0.11926060819E-01  0.34894458031E+01  0.35011925070E+01  0.00000000000E+00 0.  1.
</event>
<event>
 5    1  0.2111786E+001  0.1556813E+01  0.7818608E-02  0.3401613E+00
         11   -1    0    0    0    0  0.00000000000E+00  0.00000000000E+00  0.39999999674E+01  0.40000000000E+01  0.51100000000E-03 0. -1.
    9000002   -1    0    0    0    0 -0.00000000000E+00 -0.00000000000E+00  0.00000000000E+00  0.93800000000E+00  0.93800000000E+00 0. -1.
         11    1    1    2    0    0 -0.61858834541E-02 -0.44477252510E+00  0.28549578741E+01  0.28894022891E+01  0.51100000000E-03 0. -1.
    9000002    1    1    2    0    0 -0.22286211451E+00  0.42104902944E+00  0.19362736800E+00  0.10697127488E+01  0.93800000000E+00 0. -1.
         22    1    1    2    0    0  0.22904799796E+00  0.23723495667E-01  0.95141472523E+00  0.97888496209E+00  0.00000000000E+00 0. -1.
</event>
<event>
 5    1  0.2111786E+001  0.1584566E+01  0.7818608E-02  0.3370287E+00
         11   -1    0    0    0    0  0.00000000000E+00  0.00000000000E+00  0.39999999674E+01  0.40000000000E+01  0.51100000000E-03 0.  1.
    9000002   -1    0    0    0    0 -0.00000000000E+00 -0.00000000000E+00  0.00000000000E+00  0.93800000000E+00  0.93800000000E+00 0.  1.
         11    1    1    2    0    0  0.84316311931E-01  0.11320191240E-01  0.89188914467E+00  0.89593743905E+00  0.51100000000E-03 0.  1.
    9000002    1    1    2    0    0  0.16901997329E+00 -0.12618376259E+00  0.40929232643E-01  0.96229376772E+00  0.93800000000E+00 0.  1.
         22    1    1    2    0    0 -0.25333628522E+00  0.11486357135E+00  0.30671815900E+01  0.30797687932E+01  0.00000000000E+00 0.  1.
</event>
<event>
 5    1  0.2111786E+001  0.1591878E+01  0.7818608E-02  0.3362226E+00
         11   -1    0    0    0    0  0.00000000000E+00  0.00000000000E+00  0.39999999674E+01  0.40000000000E+01  0.51100000000E-03 0.  1.
    9000002   -1    0    0    0    0 -0.00000000000E+00 -0.00000000000E+00  0.00000000000E+00  0.93800000000E+00  0.93800000000E+00 0. -1.
         11    1    1    2    0    0 -0.17131788343E-01  0.70625098651E-01  0.37973278864E+00  0.38662469479E+00  0.51100000000E-03 0.  1.
    9000002    1    1    2    0    0 -0.18154020674E+00 -0.18814670303E+00  0.51463661426E-01  0.97511462761E+00  0.93800000000E+00 0. -1.
         22    1    1    2    0    0  0.19867199508E+00  0.11752160438E+00  0.35688035173E+01  0.35762606776E+01  0.00000000000E+00 0.  1.
</event>
<event>
 5    1  0.2111786E+001  0.1536358E+01  0.7818608E-02  0.3425474E+00
         11   -1    0    0    0    0  0.00000000000E+00  0.00000000000E+00  0.39999999674E+01  0.40000000000E+01  0.51100000000E-03 0. -1.
    9000002   -1    0    0    0    0 -0.00000000000E+00 -0.00000000000E+00  0.00000000000E+00  0.93800000000E+00  0.93800000000E+00 0.  1.
         11    1    1    2    0    0  0.10977210668E+00  0.60017430730E-01  0.35050453408E+01  0.35072774498E+01  0.51100000000E-03 0. -1.
    9000002    1    1    2    0    0  0.39794137528E-01  0.79188660118E-01  0.52818180497E-01  0.94365681127E+00  0.93800000000E+00 0.  1.
         22    1    1    2    0    0 -0.14956624421E+00 -0.13920609085E+00  0.44213644604E+00  0.48706573894E+00  0.00000000000E+00 0.  1.
</event>
<event>
 5    1  0.2111786E+001  0.1317858E+01  0.7818608E-02  0.3748328E+00
         11   -1    0    0    0    0  0.00000000000E+00  0.00000000000E+00  0.39999999674E+01  0.40000000000E+01  0.51100000000E-03 0. -1.
    9000002   -1    0    0    0    0 -0.00000000000E+00 -0.00000000000E+00  0.00000000000E+00  0.93800000000E+00  0.93800000000E+00 0. -1.
         11    1    1    2    0    0 -0.52768028523E+00  0.38580341119E+00  0.26597873537E+01  0.27389340597E+01  0.51100000000E-03 0. -1.
    9000002    1    1    2    0    0  0.57743763259E-01 -0.87961519436E-01  0.25211307015E+00  0.97697316813E+00  0.93800000000E+00 0. -1.
         22    1    1    2    0    0  0.46993652197E+00 -0.29784189175E+00  0.10880995435E+01  0.12220927722E+01  0.00000000000E+00 0. -1.
</event>
<event>
 5    1  0.2111786E+001  0.1539112E+01  0.7818608E-02  0.3422222E+00
         11   -1    0    0    0    0  0.00000000000E+00  0.00000000000E+00  0.39999999674E+01  0.40000000000E+01  0.51100000000E-03 0.  1.
    9000002   -1    0    0    0    0 -0.00000000000E+00 -0.00000000000E+00  0.00000000000E+00  0.93800000000E+00  0.93800000000E+00 0. -1.
         11    1    1    2    0    0 -0.64747713892E-01  0.35192313752E+00  0.25613003765E+01  0.25861751760E+01  0.51100000000E-03 0.  1.
    9000002    1    1    2    0    0  0.17300185629E-01 -0.11455421553E+00  0.54584817973E-01  0.94670241738E+00  0.93800000000E+00 0. -1.
         22    1    1    2    0    0  0.47447528262E-01 -0.23736892199E+00  0.13841147729E+01  0.14051224066E+01  0.00000000000E+00 0.  1.
</event>
<event>
 5    1  0.2111786E+001  0.1543192E+01  0.7818608E-02  0.3417427E+00
         11   -1    0    0    0    0  0.00000000000E+00  0.00000000000E+00  0.39999999674E+01  0.40000000000E+01  0.51100000000E-03 0.  1.
    9000002   -1    0    0    0    0 -0.00000000000E+00 -0.00000000000E+00  0.00000000000E+00  0.93800000000E+00  0.93800000000E+00 0. -1.
         11    1    1    2    0    0 -0.36805918314E+00  0.26325341472E+00  0.25301877566E+01  0.25703346606E+01  0.51100000000E-03 0.  1.
    9000002    1    1    2    0    0  0.15244405494E+00 -0.33389678722E+00  0.13800474455E+00  0.10166688566E+01  0.93800000000E+00 0. -1.
         22    1    1    2    0    0  0.21561512820E+00  0.70643372496E-01  0.13318074662E+01  0.13509964828E+01  0.00000000000E+00 0.  1.
</event>
<event>
 5    1  0.2111786E+001  0.1517397E+01  0.7818608E-02  0.3448205E+00
         11   -1    0    0    0    0  0.00000000000E+00  0.00000000000E+00  0.39999999674E+01  0.40000000000E+01  0.51100000000E-03 0.  1.
    9000002   -1    0    0    0    0 -0.00000000000E+00 -0.00000000000E+00  0.00000000000E+00  0.93800000000E+00  0.93800000000E+00 0. -1.
         11    1    1    2    0    0 -0.17756874823E+00 -0.13519016231E+00  0.35645369818E+01  0.35715166521E+01  0.51100000000E-03 0.  1.
    9000002    1    1    2    0    0  0.14501939272E+00 -0.70486588193E-01  0.80767141216E-01  0.95517868196E+00  0.93800000000E+00 0. -1.
         22    1    1    2    0    0  0.32549355509E-01  0.20567675050E+00  0.35469584432E+00  0.41130466594E+00  0.00000000000E+00 0. -1.
</event>
<event>
 5    1  0.2111786E+001  0.1493402E+01  0.7818608E-02  0.3477861E+00
         11   -1    0    0    0    0  0.00000000000E+00  0.00000000000E+00  0.39999999674E+01  0.40000000000E+01  0.51100000000E-03 0.  1.
    9000002   -1    0    0    0    0 -0.00000000000E+00 -0.00000000000E+00  0.00000000000E+00  0.93800000000E+00  0.93800000000E+00 0. -1.
         11    1    1    2    0    0 -0.25668575004E+00 -0.15533952189E+00  0.10383460157E+01  0.10808240610E+01  0.51100000000E-03 0.  1.
    9000002    1    1    2    0    0 -0.21014025404E+00  0.13270961104E-01  0.11407103522E+00  0.96808638347E+00  0.93800000000E+00 0. -1.
         22    1    1    2    0    0  0.46682600408E+00  0.14206856078E+00  0.28475829165E+01  0.28890895556E+01  0.00000000000E+00 0.  1.
</event>
<event>
 5    1  0.2111786E+001  0.1533235E+01  0.7818608E-02  0.3429176E+00
         11   -1    0    0    0    0  0.00000000000E+00  0.00000000000E+00  0.39999999674E+01  0.40000000000E+01  0.51100000000E-03 0.  1.
    9000002   -1    0    0    0    0 -0.00000000000E+00 -0.00000000000E+00  0.00000000000E+00  0.93800000000E+00  0.93800000000E+00 0.  1.
         11    1    1    2    0    0  0.90345127973E-01 -0.30929796938E+00  0.15094282210E+01  0.15434381398E+01  0.51100000000E-03 0.  1.
    9000002    1    1    2    0    0  0.12184341285E+00  0.10478942635E+00  0.67959169838E-01  0.95409071366E+00  0.93800000000E+00 0.  1.
         22    1    1    2    0    0 -0.21218854082E+00  0.20450854303E+00  0.24226125765E+01  0.24404711465E+01  0.00000000000E+00 0.  1.
</event>
<event>
 5    1  0.2111786E+001  0.1478626E+01  0.7818608E-02  0.3496641E+00
         11   -1    0    0    0    0  0.00000000000E+00  0.00000000000E+00  0.39999999674E+01  0.40000000000E+01  0.51100000000E-03 0.  1.
    9000002   -1    0    0    0    0 -0.00000000000E+00 -0.00000000000E+00  0.00000000000E+00  0.93800000000E+00  0.93800000000E+00 0.  1.
         11    1    1    2    0    0  0.33086197993E+00  0.39746302744E+00  0.93445087999E+00  0.10680099326E+01  0.51100000000E-03 0.  1.
    9000002    1    1    2    0    0 -0.31676357265E+00 -0.77459974980E-01  0.23384710332E+00  0.10202292274E+01  0.93800000000E+00 0.  1.
         22    1    1    2    0    0 -0.14098407284E-01 -0.32000305246E+00  0.28317019841E+01  0.28497608400E+01  0.00000000000E+00 0. -1.
</event>
<event>
 5    1  0.2111786E+001  0.1542487E+01  0.7818608E-02  0.3418254E+00
         11   -1    0    0    0    0  0.00000000000E+00  0.00000000000E+00  0.39999999674E+01  0.40000000000E+01  0.51100000000E-03 0.  1.
    9000002   -1    0    0    0    0 -0.00000000000E+00 -0.00000000000E+00  0.00000000000E+00  0.93800000000E+00  0.93800000000E+00 0. -1.
         11    1    1    2    0    0  0.25888564634E+00 -0.23109517312E+00  0.15524657209E+01  0.15907786875E+01  0.51100000000E-03 0.  1.
    9000002    1    1    2    0    0 -0.24387983032E+00  0.62658195502E-03  0.84428930666E-01  0.97285662283E+00  0.93800000000E+00 0. -1.
         22    1    1    2    0    0 -0.15005816024E-01  0.23046859116E+00  0.23631053158E+01  0.23743646897E+01  0.00000000000E+00 0.  1.
</event>
<event>
 5    1  0.2111786E+001  0.1576382E+01  0.7818608E-02  0.3379403E+00
         11   -1    0    0    0    0  0.00000000000E+00  0.00000000000E+00  0.39999999674E+01  0.40000000000E+01  0.51100000000E-03 0.  1.
    9000002   -1    0    0    0    0 -0.00000000000E+00 -0.00000000000E+00  0.00000000000E+00  0.93800000000E+00  0.93800000000E+00 0. -1.
         11    1    1    2    0    0 -0.16188691514E-01  0.84327408503E-01  0.35955337042E+00  0.36966481150E+00  0.51100000000E-03 0.  1.
    9000002    1    1    2    0    0 -0.12395166089E+00  0.19800166604E+00  0.54098632276E-01  0.96816286647E+00  0.93800000000E+00 0. -1.
         22    1    1    2    0    0  0.14014035241E+00 -0.28232907454E+00  0.35863479647E+01  0.36001723220E+01  0.00000000000E+00 0.  1.
</event>
<event>
 5    1  0.2111786E+001  0.1501620E+01  0.7818608E-02  0.3467589E+00
         11   -1    0    0    0    0  0.00000000000E+00  0.00000000000E+00  0.39999999674E+01  0.40000000000E+01  0.51100000000E-03 0. -1.
    9000002   -1    0    0    0    0 -0.00000000000E+00 -0.00000000000E+00  0.00000000000E+00  0.93800000000E+00  0.93800000000E+00 0. -1.
         11    1    1    2    0    0 -0.38858344627E+00 -0.61687001005E-01  0.18773487413E+01  0.19181347550E+01  0.51100000000E-03 0. -1.
    9000002    1    1    2    0    0  0.50755085200E-01 -0.69803995909E-01  0.80064729342E-01  0.94535868188E+00  0.93800000000E+00 0. -1.
         22    1    1    2    0    0  0.33782836107E+00  0.13149099691E+00  0.20425864967E+01  0.20745065631E+01  0.00000000000E+00 0. -1.
</event>
<event>
 5    1  0.2111786E+001  0.1544760E+01  0.7818608E-02  0.3415591E+00
         11   -1    0    0    0    0  0.00000000000E+00  0.00000000000E+00  0.39999999674E+01  0.40000000000E+01  0.51100000000E-03 0.  1.
    9000002   -1    0    0    0    0 -0.00000000000E+00 -0.00000000000E+00  0.00000000000E+00  0.93800000000E+00  0.93800000000E+00 0.  1.
         11    1    1    2    0    0  0.32245236065E-01 -0.26325295699E+00  0.11287267550E+01  0.11594680777E+01  0.51100000000E-03 0.  1.
    9000002    1    1    2    0    0 -0.12254288562E+00  0.27199614441E-01  0.51825951283E-01  0.94777977773E+00  0.93800000000E+00 0.  1.
         22    1    1    2    0    0  0.90297649559E-01  0.23605334255E+00  0.28194472611E+01  0.28307521446E+01  0.00000000000E+00 0.  1.
</event>
<event>
 5    1  0.2111786E+001  0.1532442E+01  0.7818608E-02  0.3430119E+00
         11   -1    0    0    0    0  0.00000000000E+00  0.00000000000E+00  0.39999999674E+01  0.40000000000E+01  0.51100000000E-03 0. -1.
    9000002   -1    0    0    0    0 -0.00000000000E+00 -0.00000000000E+00  0.00000000000E+00  0.93800000000E+00  0.93800000000E+00 0. -1.
         11    1    1    2    0    0 -0.32917909577E-01 -0.32634924606E+00  0.27853826639E+01  0.28046290779E+01  0.51100000000E-03 0. -1.
    9000002    1    1    2    0    0 -0.81505258898E-02  0.62621915855E-01  0.53143458574E-01  0.94162421518E+00  0.93800000000E+00 0. -1.
         22    1    1    2    0    0  0.41068435467E-01  0.26372733021E+00  0.11614738449E+01  0.11917467069E+01  0.00000000000E+00 0. -1.
</event>
<event>
 5    1  0.2111786E+001  0.1532420E+01  0.7818608E-02  0.3430145E+00
         11   -1    0    0    0    0  0.00000000000E+00  0.00000000000E+00  0.39999999674E+01  0.40000000000E+01  0.51100000000E-03 0.  1.
    9000002   -1    0    0    0    0 -0.00000000000E+00 -0.00000000000E+00  0.00000000000E+00  0.93800000000E+00  0.93800000000E+00 0.  1.
         11    1    1    2    0    0  0.34563334972E+00  0.19146256081E+00  0.23837302155E+01  0.24162554348E+01  0.51100000000E-03 0.  1.
    9000002    1    1    2    0    0 -0.22867642946E+00  0.53334322528E-01  0.89522502889E-01  0.97107967638E+00  0.93800000000E+00 0.  1.
         22    1    1    2    0    0 -0.11695692026E+00 -0.24479688334E+00  0.15267472489E+01  0.15506648888E+01  0.00000000000E+00 0. -1.
</event>
<event>
 5    1  0.2111786E+001  0.1552563E+01  0.7818608E-02  0.3406516E+00
         11   -1    0    0    0    0  0.00000000000E+00  0.00000000000E+00  0.39999999674E+01  0.40000000000E+01  0.51100000000E-03 0.  1.
    9000002   -1    0    0    0    0 -0.00000000000E+00 -0.00000000000E+00  0.00000000000E+00  0.93800000000E+00  0.93800000000E+00 0. -1.
         11    1    1    2    0    0  0.90422273145E-01  0.51875523568E+00  0.99133090577E+00  0.11225063064E+01  0.51100000000E-03 0.  1.
    9000002    1    1    2    0    0  0.11361916261E+00  0.39813692504E-01  0.22913485574E+00  0.97305766856E+00  0.93800000000E+00 0. -1.
         22    1    1    2    0    0 -0.20404143576E+00 -0.55856892819E+00  0.27795342058E+01  0.28424360251E+01  0.00000000000E+00 0.  1.
</event>
<event>
 5    1  0.2111786E+001  0.1535488E+01  0.7818608E-02  0.3426503E+00
         11   -1    0    0    0    0  0.00000000000E+00  0.00000000000E+00  0.39999999674E+01  0.40000000000E+01  0.51100000000E-03 0.  1.
    9000002   -1    0    0    0    0 -0.00000000000E+00 -0.00000000000E+00  0.00000000000E+00  0.93800000000E+00  0.93800000000E+00 0.  1.
         11    1    1    2    0    0 -0.34433974740E+00 -0.23869116680E+00  0.29680360584E+01  0.29974625335E+01  0.51100000000E-03 0.  1.
    9000002    1    1    2    0    0  0.12205553921E+00  0.22401995269E+00  0.94142660697E-01  0.97662138745E+00  0.93800000000E+00 0.  1.
         22    1    1    2    0    0  0.22228420819E+00  0.14671214108E-01  0.93782124826E+00  0.96391607904E+00  0.00000000000E+00 0.  1.
</event>
<event>
 5    1  0.2111786E+001  0.1552200E+01  0.7818608E-02  0.3406936E+00
         11   -1    0    0    0    0  0.00000000000E+00  0.00000000000E+00  0.39999999674E+01  0.40000000000E+01  0.51100000000E-03 0. -1.
    9000002   -1    0    0    0    0 -0.00000000000E+00 -0.00000000000E+00  0.00000000000E+00  0.93800000000E+00  0.93800000000E+00 0. -1.
         11    1    1    2    0    0 -0.10198836758E+00  0.20332234833E+00  0.10046398056E+01  0.10300694173E+01  0.51100000000E-03 0. -1.
    9000002    1    1    2    0    0  0.19768487196E-01  0.14905083104E-01  0.35604427380E-01  0.93900193282E+00  0.93800000000E+00 0. -1.
         22    1    1    2    0    0  0.82219880384E-01 -0.21822743143E+00  0.29597557344E+01  0.29689286499E+01  0.00000000000E+00 0. -1.
</event>
<event>
 5    1  0.2111786E+001  0.1496392E+01  0.7818608E-02  0.3474111E+00
         11   -1    0    0    0    0  0.00000000000E+00  0.00000000000E+00  0.39999999674E+01  0.40000000000E+01  0.51100000000E-03 0. -1.
    9000002   -1    0    0    0    0 -0.00000000000E+00 -0.00000000000E+00  0.00000000000E+00  0.93800000000E+00  0.93800000000E+00 0.  1.
         11    1    1    2    0    0  0.11776601099E+00 -0.36974498908E+00  0.99793813352E+00  0.10707291767E+01  0.51100000000E-03 0. -1.
    9000002    1    1    2    0    0 -0.15324018519E+00  0.14463047449E+00  0.11159217725E+00  0.96783125726E+00  0.93800000000E+00 0.  1.
         22    1    1    2    0    0  0.35474174199E-01  0.22511451459E+00  0.28904696566E+01  0.28994395661E+01  0.00000000000E+00 0. -1.
</event>
<event>
 5    1  0.2111786E+001  0.1541836E+01  0.7818608E-02  0.3419017E+00
         11   -1    0    0    0    0  0.00000000000E+00  0.00000000000E+00  0.39999999674E+01  0.40000000000E+01  0.51100000000E-03 0. -1.
    9000002   -1    0    0    0    0 -0.00000000000E+00 -0.00000000000E+00  0.00000000000E+00  0.93800000000E+00  0.93800000000E+00 0.  1.
         11    1    1    2    0    0  0.32803845360E+00  0.91269396224E-01  0.21394718090E+01  0.21663977503E+01  0.51100000000E-03 0. -1.
    9000002    1    1    2    0    0 -0.11473669879E+00  0.37743487783E-01  0.53281784924E-01  0.94724444022E+00  0.93800000000E+00 0.  1.
         22    1    1    2    0    0 -0.21330175482E+00 -0.12901288401E+00  0.18072463734E+01  0.18243578095E+01  0.00000000000E+00 0.  1.
</event>
<event>
 5    1  0.2111786E+001  0.1536541E+01  0.7818608E-02  0.3425257E+00
         11   -1    0    0    0    0  0.00000000000E+00  0.00000000000E+00  0.39999999674E+01  0.40000000000E+01  0.51100000000E-03 0.  1.
    9000002   -1    0    0    0    0 -0.00000000000E+00 -0.00000000000E+00  0.00000000000E+00  0.93800000000E+00  0.93800000000E+00 0.  1.
         11    1    1    2    0    0 -0.28414949794E+00  0.78675925450E-03  0.17607340627E+01  0.17835151406E+01  0.51100000000E-03 0.  1.
    9000002    1    1    2    0    0 -0.32226058092E-02  0.20822396516E+00  0.77776682696E-01  0.96398175150E+00  0.93800000000E+00 0.  1.
         22    1    1    2    0    0  0.28737210375E+00 -0.20901072442E+00  0.21614892220E+01  0.21905031079E+01  0.00000000000E+00 0.  1.
</event>
<event>
 5    1  0.2111786E+001  0.1542602E+01  0.7818608E-02  0.3418118E+00
         11   -1    0    0    0    0  0.00000000000E+00  0.00000000000E+00  0.39999999674E+01  0.40000000000E+01  0.51100000000E-03 0. -1.
    9000002   -1    0    0    0    0 -0.00000000000E+00 -0.00000000000E+00  0.00000000000E+00  0.93800000000E+00  0.93800000000E+00 0.  1.
         11    1    1    2    0    0  0.24151123295E+00 -0.99174779372E-01  0.15909265959E+01  0.16122068748E+01  0.51100000000E-03 0. -1.
    9000002    1    1    2    0    0  0.63928574129E-01  0.23044412187E-01  0.45720867512E-01  0.94156906558E+00  0.93800000000E+00 0.  1.
         22    1    1    2    0    0 -0.30543980708E+00  0.76130367185E-01  0.23633525039E+01  0.23842240596E+01  0.00000000000E+00 0. -1.
</event>
<event>
 5    1  0.2111786E+001  0.1510060E+01  0.7818608E-02  0.3457166E+00
         11   -1    0    0    0    0  0.00000000000E+00  0.00000000000E+00  0.39999999674E+01  0.40000000000E+01  0.51100000000E-03 0. -1.
    9000002   -1    0    0    0    0 -0.00000000000E+00 -0.00000000000E+00  0.00000000000E+00  0.93800000000E+00  0.93800000000E+00 0. -1.
         11    1    1    2    0    0 -0.23256652318E+00  0.33245205932E+00  0.14562106759E+01  0.15116750157E+01  0.51100000000E-03 0. -1.
    9000002    1    1    2    0    0  0.56430368690E-01 -0.14595264414E+00  0.85623102488E-01  0.95480986407E+00  0.93800000000E+00 0. -1.
         22    1    1    2    0    0  0.17613615449E+00 -0.18649941518E+00  0.24581661890E+01  0.24715151202E+01  0.00000000000E+00 0. -1.
</event>
<event>
 5    1  0.2111786E+001  0.1582447E+01  0.7818608E-02  0.3372638E+00
         11   -1    0    0    0    0  0.00000000000E+00  0.00000000000E+00  0.39999999674E+01  0.40000000000E+01  0.51100000000E-03 0.  1.
    9000002   -1    0    0    0    0 -0.00000000000E+00 -0.00000000000E+00  0.00000000000E+00  0.93800000000E+00  0.93800000000E+00 0.  1.
         11    1    1    2    0    0 -0.37955761655E-01 -0.12029922055E+00  0.15032281009E+01  0.15085116926E+01  0.51100000000E-03 0.  1.
    9000002    1    1    2    0    0 -0.75575963001E-01 -0.46727094902E-01  0.17865274948E-01  0.94236846065E+00  0.93800000000E+00 0.  1.
         22    1    1    2    0    0  0.11353172466E+00  0.16702631546E+00  0.24789065915E+01  0.24871198468E+01  0.00000000000E+00 0.  1.
</event>
<event>
 5    1  0.2111786E+001  0.1531282E+01  0.7818608E-02  0.3431500E+00
         11   -1    0    0    0    0  0.00000000000E+00  0.00000000000E+00  0.39999999674E+01  0.40000000000E+01  0.51100000000E-03 0.  1.
    9000002   -1    0    0    0    0 -0.00000000000E+00 -0.00000000000E+00  0.00000000000E+00  0.93800000000E+00  0.93800000000E+00 0.  1.
         11    1    1    2    0    0  0.13596626717E+00  0.35008320593E+00  0.15629027230E+01  0.16073923788E+01  0.51100000000E-03 0.  1.
    9000002    1    1    2    0    0  0.98569147602E-01 -0.23864416807E+00  0.98749480056E-01  0.97788668854E+00  0.93800000000E+00 0.  1.
         22    1    1    2    0    0 -0.23453541477E+00 -0.11143903786E+00  0.23383477643E+01  0.23527209327E+01  0.00000000000E+00 0.  1.
</event>
<event>
 5    1  0.2111786E+001  0.1556468E+01  0.7818608E-02  0.3402011E+00
         11   -1    0    0    0    0  0.00000000000E+00  0.00000000000E+00  0.39999999674E+01  0.40000000000E+01  0.51100000000E-03 0.  1.
    9000002   -1    0    0    0    0 -0.00000000000E+00 -0.00000000000E+00  0.00000000000E+00  0.93800000000E+00  0.93800000000E+00 0.  1.
         11    1    1    2    0    0 -0.78213212406E-01 -0.17944546565E+00  0.24537016207E+01  0.24614974886E+01  0.51100000000E-03 0.  1.
    9000002    1    1    2    0    0  0.15632866494E+00 -0.10091830106E+00  0.55853814496E-01  0.95790751305E+00  0.93800000000E+00 0.  1.
         22    1    1    2    0    0 -0.78115452531E-01  0.28036376671E+00  0.14904445322E+01  0.15185949984E+01  0.00000000000E+00 0.  1.
</event>
<event>
 5    1  0.2111786E+001  0.1485615E+01  0.7818608E-02  0.3487708E+00
         11   -1    0    0    0    0  0.00000000000E+00  0.00000000000E+00  0.39999999674E+01  0.40000000000E+01  0.51100000000E-03 0.  1.
    9000002   -1    0    0    0    0 -0.00000000000E+00 -0.00000000000E+00  0.00000000000E+00  0.93800000000E+00  0.93800000000E+00 0. -1.
         11    1    1    2    0    0  0.17250990318E+00  0.20359163283E+00  0.35173757225E+00  0.44150741840E+00  0.51100000000E-03 0.  1.
    9000002    1    1    2    0    0 -0.34320141297E+00  0.93626821574E-02  0.17688094337E+00  0.10143992004E+01  0.93800000000E+00 0. -1.
         22    1    1    2    0    0  0.17069150979E+00 -0.21295431498E+00  0.34713814517E+01  0.34820933812E+01  0.00000000000E+00 0.  1.
</event>
<event>
 5    1  0.2111786E+001  0.1556617E+01  0.7818608E-02  0.3401839E+00
         11   -1    0    0    0    0  0.00000000000E+00  0.00000000000E+00  0.39999999674E+01  0.40000000000E+01  0.51100000000E-03 0.  1.
    9000002   -1    0    0    0    0 -0.00000000000E+00 -0.00000000000E+00  0.00000000000E+00  0.93800000000E+00  0.93800000000E+00 0. -1.
         11    1    1    2    0    0  0.12113676166E+00 -0.17510933877E+00  0.82152158695E+00  0.84866682184E+00  0.51100000000E-03 0.  1.
    9000002    1    1    2    0    0 -0.18006279230E+00 -0.51232947382E-01  0.56031949058E-01  0.95813934445E+00  0.93800000000E+00 0. -1.
         22    1    1    2    0    0  0.58926030642E-01  0.22634228615E+00  0.31224464314E+01  0.31311938337E+01  0.00000000000E+00 0.  1.
</event>
<event>
 5    1  0.2111786E+001  0.1516471E+01  0.7818608E-02  0.3449331E+00
         11   -1    0    0    0    0  0.00000000000E+00  0.00000000000E+00  0.39999999674E+01  0.40000000000E+01  0.51100000000E-03 0. -1.
    9000002   -1    0    0    0    0 -0.00000000000E+00 -0.00000000000E+00  0.00000000000E+00  0.93800000000E+00  0.93800000000E+00 0.  1.
         11    1    1    2    0    0 -0.14361252027E-01  0.18871896702E+00  0.30297014704E+00  0.35722858955E+00  0.51100000000E-03 0. -1.
    9000002    1    1    2    0    0 -0.37195587496E-02  0.29369490916E-01  0.63451970255E-01  0.94060967178E+00  0.93800000000E+00 0.  1.
         22    1    1    2    0    0  0.18080810776E-01 -0.21808845794E+00  0.36335778501E+01  0.36401617387E+01  0.00000000000E+00 0. -1.
</event>
<event>
 5    1  0.2111786E+001  0.1485740E+01  0.7818608E-02  0.3487549E+00
         11   -1    0    0    0    0  0.00000000000E+00  0.00000000000E+00  0.39999999674E+01  0.40000000000E+01  0.51100000000E-03 0.  1.
    9000002   -1    0    0    0    0 -0.00000000000E+00 -0.00000000000E+00  0.00000000000E+00  0.93800000000E+00  0.93800000000E+00 0.  1.
         11    1    1    2    0    0  0.26103069188E+00  0.34425790955E+00  0.19119184453E+01  0.19601231933E+01  0.51100000000E-03 0.  1.
    9000002    1    1    2    0    0 -0.15199888762E+00  0.33703857152E-01  0.10552497789E+00  0.95667085917E+00  0.93800000000E+00 0.  1.
         22    1    1    2    0    0 -0.10903180426E+00 -0.37796176670E+00  0.19825565442E+01  0.20212059475E+01  0.00000000000E+00 0.  1.
</event>
<event>
 5    1  0.2111786E+001  0.1495771E+01  0.7818608E-02  0.3474888E+00
         11   -1    0    0    0    0  0.00000000000E+00  0.00000000000E+00  0.39999999674E+01  0.40000000000E+01  0.51100000000E-03 0. -1.
    9000002   -1    0    0    0    0 -0.00000000000E+00 -0.00000000000E+00  0.00000000000E+00  0.93800000000E+00  0.93800000000E+00 0. -1.
         11    1    1    2    0    0 -0.67704811049E-01  0.49154506279E+00  0.17254712336E+01  0.17953973737E+01  0.51100000000E-03 0. -1.
    9000002    1    1    2    0    0 -0.15817174401E-02 -0.24876095185E+00  0.12517029466E+00  0.97846620568E+00  0.93800000000E+00 0. -1.
         22    1    1    2    0    0  0.69286528489E-01 -0.24278411094E+00  0.21493584391E+01  0.21641364206E+01  0.00000000000E+00 0. -1.
</event>
<event>
 5    1  0.2111786E+001  0.1351691E+01  0.7818608E-02  0.3687582E+00
         11   -1    0    0    0    0  0.00000000000E+00  0.00000000000E+00  0.39999999674E+01  0.40000000000E+01  0.51100000000E-03 0.  1.
    9000002   -1    0    0    0    0 -0.00000000000E+00 -0.00000000000E+00  0.00000000000E+00  0.93800000000E+00  0.93800000000E+00 0.  1.
         11    1    1    2    0    0  0.49379982160E+00 -0.35815097461E+00  0.17095386772E+01  0.18151124303E+01  0.51100000000E-03 0.  1.
    9000002    1    1    2    0    0 -0.19320316277E+00 -0.17589484818E+00  0.26843554037E+00  0.10100337118E+01  0.93800000000E+00 0.  1.
         22    1    1    2    0    0 -0.30059665883E+00  0.53404582278E+00  0.20220257498E+01  0.21128538579E+01  0.00000000000E+00 0.  1.
</event>
<event>
 5    1  0.2111786E+001  0.1571334E+01  0.7818608E-02  0.3385076E+00
         11   -1    0    0    0    0  0.00000000000E+00  0.00000000000E+00  0.39999999674E+01  0.40000000000E+01  0.51100000000E-03 0.  1.
    9000002   -1    0    0    0    0 -0.00000000000E+00 -0.00000000000E+00  0.00000000000E+00  0.93800000000E+00  0.93800000000E+00 0.  1.
         11    1    1    2    0    0 -0.27829336720E+00 -0.97769658836E-01  0.10450027423E+01  0.10858347466E+01  0.51100000000E-03 0.  1.
    9000002    1    1    2    0    0  0.34798139307E+00  0.35666489291E+00  0.19588068849E+00  0.10800528412E+01  0.93800000000E+00 0.  1.
         22    1    1    2    0    0 -0.69688025863E-01 -0.25889523407E+00  0.27591165366E+01  0.27721124122E+01  0.00000000000E+00 0.  1.
</event>
<event>
 5    1  0.2111786E+001  0.1535001E+01  0.7818608E-02  0.3427080E+00
         11   -1    0    0    0    0  0.00000000000E+00  0.00000000000E+00  0.39999999674E+01  0.40000000000E+01  0.51100000000E-03 0. -1.
    9000002   -1    0    0    0    0 -0.00000000000E+00 -0.00000000000E+00  0.00000000000E+00  0.93800000000E+00  0.93800000000E+00 0.  1.
         11    1    1    2    0    0 -0.33353228736E+00  0.14129859389E+00  0.18796713420E+01  0.19142553890E+01  0.51100000000E-03 0. -1.
    9000002    1    1    2    0    0  0.92492412073E-01 -0.88647127315E-01  0.59905282292E-01  0.94860202526E+00  0.93800000000E+00 0.  1.
         22    1    1    2    0    0  0.24103987529E+00 -0.52651466574E-01  0.20604233430E+01  0.20751425857E+01  0.00000000000E+00 0. -1.
</event>
<event>
 5    1  0.2111786E+001  0.1523937E+01  0.7818608E-02  0.3440296E+00
         11   -1    0    0    0    0  0.00000000000E+00  0.00000000000E+00  0.39999999674E+01  0.40000000000E+01  0.51100000000E-03 0.  1.
    9000002   -1    0    0    0    0 -0.00000000000E+00 -0.00000000000E+00  0.00000000000E+00  0.93800000000E+00  0.93800000000E+00 0. -1.
         11    1    1    2    0    0  0.49692115583E-01  0.16823994528E+00  0.28196799937E+00  0.33208462675E+00  0.51100000000E-03 0.  1.
    9000002    1    1    2    0    0 -0.52723266507E-01  0.35270814267E-01  0.59817735757E-01  0.94204348874E+00  0.93800000000E+00 0. -1.
         22    1    1    2    0    0  0.30311509234E-02 -0.20351075955E+00  0.36582142322E+01  0.36638718845E+01  0.00000000000E+00 0.  1.
</event>
<event>
 5    1  0.2111786E+001  0.1551025E+01  0.7818608E-02  0.3408297E+00
         11   -1    0    0    0    0  0.00000000000E+00  0.00000000000E+00  0.39999999674E+01  0.40000000000E+01  0.51100000000E-03 0.  1.
    9000002   -1    0    0    0    0 -0.00000000000E+00 -0.00000000000E+00  0.00000000000E+00  0.93800000000E+00  0.93800000000E+00 0. -1.
         11    1    1    2    0    0  0.13807025688E+00  0.26613388660E+00  0.15332760221E+01  0.15623143930E+01  0.51100000000E-03 0.  1.
    9000002    1    1    2    0    0  0.26492384209E-01 -0.13848003680E+00  0.49840972112E-01  0.94984561352E+00  0.93800000000E+00 0. -1.
         22    1    1    2    0    0 -0.16456264109E+00 -0.12765384981E+00  0.24168829731E+01  0.24258399935E+01  0.00000000000E+00 0.  1.
</event>
<event>
 5    1  0.2111786E+001  0.1520110E+01  0.7818608E-02  0.3444916E+00
         11   -1    0    0    0    0  0.00000000000E+00  0.00000000000E+00  0.39999999674E+01  0.40000000000E+01  0.51100000000E-03 0. -1.
    9000002   -1    0    0    0    0 -0.00000000000E+00 -0.00000000000E+00  0.00000000000E+00  0.93800000000E+00  0.93800000000E+00 0.  1.
         11    1    1    2    0    0 -0.89995782944E-01  0.59094359912E-02  0.30871667118E-01  0.95328292406E-01  0.51100000000E-03 0. -1.
    9000002    1    1    2    0    0  0.27858916100E+00 -0.13617223740E+00  0.12969552088E+00  0.99640339572E+00  0.93800000000E+00 0.  1.
         22    1    1    2    0    0 -0.18859337806E+00  0.13026280141E+00  0.38394327794E+01  0.38462683119E+01  0.00000000000E+00 0. -1.
</event>
<event>
 5    1  0.2111786E+001  0.1555949E+01  0.7818608E-02  0.3402608E+00
         11   -1    0    0    0    0  0.00000000000E+00  0.00000000000E+00  0.39999999674E+01  0.40000000000E+01  0.51100000000E-03 0.  1.
    9000002   -1    0    0    0    0 -0.00000000000E+00 -0.00000000000E+00  0.00000000000E+00  0.93800000000E+00  0.93800000000E+00 0.  1.
         11    1    1    2    0    0  0.38031271842E+00 -0.28658598733E+00  0.21872317045E+01  0.22384709250E+01  0.51100000000E-03 0.  1.
    9000002    1    1    2    0    0 -0.23093513913E+00  0.44269609609E+00  0.21113736540E+00  0.10833899847E+01  0.93800000000E+00 0.  1.
         22    1    1    2    0    0 -0.14937757929E+00 -0.15611010877E+00  0.16016308974E+01  0.16161390902E+01  0.00000000000E+00 0.  1.
</event>
<event>
 5    1  0.2111786E+001  0.1550377E+01  0.7818608E-02  0.3409049E+00
         11   -1    0    0    0    0  0.00000000000E+00  0.00000000000E+00  0.39999999674E+01  0.40000000000E+01  0.51100000000E-03 0. -1.
    9000002   -1    0    0    0    0 -0.00000000000E+00 -0.00000000000E+00  0.00000000000E+00  0.93800000000E+00  0.93800000000E+00 0.  1.
         11    1    1    2    0    0 -0.13446550844E-01  0.37058066668E+00  0.16977748651E+01  0.17378005046E+01  0.51100000000E-03 0. -1.
    9000002    1    1    2    0    0 -0.24140268397E+00 -0.30304251073E+00  0.14294574297E+00  0.10248841420E+01  0.93800000000E+00 0.  1.
         22    1    1    2    0    0  0.25484923481E+00 -0.67538155953E-01  0.21592793593E+01  0.21753153534E+01  0.00000000000E+00 0.  1.
</event>
<event>
 5    1  0.2111786E+001  0.1168664E+01  0.7818608E-02  0.4068777E+00
         11   -1    0    0    0    0  0.00000000000E+00  0.00000000000E+00  0.39999999674E+01  0.40000000000E+01  0.51100000000E-03 0. -1.
    9000002   -1    0    0    0    0 -0.00000000000E+00 -0.00000000000E+00  0.00000000000E+00  0.93800000000E+00  0.93800000000E+00 0. -1.
         11    1    1    2    0    0 -0.36188262433E+00 -0.73035027509E+00  0.81768471143E+00  0.11545471435E+01  0.51100000000E-03 0. -1.
    9000002    1    1    2    0    0  0.15801855216E+00  0.35620698154E+00  0.62874242213E+00  0.11945770423E+01  0.93800000000E+00 0. -1.
         22    1    1    2    0    0  0.20386407217E+00  0.37414329355E+00  0.25535728338E+01  0.25888758142E+01  0.00000000000E+00 0. -1.
</event>
<event>
 5    1  0.2111786E+001  0.1495659E+01  0.7818608E-02  0.3475029E+00
         11   -1    0    0    0    0  0.00000000000E+00  0.00000000000E+00  0.39999999674E+01  0.40000000000E+01  0.51100000000E-03 0. -1.
    9000002   -1    0    0    0    0 -0.00000000000E+00 -0.00000000000E+00  0.00000000000E+00  0.93800000000E+00  0.93800000000E+00 0.  1.
         11    1    1    2    0    0 -0.19811451546E+00 -0.23690990874E+00  0.56938326143E+00  0.64774472257E+00  0.51100000000E-03 0. -1.
    9000002    1    1    2    0    0 -0.53299977361E-01  0.29030276038E+00  0.14426435956E+00  0.99386758962E+00  0.93800000000E+00 0.  1.
         22    1    1    2    0    0  0.25141449282E+00 -0.53392851633E-01  0.32863523464E+01  0.32963876878E+01  0.00000000000E+00 0. -1.
</event>
<event>
 5    1  0.2111786E+001  0.1466567E+01  0.7818608E-02  0.3512271E+00
         11   -1    0    0    0    0  0.00000000000E+00  0.00000000000E+00  0.39999999674E+01  0.40000000000E+01  0.51100000000E-03 0. -1.
    9000002   -1    0    0    0    0 -0.00000000000E+00 -0.00000000000E+00  0.00000000000E+00  0.93800000000E+00  0.93800000000E+00 0. -1.
         11    1    1    2    0    0  0.34465859088E+00 -0.32752108707E+00  0.16601257268E+01  0.17268692181E+01  0.51100000000E-03 0. -1.
    9000002    1    1    2    0    0 -0.79491732978E-03  0.14409439534E+00  0.11913377082E+00  0.95645213263E+00  0.93800000000E+00 0. -1.
         22    1    1    2    0    0 -0.34386367355E+00  0.18342669173E+00  0.22207404698E+01  0.22546786492E+01  0.00000000000E+00 0. -1.
</event>
<event>
 5    1  0.2111786E+001  0.1622607E+01  0.7818608E-02  0.3329186E+00
         11   -1    0    0    0    0  0.00000000000E+00  0.00000000000E+00  0.39999999674E+01  0.40000000000E+01  0.51100000000E-03 0.  1.
    9000002   -1    0    0    0    0 -0.00000000000E+00 -0.00000000000E+00  0.00000000000E+00  0.93800000000E+00  0.93800000000E+00 0.  1.
         11    1    1    2    0    0  0.16457135890E+00  0.45662018038E+00  0.32773425793E+00  0.58565836991E+00  0.51100000000E-03 0.  1.
    9000002    1    1    2    0    0  0.31560669230E+00 -0.37054092958E+00  0.54834546379E+00  0.11905607554E+01  0.93800000000E+00 0.  1.
         22    1    1    2    0    0 -0.48017805120E+00 -0.86079250802E-01  0.31239202456E+01  0.31617808747E+01  0.00000000000E+00 0.  1.
</event>
<event>
 5    1  0.3157648E+001  0.1565525E+01  0.7818608E-02  0.3391653E+00
         11   -1    0    0    0    0  0.00000000000E+00  0.00000000000E+00  0.39999999674E+01  0.40000000000E+01  0.51100000000E-03 0. -1.
    9000002   -1    0    0    0    0 -0.00000000000E+00 -0.00000000000E+00  0.00000000000E+00  0.93800000000E+00  0.93800000000E+00 0. -1.
         11    1    1    2    0    0 -0.14651391765E+00 -0.11322860768E+00  0.95691988852E+00  0.97467070328E+00  0.51100000000E-03 0. -1.
    9000002    1    1    2    0    0 -0.50573005211E-02 -0.29285725175E-01  0.25738414306E-01  0.93882357020E+00  0.93800000000E+00 0. -1.
         22    1    1    2    0    0  0.15157121817E+00  0.14251433285E+00  0.30173416645E+01  0.30245057265E+01  0.00000000000E+00 0. -1.
</event>
<event>
 5    1  0.2111786E+001  0.1547809E+01  0.7818608E-02  0.3412034E+00
         11   -1    0    0    0    0  0.00000000000E+00  0.00000000000E+00  0.39999999674E+01  0.40000000000E+01  0.51100000000E-03 0.  1.
    9000002   -1    0    0    0    0 -0.00000000000E+00 -0.00000000000E+00  0.00000000000E+00  0.93800000000E+00  0.93800000000E+00 0. -1.
         11    1    1    2    0    0 -0.24305740129E+00 -0.48228661873E-01  0.98308585575E+00  0.10138347819E+01  0.51100000000E-03 0.  1.
    9000002    1    1    2    0    0  0.40061127963E-01  0.68184466021E-02  0.39665962155E-01  0.93971739036E+00  0.93800000000E+00 0. -1.
         22    1    1    2    0    0  0.20299627333E+00  0.41410215271E-01  0.29772481495E+01  0.29844478277E+01  0.00000000000E+00 0.  1.
</event>
<event>
 5    1  0.2111786E+001  0.1518041E+01  0.7818608E-02  0.3447423E+00
         11   -1    0    0    0    0  0.00000000000E+00  0.00000000000E+00  0.39999999674E+01  0.40000000000E+01  0.51100000000E-03 0. -1.
    9000002   -1    0    0    0    0 -0.00000000000E+00 -0.00000000000E+00  0.00000000000E+00  0.93800000000E+00  0.93800000000E+00 0. -1.
         11    1    1    2    0    0 -0.31862382615E+00  0.43871117358E+00  0.27271431457E+01  0.27805212883E+01  0.51100000000E-03 0. -1.
    9000002    1    1    2    0    0  0.22958914513E+00 -0.23706422066E+00  0.14094178524E+00  0.10043003570E+01  0.93800000000E+00 0. -1.
         22    1    1    2    0    0  0.89034681023E-01 -0.20164695292E+00  0.11319150364E+01  0.11531783547E+01  0.00000000000E+00 0. -1.
</event>
<event>
 5    1  0.2111786E+001  0.1543977E+01  0.7818608E-02  0.3416508E+00
         11   -1    0    0    0    0  0.00000000000E+00  0.00000000000E+00  0.39999999674E+01  0.40000000000E+01  0.51100000000E-03 0.  1.
    9000002   -1    0    0    0    0 -0.00000000000E+00 -0.00000000000E+00  0.00000000000E+00  0.93800000000E+00  0.93800000000E+00 0.  1.
         11    1    1    2    0    0  0.10588373434E+00  0.15327272658E+00  0.48602483484E+00  0.52050388578E+00  0.51100000000E-03 0.  1.
    9000002    1    1    2    0    0  0.71545025296E-02  0.19041563442E-01  0.41737721762E-01  0.93914844698E+00  0.93800000000E+00 0.  1.
         22    1    1    2    0    0 -0.11303823687E+00 -0.17231429002E+00  0.34722374108E+01  0.34783476672E+01  0.00000000000E+00 0.  1.
</event>
<event>
 5    1  0.2111786E+001  0.1524062E+01  0.7818608E-02  0.3440145E+00
         11   -1    0    0    0    0  0.00000000000E+00  0.00000000000E+00  0.39999999674E+01  0.40000000000E+01  0.51100000000E-03 0. -1.
    9000002   -1    0    0    0    0 -0.00000000000E+00 -0.00000000000E+00  0.00000000000E+00  0.93800000000E+00  0.93800000000E+00 0. -1.
         11    1    1    2    0    0  0.21488165191E+00 -0.19137082841E+00  0.13144172522E+01  0.13455444594E+01  0.51100000000E-03 0. -1.
    9000002    1    1    2    0    0  0.33641578824E-01 -0.71978084472E-01  0.61346956976E-01  0.94335573863E+00  0.93800000000E+00 0. -1.
         22    1    1    2    0    0 -0.24852323074E+00  0.26334891288E+00  0.26242357582E+01  0.26490998020E+01  0.00000000000E+00 0. -1.
</event>
<event>
 5    1  0.2111786E+001  0.1555634E+01  0.7818608E-02  0.3402970E+00
         11   -1    0    0    0    0  0.00000000000E+00  0.00000000000E+00  0.39999999674E+01  0.40000000000E+01  0.51100000000E-03 0.  1.
    9000002   -1    0    0    0    0 -0.00000000000E+00 -0.00000000000E+00  0.00000000000E+00  0.93800000000E+00  0.93800000000E+00 0. -1.
         11    1    1    2    0    0 -0.61121029476E-01 -0.17718867373E+00  0.87582570673E+00  0.89565759978E+00  0.51100000000E-03 0.  1.
    9000002    1    1    2    0    0 -0.16732567374E-01 -0.10184352534E+00  0.39911182263E-01  0.94450462409E+00  0.93800000000E+00 0. -1.
         22    1    1    2    0    0  0.77853596850E-01  0.27903219907E+00  0.30842630784E+01  0.30978377761E+01  0.00000000000E+00 0.  1.
</event>
<event>
 5    1  0.2111786E+001  0.1377876E+01  0.7818608E-02  0.3643004E+00
         11   -1    0    0    0    0  0.00000000000E+00  0.00000000000E+00  0.39999999674E+01  0.40000000000E+01  0.51100000000E-03 0.  1.
    9000002   -1    0    0    0    0 -0.00000000000E+00 -0.00000000000E+00  0.00000000000E+00  0.93800000000E+00  0.93800000000E+00 0. -1.
         11    1    1    2    0    0 -0.65487781059E+00 -0.22601324848E+00  0.19171982988E+01  0.20385280262E+01  0.51100000000E-03 0.  1.
    9000002    1    1    2    0    0  0.29308137644E+00 -0.64450615854E-01  0.26003633581E+00  0.10185840520E+01  0.93800000000E+00 0. -1.
         22    1    1    2    0    0  0.36179643416E+00  0.29046386434E+00  0.18227653327E+01  0.18808879218E+01  0.00000000000E+00 0. -1.
</event>
<event>
 5    1  0.2111786E+001  0.1580250E+01  0.7818608E-02  0.3375083E+00
         11   -1    0    0    0    0  0.00000000000E+00  0.00000000000E+00  0.39999999674E+01  0.40000000000E+01  0.51100000000E-03 0.  1.
    9000002   -1    0    0    0    0 -0.00000000000E+00 -0.00000000000E+00  0.00000000000E+00  0.93800000000E+00  0.93800000000E+00 0. -1.
         11    1    1    2    0    0  0.13331979551E+00  0.11558308472E-01  0.11732723559E+01  0.11808793523E+01  0.51100000000E-03 0.  1.
    9000002    1    1    2    0    0  0.66304911543E-01 -0.57499457128E-01  0.19366271457E-01  0.94229590965E+00  0.93800000000E+00 0. -1.
         22    1    1    2    0    0 -0.19962470706E+00  0.45941148657E-01  0.28073613400E+01  0.28148247381E+01  0.00000000000E+00 0.  1.
</event>
<event>
 5    1  0.2111786E+001  0.1568668E+01  0.7818608E-02  0.3388089E+00
         11   -1    0    0    0    0  0.00000000000E+00  0.00000000000E+00  0.39999999674E+01  0.40000000000E+01  0.51100000000E-03 0.  1.
    9000002   -1    0    0    0    0 -0.00000000000E+00 -0.00000000000E+00  0.00000000000E+00  0.93800000000E+00  0.93800000000E+00 0. -1.
         11    1    1    2    0    0 -0.53795114693E-01 -0.47644489214E-01  0.30419787777E+01  0.30428274773E+01  0.51100000000E-03 0.  1.
    9000002    1    1    2    0    0 -0.62537230212E-01 -0.13120830513E+00  0.37164470401E-01  0.94992195593E+00  0.93800000000E+00 0. -1.
         22    1    1    2    0    0  0.11633234490E+00  0.17885279434E+00  0.92085671930E+00  0.94525056678E+00  0.00000000000E+00 0.  1.
</event>
<event>
 5    1  0.3349390E+001  0.1567845E+01  0.7818608E-02  0.3389020E+00
         11   -1    0    0    0    0  0.00000000000E+00  0.00000000000E+00  0.39999999674E+01  0.40000000000E+01  0.51100000000E-03 0. -1.
    9000002   -1    0    0    0    0 -0.00000000000E+00 -0.00000000000E+00  0.00000000000E+00  0.93800000000E+00  0.93800000000E+00 0. -1.
         11    1    1    2    0    0 -0.19371722091E+00  0.82818018138E-01  0.19503750484E+01  0.19617207438E+01  0.51100000000E-03 0. -1.
    9000002    1    1    2    0    0  0.17573923204E-02  0.23213546952E-01  0.23770365407E-01  0.93858989312E+00  0.93800000000E+00 0. -1.
         22    1    1    2    0    0  0.19195982859E+00 -0.10603156509E+00  0.20258545535E+01  0.20376893631E+01  0.00000000000E+00 0. -1.
</event>
<event>
 5    1  0.2111786E+001  0.1543743E+01  0.7818608E-02  0.3416781E+00
         11   -1    0    0    0    0  0.00000000000E+00  0.00000000000E+00  0.39999999674E+01  0.40000000000E+01  0.51100000000E-03 0.  1.
    9000002   -1    0    0    0    0 -0.00000000000E+00 -0.00000000000E+00  0.00000000000E+00  0.93800000000E+00  0.93800000000E+00 0.  1.
         11    1    1    2    0    0  0.23251803140E+00  0.74769586602E-01  0.12578916061E+01  0.12813846729E+01  0.51100000000E-03 0.  1.
    9000002    1    1    2    0    0  0.83790440188E-01 -0.56866851181E-01  0.48772579309E-01  0.94471024189E+00  0.93800000000E+00 0.  1.
         22    1    1    2    0    0 -0.31630847159E+00 -0.17902735421E-01  0.26933357819E+01  0.27119050853E+01  0.00000000000E+00 0.  1.
</event>
<event>
 5    1  0.2111786E+001  0.1565420E+01  0.7818608E-02  0.3391772E+00
         11   -1    0    0    0    0  0.00000000000E+00  0.00000000000E+00  0.39999999674E+01  0.40000000000E+01  0.51100000000E-03 0.  1.
    9000002   -1    0    0    0    0 -0.00000000000E+00 -0.00000000000E+00  0.00000000000E+00  0.93800000000E+00  0.93800000000E+00 0. -1.
         11    1    1    2    0    0 -0.13715414373E+00  0.46415055569E-01  0.53212117504E+00  0.55146969325E+00  0.51100000000E-03 0.  1.
    9000002    1    1    2    0    0 -0.83656562840E-01 -0.79327470910E-01  0.34278401978E-01  0.94567979623E+00  0.93800000000E+00 0. -1.
         22    1    1    2    0    0  0.22081070657E+00  0.32912415341E-01  0.34336003903E+01  0.34408505105E+01  0.00000000000E+00 0.  1.
</event>
<event>
 5    1  0.2111786E+001  0.1580649E+01  0.7818608E-02  0.3374638E+00
         11   -1    0    0    0    0  0.00000000000E+00  0.00000000000E+00  0.39999999674E+01  0.40000000000E+01  0.51100000000E-03 0. -1.
    9000002   -1    0    0    0    0 -0.00000000000E+00 -0.00000000000E+00  0.00000000000E+00  0.93800000000E+00  0.93800000000E+00 0. -1.
         11    1    1    2    0    0 -0.65266300090E-01  0.96724019709E-01  0.63319144984E+00  0.64385316586E+00  0.51100000000E-03 0. -1.
    9000002    1    1    2    0    0  0.30501412043E+00  0.15255047376E+00  0.93306149181E-01  0.10024247095E+01  0.93800000000E+00 0. -1.
         22    1    1    2    0    0 -0.23974782034E+00 -0.24927449347E+00  0.32735023683E+01  0.32917221247E+01  0.00000000000E+00 0. -1.
</event>
<event>
 5    1  0.2111786E+001  0.1458638E+01  0.7818608E-02  0.3522700E+00
         11   -1    0    0    0    0  0.00000000000E+00  0.00000000000E+00  0.39999999674E+01  0.40000000000E+01  0.51100000000E-03 0. -1.
    9000002   -1    0    0    0    0 -0.00000000000E+00 -0.00000000000E+00  0.00000000000E+00  0.93800000000E+00  0.93800000000E+00 0. -1.
         11    1    1    2    0    0 -0.22331085937E+00  0.60989233705E+00  0.30051917426E+01  0.30745754299E+01  0.51100000000E-03 0. -1.
    9000002    1    1    2    0    0  0.89631989554E-03 -0.40336413028E+00  0.23857214819E+00  0.10485533343E+01  0.93800000000E+00 0. -1.
         22    1    1    2    0    0  0.22241453948E+00 -0.20652820677E+00  0.75623607652E+00  0.81487123584E+00  0.00000000000E+00 0. -1.
</event>
<event>
 5    1  0.2111786E+001  0.1447424E+01  0.7818608E-02  0.3537664E+00
         11   -1    0    0    0    0  0.00000000000E+00  0.00000000000E+00  0.39999999674E+01  0.40000000000E+01  0.51100000000E-03 0. -1.
    9000002   -1    0    0    0    0 -0.00000000000E+00 -0.00000000000E+00  0.00000000000E+00  0.93800000000E+00  0.93800000000E+00 0.  1.
         11    1    1    2    0    0 -0.48477105023E+00  0.10019277302E-01  0.20103036229E+01  0.20679517099E+01  0.51100000000E-03 0. -1.
    9000002    1    1    2    0    0  0.38013141129E-01  0.10008856181E+00  0.12847171648E+00  0.95279153073E+00  0.93800000000E+00 0.  1.
         22    1    1    2    0    0  0.44675790910E+00 -0.11010783911E+00  0.18612246280E+01  0.19172567594E+01  0.00000000000E+00 0.  1.
</event>
<event>
 5    1  0.2111786E+001  0.1584843E+01  0.7818608E-02  0.3369981E+00
         11   -1    0    0    0    0  0.00000000000E+00  0.00000000000E+00  0.39999999674E+01  0.40000000000E+01  0.51100000000E-03 0. -1.
    9000002   -1    0    0    0    0 -0.00000000000E+00 -0.00000000000E+00  0.00000000000E+00  0.93800000000E+00  0.93800000000E+00 0.  1.
         11    1    1    2    0    0 -0.26030083088E+00 -0.41174923793E+00  0.66620134084E+00  0.82529900349E+00  0.51100000000E-03 0. -1.
    9000002    1    1    2    0    0 -0.18391417674E+00 -0.32576222623E-01  0.28232226891E+00  0.99721386784E+00  0.93800000000E+00 0.  1.
         22    1    1    2    0    0  0.44421500762E+00  0.44432546055E+00  0.30514763576E+01  0.31154871287E+01  0.00000000000E+00 0. -1.
</event>
<event>
 5    1  0.2111786E+001  0.1568803E+01  0.7818608E-02  0.3387935E+00
         11   -1    0    0    0    0  0.00000000000E+00  0.00000000000E+00  0.39999999674E+01  0.40000000000E+01  0.51100000000E-03 0. -1.
    9000002   -1    0    0    0    0 -0.00000000000E+00 -0.00000000000E+00  0.00000000000E+00  0.93800000000E+00  0.93800000000E+00 0. -1.
         11    1    1    2    0    0  0.21904837621E+00 -0.10772376671E-01  0.14594701903E+01  0.14758562710E+01  0.51100000000E-03 0. -1.
    9000002    1    1    2    0    0 -0.71940242446E-01  0.21414705943E+00  0.57577607824E-01  0.96653688107E+00  0.93800000000E+00 0. -1.
         22    1    1    2    0    0 -0.14710813377E+00 -0.20337468276E+00  0.24829521693E+01  0.24956068479E+01  0.00000000000E+00 0. -1.
</event>
<event>
 5    1  0.2111786E+001  0.1555170E+01  0.7818608E-02  0.3403506E+00
         11   -1    0    0    0    0  0.00000000000E+00  0.00000000000E+00  0.39999999674E+01  0.40000000000E+01  0.51100000000E-03 0. -1.
    9000002   -1    0    0    0    0 -0.00000000000E+00 -0.00000000000E+00  0.00000000000E+00  0.93800000000E+00  0.93800000000E+00 0.  1.
         11    1    1    2    0    0 -0.19169766981E+00  0.10851973873E+00  0.31381806016E+01  0.31459024587E+01  0.51100000000E-03 0. -1.
    9000002    1    1    2    0    0  0.11225616025E-01 -0.14017288668E-01  0.33152732954E-01  0.93875747802E+00  0.93800000000E+00 0.  1.
         22    1    1    2    0    0  0.18047205378E+00 -0.94502450059E-01  0.82866663278E+00  0.85334006325E+00  0.00000000000E+00 0. -1.
</event>
<event>
 5    1  0.2111786E+001  0.1582303E+01  0.7818608E-02  0.3372798E+00
         11   -1    0    0    0    0  0.00000000000E+00  0.00000000000E+00  0.39999999674E+01  0.40000000000E+01  0.51100000000E-03 0. -1.
    9000002   -1    0    0    0    0 -0.00000000000E+00 -0.00000000000E+00  0.00000000000E+00  0.93800000000E+00  0.93800000000E+00 0. -1.
         11    1    1    2    0    0 -0.17260999523E+00 -0.52930025975E-01  0.68213727986E+00  0.70562548692E+00  0.51100000000E-03 0. -1.
    9000002    1    1    2    0    0  0.28717412357E+00  0.28665068751E+00  0.12579440443E+00  0.10297115257E+01  0.93800000000E+00 0. -1.
         22    1    1    2    0    0 -0.11456412834E+00 -0.23372066154E+00  0.31920682831E+01  0.32026629874E+01  0.00000000000E+00 0. -1.
</event>
<event>
 5    1  0.2111786E+001  0.1549742E+01  0.7818608E-02  0.3409786E+00
         11   -1    0    0    0    0  0.00000000000E+00  0.00000000000E+00  0.39999999674E+01  0.40000000000E+01  0.51100000000E-03 0. -1.
    9000002   -1    0    0    0    0 -0.00000000000E+00 -0.00000000000E+00  0.00000000000E+00  0.93800000000E+00  0.93800000000E+00 0.  1.
         11    1    1    2    0    0 -0.19210640160E+00 -0.81914065350E-01  0.14276934447E+01  0.14428872502E+01  0.51100000000E-03 0. -1.
    9000002    1    1    2    0    0 -0.14899013620E+00  0.79119645166E-02  0.52493385331E-01  0.95124140751E+00  0.93800000000E+00 0.  1.
         22    1    1    2    0    0  0.34109653780E+00  0.74002100834E-01  0.25198131373E+01  0.25438713423E+01  0.00000000000E+00 0. -1.
</event>
<event>
 5    1  0.2111786E+001  0.1409678E+01  0.7818608E-02  0.3591487E+00
         11   -1    0    0    0    0  0.00000000000E+00  0.00000000000E+00  0.39999999674E+01  0.40000000000E+01  0.51100000000E-03 0.  1.
    9000002   -1    0    0    0    0 -0.00000000000E+00 -0.00000000000E+00  0.00000000000E+00  0.93800000000E+00  0.93800000000E+00 0. -1.
         11    1    1    2    0    0  0.41635827731E+00 -0.33075147281E+00  0.19416951478E+01  0.20131892757E+01  0.51100000000E-03 0.  1.
    9000002    1    1    2    0    0 -0.12550376604E+00 -0.11303520696E+00  0.17606552055E+00  0.96921164914E+00  0.93800000000E+00 0. -1.
         22    1    1    2    0    0 -0.29085451127E+00  0.44378667977E+00  0.18822392990E+01  0.19555990752E+01  0.00000000000E+00 0.  1.
</event>
<event>
 5    1  0.2111786E+001  0.1435816E+01  0.7818608E-02  0.3553422E+00
         11   -1    0    0    0    0  0.00000000000E+00  0.00000000000E+00  0.39999999674E+01  0.40000000000E+01  0.51100000000E-03 0. -1.
    9000002   -1    0    0    0    0 -0.00000000000E+00 -0.00000000000E+00  0.00000000000E+00  0.93800000000E+00  0.93800000000E+00 0.  1.
         11    1    1    2    0    0  0.48152683468E-01  0.57089902460E+00  0.21028528534E+01  0.21795033291E+01  0.51100000000E-03 0. -1.
    9000002    1    1    2    0    0 -0.14001826942E+00 -0.15851183227E+00  0.16504343085E+00  0.97560978409E+00  0.93800000000E+00 0.  1.
         22    1    1    2    0    0  0.91865585955E-01 -0.41238719233E+00  0.17321036831E+01  0.17828868868E+01  0.00000000000E+00 0. -1.
</event>
<event>
 5    1  0.2111786E+001  0.1549106E+01  0.7818608E-02  0.3410524E+00
         11   -1    0    0    0    0  0.00000000000E+00  0.00000000000E+00  0.39999999674E+01  0.40000000000E+01  0.51100000000E-03 0. -1.
    9000002   -1    0    0    0    0 -0.00000000000E+00 -0.00000000000E+00  0.00000000000E+00  0.93800000000E+00  0.93800000000E+00 0.  1.
         11    1    1    2    0    0 -0.22201229793E+00 -0.48136487001E-01  0.12356665809E+01  0.12563752394E+01  0.51100000000E-03 0. -1.
    9000002    1    1    2    0    0 -0.69383579321E-01 -0.37649299211E-01  0.41847875901E-01  0.94224561316E+00  0.93800000000E+00 0.  1.
         22    1    1    2    0    0  0.29139587725E+00  0.85785786212E-01  0.27224855106E+01  0.27393791475E+01  0.00000000000E+00 0. -1.
</event>
<event>
 5    1  0.2111786E+001  0.1586709E+01  0.7818608E-02  0.3367917E+00
         11   -1    0    0    0    0  0.00000000000E+00  0.00000000000E+00  0.39999999674E+01  0.40000000000E+01  0.51100000000E-03 0. -1.
    9000002   -1    0    0    0    0 -0.00000000000E+00 -0.00000000000E+00  0.00000000000E+00  0.93800000000E+00  0.93800000000E+00 0.  1.
         11    1    1    2    0    0 -0.44680800641E+00 -0.81024877011E-01  0.27480457073E+00  0.53077324584E+00  0.51100000000E-03 0. -1.
    9000002    1    1    2    0    0  0.46442989600E+00 -0.13978056905E+00  0.48941742740E+00  0.11638759187E+01  0.93800000000E+00 0.  1.
         22    1    1    2    0    0 -0.17621889587E-01  0.22080544606E+00  0.32357779692E+01  0.32433508355E+01  0.00000000000E+00 0. -1.
</event>
<event>
 5    1  0.2111786E+001  0.1578034E+01  0.7818608E-02  0.3377555E+00
         11   -1    0    0    0    0  0.00000000000E+00  0.00000000000E+00  0.39999999674E+01  0.40000000000E+01  0.51100000000E-03 0.  1.
    9000002   -1    0    0    0    0 -0.00000000000E+00 -0.00000000000E+00  0.00000000000E+00  0.93800000000E+00  0.93800000000E+00 0.  1.
         11    1    1    2    0    0  0.10157701822E+00 -0.88890213868E-01  0.23152565392E+01  0.23191878889E+01  0.51100000000E-03 0.  1.
    9000002    1    1    2    0    0  0.28836473280E-01 -0.68164481939E-01  0.19515454089E-01  0.94111784158E+00  0.93800000000E+00 0.  1.
         22    1    1    2    0    0 -0.13041349150E+00  0.15705469581E+00  0.16652279741E+01  0.16776942695E+01  0.00000000000E+00 0.  1.
</event>
<event>
 5    1  0.2111786E+001  0.1494447E+01  0.7818608E-02  0.3476548E+00
         11   -1    0    0    0    0  0.00000000000E+00  0.00000000000E+00  0.39999999674E+01  0.40000000000E+01  0.51100000000E-03 0.  1.
    9000002   -1    0    0    0    0 -0.00000000000E+00 -0.00000000000E+00  0.00000000000E+00  0.93800000000E+00  0.93800000000E+00 0.  1.
         11    1    1    2    0    0 -0.17003975702E+00 -0.24968694886E+00  0.35446916955E+01  0.35575408035E+01  0.51100000000E-03 0.  1.
    9000002    1    1    2    0    0 -0.15808768633E-01  0.11549627598E+00  0.90406313588E-01  0.94952967751E+00  0.93800000000E+00 0.  1.
         22    1    1    2    0    0  0.18584852566E+00  0.13419067289E+00  0.36490195828E+00  0.43092951899E+00  0.00000000000E+00 0.  1.
</event>
<event>
 5    1  0.2111786E+001  0.1547569E+01  0.7818608E-02  0.3412313E+00
         11   -1    0    0    0    0  0.00000000000E+00  0.00000000000E+00  0.39999999674E+01  0.40000000000E+01  0.51100000000E-03 0. -1.
    9000002   -1    0    0    0    0 -0.00000000000E+00 -0.00000000000E+00  0.00000000000E+00  0.93800000000E+00  0.93800000000E+00 0. -1.
         11    1    1    2    0    0 -0.49610963341E-02  0.14210522907E+00  0.29495365536E+01  0.29529620130E+01  0.51100000000E-03 0. -1.
    9000002    1    1    2    0    0  0.24315193238E+00  0.23250389275E-01  0.80451561856E-01  0.97261497862E+00  0.93800000000E+00 0. -1.
         22    1    1    2    0    0 -0.23819083605E+00 -0.16535561835E+00  0.97001185195E+00  0.10124230083E+01  0.00000000000E+00 0.  1.
</event>
<event>
 5    1  0.2111786E+001  0.1554021E+01  0.7818608E-02  0.3404831E+00
         11   -1    0    0    0    0  0.00000000000E+00  0.00000000000E+00  0.39999999674E+01  0.40000000000E+01  0.51100000000E-03 0. -1.
    9000002   -1    0    0    0    0 -0.00000000000E+00 -0.00000000000E+00  0.00000000000E+00  0.93800000000E+00  0.93800000000E+00 0. -1.
         11    1    1    2    0    0  0.16785842076E+00 -0.14784910100E+00  0.10979933630E+01  0.11205469613E+01  0.51100000000E-03 0. -1.
    9000002    1    1    2    0    0 -0.17801553121E-02 -0.38268784671E-01  0.34810962848E-01  0.93942720419E+00  0.93800000000E+00 0. -1.
         22    1    1    2    0    0 -0.16607826544E+00  0.18611788567E+00  0.28671956415E+01  0.28780258345E+01  0.00000000000E+00 0. -1.
</event>
<event>
 5    1  0.2111786E+001  0.1559493E+01  0.7818608E-02  0.3398537E+00
         11   -1    0    0    0    0  0.00000000000E+00  0.00000000000E+00  0.39999999674E+01  0.40000000000E+01  0.51100000000E-03 0. -1.
    9000002   -1    0    0    0    0 -0.00000000000E+00 -0.00000000000E+00  0.00000000000E+00  0.93800000000E+00  0.93800000000E+00 0.  1.
         11    1    1    2    0    0 -0.10439552778E+00 -0.12917186748E+00  0.25620126967E+01  0.25673903319E+01  0.51100000000E-03 0. -1.
    9000002    1    1    2    0    0 -0.60657242045E-01 -0.80219747130E-01  0.36601229060E-01  0.94408588529E+00  0.93800000000E+00 0.  1.
         22    1    1    2    0    0  0.16505276983E+00  0.20939161461E+00  0.14013860416E+01  0.14265237828E+01  0.00000000000E+00 0. -1.
</event>
<event>
 5    1  0.2111786E+001  0.1529798E+01  0.7818608E-02  0.3433270E+00
         11   -1    0    0    0    0  0.00000000000E+00  0.00000000000E+00  0.39999999674E+01  0.40000000000E+01  0.51100000000E-03 0.  1.
    9000002   -1    0    0    0    0 -0.00000000000E+00 -0.00000000000E+00  0.00000000000E+00  0.93800000000E+00  0.93800000000E+00 0.  1.
         11    1    1    2    0    0  0.56365606152E-01  0.37213575920E+00  0.16428574127E+01  0.16854206728E+01  0.51100000000E-03 0.  1.
    9000002    1    1    2    0    0  0.76088196489E-01 -0.16797648950E+00  0.76523600388E-01  0.95901270903E+00  0.93800000000E+00 0.  1.
         22    1    1    2    0    0 -0.13245380264E+00 -0.20415926969E+00  0.22806189543E+01  0.22935666181E+01  0.00000000000E+00 0.  1.
</event>
<event>
 5    1  0.2111786E+001  0.1531313E+01  0.7818608E-02  0.3431463E+00
         11   -1    0    0    0    0  0.00000000000E+00  0.00000000000E+00  0.39999999674E+01  0.40000000000E+01  0.51100000000E-03 0. -1.
    9000002   -1    0    0    0    0 -0.00000000000E+00 -0.00000000000E+00  0.00000000000E+00  0.93800000000E+00  0.93800000000E+00 0.  1.
         11    1    1    2    0    0  0.87248419056E-01  0.21292123598E+00  0.30992553214E+01  0.31077856341E+01  0.51100000000E-03 0. -1.
    9000002    1    1    2    0    0  0.32244669464E-01  0.27692468947E-01  0.52484137854E-01  0.94042818773E+00  0.93800000000E+00 0.  1.
         22    1    1    2    0    0 -0.11949308852E+00 -0.24061370493E+00  0.84826050810E+00  0.88978617814E+00  0.00000000000E+00 0. -1.
</event>
<event>
 5    1  0.2425407E+001  0.1566218E+01  0.7818608E-02  0.3390866E+00
         11   -1    0    0    0    0  0.00000000000E+00  0.00000000000E+00  0.39999999674E+01  0.40000000000E+01  0.51100000000E-03 0.  1.
    9000002   -1    0    0    0    0 -0.00000000000E+00 -0.00000000000E+00  0.00000000000E+00  0.93800000000E+00  0.93800000000E+00 0. -1.
         11    1    1    2    0    0 -0.16885144643E+00  0.91942703739E-01  0.26921931749E+01  0.26990495779E+01  0.51100000000E-03 0.  1.
    9000002    1    1    2    0    0 -0.12242555212E-01  0.19558048850E-01  0.24981194821E-01  0.93861624615E+00  0.93800000000E+00 0. -1.
         22    1    1    2    0    0  0.18109400165E+00 -0.11150075259E+00  0.12828255977E+01  0.13003341760E+01  0.00000000000E+00 0. -1.
</event>
<event>
 5    1  0.2111786E+001  0.1541746E+01  0.7818608E-02  0.3419123E+00
         11   -1    0    0    0    0  0.00000000000E+00  0.00000000000E+00  0.39999999674E+01  0.40000000000E+01  0.51100000000E-03 0.  1.
    9000002   -1    0    0    0    0 -0.00000000000E+00 -0.00000000000E+00  0.00000000000E+00  0.93800000000E+00  0.93800000000E+00 0. -1.
         11    1    1    2    0    0  0.11123425731E+00 -0.11247593611E+00  0.34409620070E+00  0.37871671822E+00  0.51100000000E-03 0.  1.
    9000002    1    1    2    0    0  0.15583928471E+00  0.28524643538E-01  0.60725633545E-01  0.95322145408E+00  0.93800000000E+00 0. -1.
         22    1    1    2    0    0 -0.26707354202E+00  0.83951292568E-01  0.35951781331E+01  0.36060618277E+01  0.00000000000E+00 0.  1.
</event>
<event>
 5    1  0.2111786E+001  0.1497963E+01  0.7818608E-02  0.3472146E+00
         11   -1    0    0    0    0  0.00000000000E+00  0.00000000000E+00  0.39999999674E+01  0.40000000000E+01  0.51100000000E-03 0. -1.
    9000002   -1    0    0    0    0 -0.00000000000E+00 -0.00000000000E+00  0.00000000000E+00  0.93800000000E+00  0.93800000000E+00 0. -1.
         11    1    1    2    0    0  0.84367325771E-01  0.32172269044E+00  0.82369559402E+00  0.88831189788E+00  0.51100000000E-03 0. -1.
    9000002    1    1    2    0    0 -0.41673968194E-01 -0.68329065906E-01  0.82264391940E-01  0.94499577303E+00  0.93800000000E+00 0. -1.
         22    1    1    2    0    0 -0.42693357577E-01 -0.25339362453E+00  0.30940399814E+01  0.31046923291E+01  0.00000000000E+00 0. -1.
</event>
<event>
 5    1  0.2111786E+001  0.1579755E+01  0.7818608E-02  0.3375634E+00
         11   -1    0    0    0    0  0.00000000000E+00  0.00000000000E+00  0.39999999674E+01  0.40000000000E+01  0.51100000000E-03 0.  1.
    9000002   -1    0    0    0    0 -0.00000000000E+00 -0.00000000000E+00  0.00000000000E+00  0.93800000000E+00  0.93800000000E+00 0.  1.
         11    1    1    2    0    0  0.12034257325E+00  0.67118025904E-01  0.40436443934E+00  0.42719787601E+00  0.51100000000E-03 0.  1.
    9000002    1    1    2    0    0 -0.38738501976E+00  0.16475553104E-01  0.11787311711E+00  0.10218006993E+01  0.93800000000E+00 0.  1.
         22    1    1    2    0    0  0.26704244651E+00 -0.83593579009E-01  0.34777624109E+01  0.34890014247E+01  0.00000000000E+00 0.  1.
</event>
<event>
 5    1  0.2111786E+001  0.1495296E+01  0.7818608E-02  0.3475483E+00
         11   -1    0    0    0    0  0.00000000000E+00  0.00000000000E+00  0.39999999674E+01  0.40000000000E+01  0.51100000000E-03 0.  1.
    9000002   -1    0    0    0    0 -0.00000000000E+00 -0.00000000000E+00  0.00000000000E+00  0.93800000000E+00  0.93800000000E+00 0. -1.
         11    1    1    2    0    0 -0.36485830691E+00  0.14022879030E+00  0.13610491281E+01  0.14160652132E+01  0.51100000000E-03 0.  1.
    9000002    1    1    2    0    0  0.96055061348E-01  0.78848338088E-01  0.91075347858E-01  0.95056948942E+00  0.93800000000E+00 0. -1.
         22    1    1    2    0    0  0.26880324556E+00 -0.21907712839E+00  0.25478754914E+01  0.25713652974E+01  0.00000000000E+00 0.  1.
</event>
<event>
 5    1  0.2111786E+001  0.1533030E+01  0.7818608E-02  0.3429420E+00
         11   -1    0    0    0    0  0.00000000000E+00  0.00000000000E+00  0.39999999674E+01  0.40000000000E+01  0.51100000000E-03 0.  1.
    9000002   -1    0    0    0    0 -0.00000000000E+00 -0.00000000000E+00  0.00000000000E+00  0.93800000000E+00  0.93800000000E+00 0.  1.
         11    1    1    2    0    0 -0.11122191500E+00  0.26827630665E+00  0.10725871376E+01  0.11112092152E+01  0.51100000000E-03 0.  1.
    9000002    1    1    2    0    0  0.17926339435E+00  0.92014358333E-02  0.72663281323E-01  0.95778075958E+00  0.93800000000E+00 0.  1.
         22    1    1    2    0    0 -0.68041479341E-01 -0.27747774248E+00  0.28547495484E+01  0.28690100252E+01  0.00000000000E+00 0.  1.
</event>
<event>
 5    1  0.2111786E+001  0.1594679E+01  0.7818608E-02  0.3359159E+00
         11   -1    0    0    0    0  0.00000000000E+00  0.00000000000E+00  0.39999999674E+01  0.40000000000E+01  0.51100000000E-03 0.  1.
    9000002   -1    0    0    0    0 -0.00000000000E+00 -0.00000000000E+00  0.00000000000E+00  0.93800000000E+00  0.93800000000E+00 0. -1.
         11    1    1    2    0    0  0.20176765871E-01 -0.90839121922E-01  0.14292033607E+01  0.14322295051E+01  0.51100000000E-03 0.  1.
    9000002    1    1    2    0    0  0.16190570094E+00  0.19013494687E+00  0.45256358647E-01  0.97172881609E+00  0.93800000000E+00 0. -1.
         22    1    1    2    0    0 -0.18208246681E+00 -0.99295824948E-01  0.25255402480E+01  0.25340416788E+01  0.00000000000E+00 0.  1.
</event>
<event>
 5    1  0.2111786E+001  0.1486630E+01  0.7818608E-02  0.3486418E+00
         11   -1    0    0    0    0  0.00000000000E+00  0.00000000000E+00  0.39999999674E+01  0.40000000000E+01  0.51100000000E-03 0.  1.
    9000002   -1    0    0    0    0 -0.00000000000E+00 -0.00000000000E+00  0.00000000000E+00  0.93800000000E+00  0.93800000000E+00 0.  1.
         11    1    1    2    0    0  0.10205411003E+00 -0.55088819479E+00  0.27288100523E+01  0.27857310364E+01  0.51100000000E-03 0.  1.
    9000002    1    1    2    0    0 -0.19664729667E+00  0.26158338430E+00  0.16761631481E+00  0.10074895807E+01  0.93800000000E+00 0.  1.
         22    1    1    2    0    0  0.94593186638E-01  0.28930481049E+00  0.11035736002E+01  0.11447793829E+01  0.00000000000E+00 0.  1.
</event>
<event>
 5    1  0.2111786E+001  0.1566443E+01  0.7818608E-02  0.3390610E+00
         11   -1    0    0    0    0  0.00000000000E+00  0.00000000000E+00  0.39999999674E+01  0.40000000000E+01  0.51100000000E-03 0.  1.
    9000002   -1    0    0    0    0 -0.00000000000E+00 -0.00000000000E+00  0.00000000000E+00  0.93800000000E+00  0.93800000000E+00 0. -1.
         11    1    1    2    0    0 -0.17293891243E-03 -0.20592435251E+00  0.19263228789E+01  0.19372983672E+01  0.51100000000E-03 0.  1.
    9000002    1    1    2    0    0 -0.18103696151E+00  0.10732543972E-01  0.46923200415E-01  0.95652253276E+00  0.93800000000E+00 0. -1.
         22    1    1    2    0    0  0.18120990043E+00  0.19519180854E+00  0.20267538881E+01  0.20441791000E+01  0.00000000000E+00 0.  1.
</event>
<event>
 5    1  0.2111786E+001  0.1573166E+01  0.7818608E-02  0.3383013E+00
         11   -1    0    0    0    0  0.00000000000E+00  0.00000000000E+00  0.39999999674E+01  0.40000000000E+01  0.51100000000E-03 0.  1.
    9000002   -1    0    0    0    0 -0.00000000000E+00 -0.00000000000E+00  0.00000000000E+00  0.93800000000E+00  0.93800000000E+00 0.  1.
         11    1    1    2    0    0 -0.24024344881E-01  0.17245804574E+00  0.13970059711E+01  0.14078156453E+01  0.51100000000E-03 0.  1.
    9000002    1    1    2    0    0 -0.13695518086E+00  0.58512273905E-03  0.32140997183E-01  0.94849043624E+00  0.93800000000E+00 0.  1.
         22    1    1    2    0    0  0.16097952574E+00 -0.17304316848E+00  0.25708529990E+01  0.25816939184E+01  0.00000000000E+00 0.  1.
</event>
<event>
 5    1  0.2111786E+001  0.1510763E+01  0.7818608E-02  0.3456304E+00
         11   -1    0    0    0    0  0.00000000000E+00  0.00000000000E+00  0.39999999674E+01  0.40000000000E+01  0.51100000000E-03 0.  1.
    9000002   -1    0    0    0    0 -0.00000000000E+00 -0.00000000000E+00  0.00000000000E+00  0.93800000000E+00  0.93800000000E+00 0.  1.
         11    1    1    2    0    0 -0.38962022343E+00 -0.38812752423E+00  0.15092480119E+01  0.16063239761E+01  0.51100000000E-03 0.  1.
    9000002    1    1    2    0    0  0.49389899778E+00  0.21093757302E+00  0.28695615578E+00  0.11183106523E+01  0.93800000000E+00 0.  1.
         22    1    1    2    0    0 -0.10427877435E+00  0.17718995121E+00  0.22037957997E+01  0.22133653716E+01  0.00000000000E+00 0. -1.
</event>
<event>
 5    1  0.2111786E+001  0.1589163E+01  0.7818608E-02  0.3365211E+00
         11   -1    0    0    0    0  0.00000000000E+00  0.00000000000E+00  0.39999999674E+01  0.40000000000E+01  0.51100000000E-03 0. -1.
    9000002   -1    0    0    0    0 -0.00000000000E+00 -0.00000000000E+00  0.00000000000E+00  0.93800000000E+00  0.93800000000E+00 0. -1.
         11    1    1    2    0    0  0.15813598958E+00 -0.26797210745E+00  0.28426058971E+01  0.28595846882E+01  0.51100000000E-03 0. -1.
    9000002    1    1    2    0    0 -0.35776560853E+00  0.35660991504E+00  0.18440429436E+00  0.10812103431E+01  0.93800000000E+00 0. -1.
         22    1    1    2    0    0  0.19962961895E+00 -0.88637807586E-01  0.97298977587E+00  0.99720496872E+00  0.00000000000E+00 0. -1.
</event>
<event>
 5    1  0.2111786E+001  0.1489898E+01  0.7818608E-02  0.3482278E+00
         11   -1    0    0    0    0  0.00000000000E+00  0.00000000000E+00  0.39999999674E+01  0.40000000000E+01  0.51100000000E-03 0. -1.
    9000002   -1    0    0    0    0 -0.00000000000E+00 -0.00000000000E+00  0.00000000000E+00  0.93800000000E+00  0.93800000000E+00 0.  1.
         11    1    1    2    0    0  0.34168783939E+00 -0.40070733241E+00  0.21657093877E+01  0.22288145636E+01  0.51100000000E-03 0. -1.
    9000002    1    1    2    0    0 -0.10264538323E+00  0.22328143001E+00  0.12911083963E+00  0.97821484378E+00  0.93800000000E+00 0.  1.
         22    1    1    2    0    0 -0.23904245615E+00  0.17742590240E+00  0.17051797400E+01  0.17309705926E+01  0.00000000000E+00 0. -1.
</event>
<event>
 5    1  0.2111786E+001  0.1538724E+01  0.7818608E-02  0.3422679E+00
         11   -1    0    0    0    0  0.00000000000E+00  0.00000000000E+00  0.39999999674E+01  0.40000000000E+01  0.51100000000E-03 0. -1.
    9000002   -1    0    0    0    0 -0.00000000000E+00 -0.00000000000E+00  0.00000000000E+00  0.93800000000E+00  0.93800000000E+00 0.  1.
         11    1    1    2    0    0  0.36908262310E+00  0.63581975109E-01  0.19198527781E+01  0.19560418198E+01  0.51100000000E-03 0. -1.
    9000002    1    1    2    0    0 -0.14850670433E+00 -0.90179576023E-01  0.66693513458E-01  0.95628375595E+00  0.93800000000E+00 0.  1.
         22    1    1    2    0    0 -0.22057591878E+00  0.26597600914E-01  0.20134536758E+01  0.20256744242E+01  0.00000000000E+00 0. -1.
</event>
<event>
 5    1  0.2111786E+001  0.1588380E+01  0.7818608E-02  0.3366073E+00
         11   -1    0    0    0    0  0.00000000000E+00  0.00000000000E+00  0.39999999674E+01  0.40000000000E+01  0.51100000000E-03 0.  1.
    9000002   -1    0    0    0    0 -0.00000000000E+00 -0.00000000000E+00  0.00000000000E+00  0.93800000000E+00  0.93800000000E+00 0. -1.
         11    1    1    2    0    0 -0.39271408049E-01  0.34947265711E-01  0.50945846529E+00  0.51216378616E+00  0.51100000000E-03 0.  1.
    9000002    1    1    2    0    0 -0.17533564738E+00  0.18906029255E+00  0.52907056370E-01  0.97423279563E+00  0.93800000000E+00 0. -1.
         22    1    1    2    0    0  0.21460705543E+00 -0.22400755826E+00  0.34376344457E+01  0.34516034182E+01  0.00000000000E+00 0.  1.
</event>
<event>
 5    1  0.2111786E+001  0.1550047E+01  0.7818608E-02  0.3409431E+00
         11   -1    0    0    0    0  0.00000000000E+00  0.00000000000E+00  0.39999999674E+01  0.40000000000E+01  0.51100000000E-03 0.  1.
    9000002   -1    0    0    0    0 -0.00000000000E+00 -0.00000000000E+00  0.00000000000E+00  0.93800000000E+00  0.93800000000E+00 0.  1.
         11    1    1    2    0    0  0.32818239200E-01  0.20739747678E+00  0.15653146083E+01  0.15793355673E+01  0.51100000000E-03 0.  1.
    9000002    1    1    2    0    0  0.13837714891E+00  0.10024155366E+00  0.57089637761E-01  0.95514387982E+00  0.93800000000E+00 0.  1.
         22    1    1    2    0    0 -0.17119538811E+00 -0.30763903044E+00  0.23775957213E+01  0.24035205529E+01  0.00000000000E+00 0.  1.
</event>
<event>
 5    1  0.2111786E+001  0.1535280E+01  0.7818608E-02  0.3426750E+00
         11   -1    0    0    0    0  0.00000000000E+00  0.00000000000E+00  0.39999999674E+01  0.40000000000E+01  0.51100000000E-03 0.  1.
    9000002   -1    0    0    0    0 -0.00000000000E+00 -0.00000000000E+00  0.00000000000E+00  0.93800000000E+00  0.93800000000E+00 0.  1.
         11    1    1    2    0    0 -0.95940948419E-01 -0.28275305826E+00  0.11466894889E+01  0.11849265811E+01  0.51100000000E-03 0.  1.
    9000002    1    1    2    0    0  0.31042004482E-01  0.63304554572E-01  0.51629542882E-01  0.94206193128E+00  0.93800000000E+00 0.  1.
         22    1    1    2    0    0  0.64898943937E-01  0.21944850369E+00  0.28016809356E+01  0.28110114876E+01  0.00000000000E+00 0.  1.
</event>
<event>
 5    1  0.4494613E+001  0.1567063E+01  0.7818608E-02  0.3389906E+00
         11   -1    0    0    0    0  0.00000000000E+00  0.00000000000E+00  0.39999999674E+01  0.40000000000E+01  0.51100000000E-03 0.  1.
    9000002   -1    0    0    0    0 -0.00000000000E+00 -0.00000000000E+00  0.00000000000E+00  0.93800000000E+00  0.93800000000E+00 0.  1.
         11    1    1    2    0    0  0.17973761416E+00 -0.14074069280E+00  0.17977334299E+01  0.18121697764E+01  0.51100000000E-03 0.  1.
    9000002    1    1    2    0    0 -0.15158576403E-01  0.23668712010E-01  0.24523327484E-01  0.93874138289E+00  0.93800000000E+00 0.  1.
         22    1    1    2    0    0 -0.16457903775E+00  0.11707198079E+00  0.21777432100E+01  0.21870888407E+01  0.00000000000E+00 0.  1.
</event>
<event>
 5    1  0.2111786E+001  0.1590867E+01  0.7818608E-02  0.3363336E+00
         11   -1    0    0    0    0  0.00000000000E+00  0.00000000000E+00  0.39999999674E+01  0.40000000000E+01  0.51100000000E-03 0.  1.
    9000002   -1    0    0    0    0 -0.00000000000E+00 -0.00000000000E+00  0.00000000000E+00  0.93800000000E+00  0.93800000000E+00 0. -1.
         11    1    1    2    0    0  0.11306508362E+00  0.65862080181E-01  0.17875339687E+01  0.17923167904E+01  0.51100000000E-03 0.  1.
    9000002    1    1    2    0    0 -0.26210670920E+00  0.10242928843E+00  0.59603591362E-01  0.98111583120E+00  0.93800000000E+00 0. -1.
         22    1    1    2    0    0  0.14904162557E+00 -0.16829136861E+00  0.21528624073E+01  0.21645673784E+01  0.00000000000E+00 0. -1.
</event>
<event>
 5    1  0.2111786E+001  0.1449980E+01  0.7818608E-02  0.3534231E+00
         11   -1    0    0    0    0  0.00000000000E+00  0.00000000000E+00  0.39999999674E+01  0.40000000000E+01  0.51100000000E-03 0.  1.
    9000002   -1    0    0    0    0 -0.00000000000E+00 -0.00000000000E+00  0.00000000000E+00  0.93800000000E+00  0.93800000000E+00 0.  1.
         11    1    1    2    0    0 -0.29988923107E+00  0.20540975758E+00  0.60127496383E+00  0.70260839923E+00  0.51100000000E-03 0.  1.
    9000002    1    1    2    0    0  0.15982535716E+00  0.10071253866E+00  0.14910616261E+00  0.96838205682E+00  0.93800000000E+00 0.  1.
         22    1    1    2    0    0  0.14006387391E+00 -0.30612229624E+00  0.32496188409E+01  0.32670095439E+01  0.00000000000E+00 0.  1.
</event>
<event>
 5    1  0.3358935E+001  0.1570528E+01  0.7818608E-02  0.3385986E+00
         11   -1    0    0    0    0  0.00000000000E+00  0.00000000000E+00  0.39999999674E+01  0.40000000000E+01  0.51100000000E-03 0.  1.
    9000002   -1    0    0    0    0 -0.00000000000E+00 -0.00000000000E+00  0.00000000000E+00  0.93800000000E+00  0.93800000000E+00 0. -1.
         11    1    1    2    0    0 -0.75298941241E-01  0.18018913842E+00  0.23688537443E+01  0.23768900646E+01  0.51100000000E-03 0.  1.
    9000002    1    1    2    0    0 -0.27790521739E-01 -0.10306830544E-02  0.21925352358E-01  0.93866825688E+00  0.93800000000E+00 0. -1.
         22    1    1    2    0    0  0.10308946298E+00 -0.17915845536E+00  0.16092208707E+01  0.16224416786E+01  0.00000000000E+00 0.  1.
</event>
<event>
 5    1  0.2111786E+001  0.1552743E+01  0.7818608E-02  0.3406308E+00
         11   -1    0    0    0    0  0.00000000000E+00  0.00000000000E+00  0.39999999674E+01  0.40000000000E+01  0.51100000000E-03 0. -1.
    9000002   -1    0    0    0    0 -0.00000000000E+00 -0.00000000000E+00  0.00000000000E+00  0.93800000000E+00  0.93800000000E+00 0. -1.
         11    1    1    2    0    0  0.16952740358E+00  0.25452168388E+00  0.21619005170E+01  0.21834227567E+01  0.51100000000E-03 0. -1.
    9000002    1    1    2    0    0 -0.14553655431E-01 -0.94081729693E-01  0.41024257500E-01  0.94371085108E+00  0.93800000000E+00 0. -1.
         22    1    1    2    0    0 -0.15497374815E+00 -0.16043995419E+00  0.17970751929E+01  0.18108663922E+01  0.00000000000E+00 0. -1.
</event>
<event>
 5    1  0.2111786E+001  0.1581124E+01  0.7818608E-02  0.3374109E+00
         11   -1    0    0    0    0  0.00000000000E+00  0.00000000000E+00  0.39999999674E+01  0.40000000000E+01  0.51100000000E-03 0. -1.
    9000002   -1    0    0    0    0 -0.00000000000E+00 -0.00000000000E+00  0.00000000000E+00  0.93800000000E+00  0.93800000000E+00 0. -1.
         11    1    1    2    0    0  0.24947090139E-01  0.11463228982E+00  0.49491915985E+00  0.50863361576E+00  0.51100000000E-03 0. -1.
    9000002    1    1    2    0    0 -0.63741123099E+00 -0.15357794088E+00  0.32369450186E+00  0.11893281262E+01  0.93800000000E+00 0. -1.
         22    1    1    2    0    0  0.61246414085E+00  0.38945651058E-01  0.31813863056E+01  0.32400382580E+01  0.00000000000E+00 0. -1.
</event>
<event>
 5    1  0.2111786E+001  0.1540835E+01  0.7818608E-02  0.3420194E+00
         11   -1    0    0    0    0  0.00000000000E+00  0.00000000000E+00  0.39999999674E+01  0.40000000000E+01  0.51100000000E-03 0. -1.
    9000002   -1    0    0    0    0 -0.00000000000E+00 -0.00000000000E+00  0.00000000000E+00  0.93800000000E+00  0.93800000000E+00 0. -1.
         11    1    1    2    0    0  0.15791088638E+00 -0.21204015630E+00  0.14505856790E+01  0.14744815865E+01  0.51100000000E-03 0. -1.
    9000002    1    1    2    0    0  0.42663464327E-01 -0.25941289472E-01  0.45599427594E-01  0.94043417073E+00  0.93800000000E+00 0. -1.
         22    1    1    2    0    0 -0.20057435071E+00  0.23798144578E+00  0.25038148608E+01  0.25230842427E+01  0.00000000000E+00 0. -1.
</event>
<event>
 5    1  0.2248157E+001  0.1556967E+01  0.7818608E-02  0.3401436E+00
         11   -1    0    0    0    0  0.00000000000E+00  0.00000000000E+00  0.39999999674E+01  0.40000000000E+01  0.51100000000E-03 0.  1.
    9000002   -1    0    0    0    0 -0.00000000000E+00 -0.00000000000E+00  0.00000000000E+00  0.93800000000E+00  0.93800000000E+00 0. -1.
         11    1    1    2    0    0 -0.74636792291E-01 -0.15171819148E+00  0.54437464421E+00  0.57002901222E+00  0.51100000000E-03 0.  1.
    9000002    1    1    2    0    0 -0.66270748029E-01  0.68138532623E-02  0.34619801089E-01  0.94099987846E+00  0.93800000000E+00 0. -1.
         22    1    1    2    0    0  0.14090754032E+00  0.14490433821E+00  0.34210055221E+01  0.34269711093E+01  0.00000000000E+00 0.  1.
</event>
<event>
 5    1  0.2111786E+001  0.1582455E+01  0.7818608E-02  0.3372629E+00
         11   -1    0    0    0    0  0.00000000000E+00  0.00000000000E+00  0.39999999674E+01  0.40000000000E+01  0.51100000000E-03 0. -1.
    9000002   -1    0    0    0    0 -0.00000000000E+00 -0.00000000000E+00  0.00000000000E+00  0.93800000000E+00  0.93800000000E+00 0. -1.
         11    1    1    2    0    0  0.34253149333E-01 -0.12661368990E+00  0.14107281244E+01  0.14168127635E+01  0.51100000000E-03 0. -1.
    9000002    1    1    2    0    0 -0.99118292913E-01 -0.68994738538E-01  0.22350376631E-01  0.94600647422E+00  0.93800000000E+00 0. -1.
         22    1    1    2    0    0  0.64865143581E-01  0.19560842844E+00  0.25669214663E+01  0.25751807623E+01  0.00000000000E+00 0. -1.
</event>
<event>
 5    1  0.2111786E+001  0.1579255E+01  0.7818608E-02  0.3376192E+00
         11   -1    0    0    0    0  0.00000000000E+00  0.00000000000E+00  0.39999999674E+01  0.40000000000E+01  0.51100000000E-03 0.  1.
    9000002   -1    0    0    0    0 -0.00000000000E+00 -0.00000000000E+00  0.00000000000E+00  0.93800000000E+00  0.93800000000E+00 0. -1.
         11    1    1    2    0    0  0.29017956558E-02  0.13419572906E+00  0.79141110647E+00  0.80271334527E+00  0.51100000000E-03 0.  1.
    9000002    1    1    2    0    0  0.17381738619E+00 -0.88266623005E-02  0.35355511226E-01  0.95466455150E+00  0.93800000000E+00 0. -1.
         22    1    1    2    0    0 -0.17671918185E+00 -0.12536906676E+00  0.31732333497E+01  0.31806221032E+01  0.00000000000E+00 0.  1.
</event>
<event>
 5    1  0.2111786E+001  0.1559044E+01  0.7818608E-02  0.3399052E+00
         11   -1    0    0    0    0  0.00000000000E+00  0.00000000000E+00  0.39999999674E+01  0.40000000000E+01  0.51100000000E-03 0. -1.
    9000002   -1    0    0    0    0 -0.00000000000E+00 -0.00000000000E+00  0.00000000000E+00  0.93800000000E+00  0.93800000000E+00 0.  1.
         11    1    1    2    0    0  0.10235216502E+00 -0.18995860311E+00  0.95382680353E+00  0.97792948050E+00  0.51100000000E-03 0. -1.
    9000002    1    1    2    0    0  0.92415954081E-01  0.96609316900E-01  0.42280072609E-01  0.94842272918E+00  0.93800000000E+00 0.  1.
         22    1    1    2    0    0 -0.19476811911E+00  0.93349286212E-01  0.30038930912E+01  0.30116477903E+01  0.00000000000E+00 0. -1.
</event>
<event>
 5    1  0.2111786E+001  0.1515838E+01  0.7818608E-02  0.3450102E+00
         11   -1    0    0    0    0  0.00000000000E+00  0.00000000000E+00  0.39999999674E+01  0.40000000000E+01  0.51100000000E-03 0.  1.
    9000002   -1    0    0    0    0 -0.00000000000E+00 -0.00000000000E+00  0.00000000000E+00  0.93800000000E+00  0.93800000000E+00 0. -1.
         11    1    1    2    0    0 -0.28402241748E-01 -0.32147054206E+00  0.11944243768E+01  0.12372549655E+01  0.51100000000E-03 0.  1.
    9000002    1    1    2    0    0  0.34582499997E-01  0.23162878640E-02  0.64185110369E-01  0.94083210133E+00  0.93800000000E+00 0. -1.
         22    1    1    2    0    0 -0.61802582486E-02  0.31915425420E+00  0.27413904802E+01  0.27599129332E+01  0.00000000000E+00 0. -1.
</event>
<event>
 5    1  0.2111786E+001  0.1563773E+01  0.7818608E-02  0.3393646E+00
         11   -1    0    0    0    0  0.00000000000E+00  0.00000000000E+00  0.39999999674E+01  0.40000000000E+01  0.51100000000E-03 0. -1.
    9000002   -1    0    0    0    0 -0.00000000000E+00 -0.00000000000E+00  0.00000000000E+00  0.93800000000E+00  0.93800000000E+00 0. -1.
         11    1    1    2    0    0  0.89606675341E-01 -0.16110825055E+00  0.74824861669E+00  0.77062408356E+00  0.51100000000E-03 0. -1.
    9000002    1    1    2    0    0 -0.14574752200E+00 -0.37803492469E-01  0.41957011630E-01  0.95093419070E+00  0.93800000000E+00 0. -1.
         22    1    1    2    0    0  0.56140846662E-01  0.19891174302E+00  0.32097943390E+01  0.32164417257E+01  0.00000000000E+00 0. -1.
</event>
<event>
 5    1  0.2111786E+001  0.1550844E+01  0.7818608E-02  0.3408507E+00
         11   -1    0    0    0    0  0.00000000000E+00  0.00000000000E+00  0.39999999674E+01  0.40000000000E+01  0.51100000000E-03 0. -1.
    9000002   -1    0    0    0    0 -0.00000000000E+00 -0.00000000000E+00  0.00000000000E+00  0.93800000000E+00  0.93800000000E+00 0.  1.
         11    1    1    2    0    0 -0.78567161034E-01 -0.23291447518E+00  0.12588431786E+01  0.12826177766E+01  0.51100000000E-03 0. -1.
    9000002    1    1    2    0    0 -0.84178495909E-01  0.26572299966E-01  0.41598295428E-01  0.94306231209E+00  0.93800000000E+00 0.  1.
         22    1    1    2    0    0  0.16274565694E+00  0.20634217521E+00  0.26995584934E+01  0.27123199113E+01  0.00000000000E+00 0. -1.
</event>
<event>
 5    1  0.2111786E+001  0.1576631E+01  0.7818608E-02  0.3379125E+00
         11   -1    0    0    0    0  0.00000000000E+00  0.00000000000E+00  0.39999999674E+01  0.40000000000E+01  0.51100000000E-03 0.  1.
    9000002   -1    0    0    0    0 -0.00000000000E+00 -0.00000000000E+00  0.00000000000E+00  0.93800000000E+00  0.93800000000E+00 0.  1.
         11    1    1    2    0    0  0.14414070162E+00 -0.71393209128E-01  0.20557042997E+01  0.20619878663E+01  0.51100000000E-03 0.  1.
    9000002    1    1    2    0    0  0.19982932303E-01 -0.50281624060E-01  0.18840657303E-01  0.93974812033E+00  0.93800000000E+00 0.  1.
         22    1    1    2    0    0 -0.16412363392E+00  0.12167483319E+00  0.19254550104E+01  0.19362640133E+01  0.00000000000E+00 0.  1.
</event>
<event>
 5    1  0.2668362E+001  0.1562244E+01  0.7818608E-02  0.3395391E+00
         11   -1    0    0    0    0  0.00000000000E+00  0.00000000000E+00  0.39999999674E+01  0.40000000000E+01  0.51100000000E-03 0. -1.
    9000002   -1    0    0    0    0 -0.00000000000E+00 -0.00000000000E+00  0.00000000000E+00  0.93800000000E+00  0.93800000000E+00 0. -1.
         11    1    1    2    0    0  0.22028574816E+00  0.66314803980E-01  0.14673324170E+01  0.14852569297E+01  0.51100000000E-03 0. -1.
    9000002    1    1    2    0    0 -0.11544023957E-01 -0.10617768701E-01  0.27765930988E-01  0.93854192683E+00  0.93800000000E+00 0. -1.
         22    1    1    2    0    0 -0.20874172421E+00 -0.55697035279E-01  0.25049016193E+01  0.25142011434E+01  0.00000000000E+00 0. -1.
</event>
<event>
 5    1  0.2111786E+001  0.1509657E+01  0.7818608E-02  0.3457661E+00
         11   -1    0    0    0    0  0.00000000000E+00  0.00000000000E+00  0.39999999674E+01  0.40000000000E+01  0.51100000000E-03 0. -1.
    9000002   -1    0    0    0    0 -0.00000000000E+00 -0.00000000000E+00  0.00000000000E+00  0.93800000000E+00  0.93800000000E+00 0. -1.
         11    1    1    2    0    0  0.49791577181E+00 -0.44226500217E+00  0.27251909403E+01  0.28053848881E+01  0.51100000000E-03 0. -1.
    9000002    1    1    2    0    0 -0.53418249345E+00  0.19273307041E+00  0.31590519882E+00  0.11411122063E+01  0.93800000000E+00 0. -1.
         22    1    1    2    0    0  0.36266721638E-01  0.24953193175E+00  0.95890382825E+00  0.99150290564E+00  0.00000000000E+00 0. -1.
</event>
<event>
 5    1  0.2111786E+001  0.1541286E+01  0.7818608E-02  0.3419663E+00
         11   -1    0    0    0    0  0.00000000000E+00  0.00000000000E+00  0.39999999674E+01  0.40000000000E+01  0.51100000000E-03 0.  1.
    9000002   -1    0    0    0    0 -0.00000000000E+00 -0.00000000000E+00  0.00000000000E+00  0.93800000000E+00  0.93800000000E+00 0. -1.
         11    1    1    2    0    0 -0.11731974259E+00  0.14496827638E+00  0.54933130482E+00  0.58012487167E+00  0.51100000000E-03 0.  1.
    9000002    1    1    2    0    0 -0.16058402927E+00  0.15800460446E-01  0.61746022929E-01  0.95377851536E+00  0.93800000000E+00 0. -1.
         22    1    1    2    0    0  0.27790377187E+00 -0.16076873683E+00  0.33889226396E+01  0.34040966130E+01  0.00000000000E+00 0.  1.
</event>
<event>
 5    1  0.2111786E+001  0.1519310E+01  0.7818608E-02  0.3445885E+00
         11   -1    0    0    0    0  0.00000000000E+00  0.00000000000E+00  0.39999999674E+01  0.40000000000E+01  0.51100000000E-03 0.  1.
    9000002   -1    0    0    0    0 -0.00000000000E+00 -0.00000000000E+00  0.00000000000E+00  0.93800000000E+00  0.93800000000E+00 0.  1.
         11    1    1    2    0    0 -0.20605619895E+00 -0.89706335425E-01  0.48830476169E+00  0.53753900803E+00  0.51100000000E-03 0.  1.
    9000002    1    1    2    0    0  0.42003568082E-01 -0.16485516202E+00  0.81342933518E-01  0.95676653213E+00  0.93800000000E+00 0.  1.
         22    1    1    2    0    0  0.16405263087E+00  0.25456149745E+00  0.34303522721E+01  0.34436944598E+01  0.00000000000E+00 0.  1.
</event>
<event>
 5    1  0.2111786E+001  0.1553899E+01  0.7818608E-02  0.3404972E+00
         11   -1    0    0    0    0  0.00000000000E+00  0.00000000000E+00  0.39999999674E+01  0.40000000000E+01  0.51100000000E-03 0. -1.
    9000002   -1    0    0    0    0 -0.00000000000E+00 -0.00000000000E+00  0.00000000000E+00  0.93800000000E+00  0.93800000000E+00 0.  1.
         11    1    1    2    0    0  0.19862628858E+00 -0.20945571617E+00  0.20942372753E+01  0.21140373994E+01  0.51100000000E-03 0. -1.
    9000002    1    1    2    0    0 -0.61192203906E-01  0.25481407323E-01  0.36919828790E-01  0.94106368631E+00  0.93800000000E+00 0.  1.
         22    1    1    2    0    0 -0.13743408467E+00  0.18397430885E+00  0.18688428633E+01  0.18828989143E+01  0.00000000000E+00 0. -1.
</event>
<event>
 5    1  0.2111786E+001  0.1318693E+01  0.7818608E-02  0.3746785E+00
         11   -1    0    0    0    0  0.00000000000E+00  0.00000000000E+00  0.39999999674E+01  0.40000000000E+01  0.51100000000E-03 0.  1.
    9000002   -1    0    0    0    0 -0.00000000000E+00 -0.00000000000E+00  0.00000000000E+00  0.93800000000E+00  0.93800000000E+00 0. -1.
         11    1    1    2    0    0 -0.48810215336E+00 -0.41055301540E+00  0.21382108359E+01  0.22313097791E+01  0.51100000000E-03 0.  1.
    9000002    1    1    2    0    0 -0.20651977823E+00  0.56333840489E+00  0.61689135413E+00  0.12729491427E+01  0.93800000000E+00 0. -1.
         22    1    1    2    0    0  0.69462193159E+00 -0.15278538950E+00  0.12448977774E+01  0.14337410782E+01  0.00000000000E+00 0.  1.
</event>
<event>
 5    1  0.2111786E+001  0.1553312E+01  0.7818608E-02  0.3405650E+00
         11   -1    0    0    0    0  0.00000000000E+00  0.00000000000E+00  0.39999999674E+01  0.40000000000E+01  0.51100000000E-03 0. -1.
    9000002   -1    0    0    0    0 -0.00000000000E+00 -0.00000000000E+00  0.00000000000E+00  0.93800000000E+00  0.93800000000E+00 0.  1.
         11    1    1    2    0    0 -0.29536952891E+00 -0.23313316886E-01  0.19334044806E+01  0.19559754129E+01  0.51100000000E-03 0. -1.
    9000002    1    1    2    0    0  0.89631642528E-01 -0.78987991922E-01  0.44190862145E-01  0.94660961674E+00  0.93800000000E+00 0.  1.
         22    1    1    2    0    0  0.20573788639E+00  0.10230130881E+00  0.20224046246E+01  0.20354149703E+01  0.00000000000E+00 0. -1.
</event>
<event>
 5    1  0.2111786E+001  0.1538767E+01  0.7818608E-02  0.3422629E+00
         11   -1    0    0    0    0  0.00000000000E+00  0.00000000000E+00  0.39999999674E+01  0.40000000000E+01  0.51100000000E-03 0. -1.
    9000002   -1    0    0    0    0 -0.00000000000E+00 -0.00000000000E+00  0.00000000000E+00  0.93800000000E+00  0.93800000000E+00 0. -1.
         11    1    1    2    0    0  0.12497028737E+00  0.11671449574E+00  0.44075299592E+00  0.47276136769E+00  0.51100000000E-03 0. -1.
    9000002    1    1    2    0    0  0.21340925348E-01  0.20872276365E+00  0.76453088414E-01  0.96421455179E+00  0.93800000000E+00 0. -1.
         22    1    1    2    0    0 -0.14631121272E+00 -0.32543725939E+00  0.34827938830E+01  0.35010240805E+01  0.00000000000E+00 0. -1.
</event>
<event>
 5    1  0.2111786E+001  0.1499140E+01  0.7818608E-02  0.3470677E+00
         11   -1    0    0    0    0  0.00000000000E+00  0.00000000000E+00  0.39999999674E+01  0.40000000000E+01  0.51100000000E-03 0. -1.
    9000002   -1    0    0    0    0 -0.00000000000E+00 -0.00000000000E+00  0.00000000000E+00  0.93800000000E+00  0.93800000000E+00 0.  1.
         11    1    1    2    0    0  0.19620035153E+00  0.36165782475E+00  0.31158821416E+01  0.31429305976E+01  0.51100000000E-03 0. -1.
    9000002    1    1    2    0    0  0.62305042227E-01 -0.22374418317E+00  0.11636319320E+00  0.97330764434E+00  0.93800000000E+00 0.  1.
         22    1    1    2    0    0 -0.25850539376E+00 -0.13791364157E+00  0.76775463260E+00  0.82176175806E+00  0.00000000000E+00 0.  1.
</event>
<event>
 5    1  0.2111786E+001  0.1566933E+01  0.7818608E-02  0.3390054E+00
         11   -1    0    0    0    0  0.00000000000E+00  0.00000000000E+00  0.39999999674E+01  0.40000000000E+01  0.51100000000E-03 0. -1.
    9000002   -1    0    0    0    0 -0.00000000000E+00 -0.00000000000E+00  0.00000000000E+00  0.93800000000E+00  0.93800000000E+00 0. -1.
         11    1    1    2    0    0  0.21278652327E+00 -0.36950360506E-01  0.15651591917E+01  0.15799895538E+01  0.51100000000E-03 0. -1.
    9000002    1    1    2    0    0 -0.19543996998E-01 -0.50602002142E-01  0.26084083863E-01  0.93992920471E+00  0.93800000000E+00 0. -1.
         22    1    1    2    0    0 -0.19324252628E+00  0.87552362649E-01  0.24087566918E+01  0.24180812415E+01  0.00000000000E+00 0. -1.
</event>
<event>
 5    1  0.2111786E+001  0.1563376E+01  0.7818608E-02  0.3394099E+00
         11   -1    0    0    0    0  0.00000000000E+00  0.00000000000E+00  0.39999999674E+01  0.40000000000E+01  0.51100000000E-03 0. -1.
    9000002   -1    0    0    0    0 -0.00000000000E+00 -0.00000000000E+00  0.00000000000E+00  0.93800000000E+00  0.93800000000E+00 0. -1.
         11    1    1    2    0    0 -0.16305022173E+00  0.78341920448E-01  0.25963261297E+01  0.26026203074E+01  0.51100000000E-03 0. -1.
    9000002    1    1    2    0    0 -0.62636785739E-01 -0.52419878383E-03  0.29424619839E-01  0.94054954679E+00  0.93800000000E+00 0. -1.
         22    1    1    2    0    0  0.22568700746E+00 -0.77817721664E-01  0.13742492178E+01  0.13948301458E+01  0.00000000000E+00 0. -1.
</event>
<event>
 5    1  0.2111786E+001  0.1531588E+01  0.7818608E-02  0.3431135E+00
         11   -1    0    0    0    0  0.00000000000E+00  0.00000000000E+00  0.39999999674E+01  0.40000000000E+01  0.51100000000E-03 0. -1.
    9000002   -1    0    0    0    0 -0.00000000000E+00 -0.00000000000E+00  0.00000000000E+00  0.93800000000E+00  0.93800000000E+00 0.  1.
         11    1    1    2    0    0 -0.15811952587E+00  0.35781938585E+00  0.21243486629E+01  0.21600680545E+01  0.51100000000E-03 0. -1.
    9000002    1    1    2    0    0 -0.12803099729E-01 -0.16989785945E+00  0.71544729532E-01  0.95602920998E+00  0.93800000000E+00 0.  1.
         22    1    1    2    0    0  0.17092262560E+00 -0.18792152640E+00  0.18041065750E+01  0.18219027356E+01  0.00000000000E+00 0. -1.
</event>
<event>
 5    1  0.2111786E+001  0.1508248E+01  0.7818608E-02  0.3459393E+00
         11   -1    0    0    0    0  0.00000000000E+00  0.00000000000E+00  0.39999999674E+01  0.40000000000E+01  0.51100000000E-03 0.  1.
    9000002   -1    0    0    0    0 -0.00000000000E+00 -0.00000000000E+00  0.00000000000E+00  0.93800000000E+00  0.93800000000E+00 0. -1.
         11    1    1    2    0    0  0.29060811331E+00  0.68060194490E-01  0.23752235661E+01  0.23939031968E+01  0.51100000000E-03 0.  1.
    9000002    1    1    2    0    0 -0.28624312516E+00  0.42151109140E+00  0.26641033707E+00  0.11001932533E+01  0.93800000000E+00 0. -1.
         22    1    1    2    0    0 -0.43649881473E-02 -0.48957128589E+00  0.13583660642E+01  0.14439035499E+01  0.00000000000E+00 0.  1.
</event>
<event>
 5    1  0.2111786E+001  0.1578436E+01  0.7818608E-02  0.3377106E+00
         11   -1    0    0    0    0  0.00000000000E+00  0.00000000000E+00  0.39999999674E+01  0.40000000000E+01  0.51100000000E-03 0.  1.
    9000002   -1    0    0    0    0 -0.00000000000E+00 -0.00000000000E+00  0.00000000000E+00  0.93800000000E+00  0.93800000000E+00 0. -1.
         11    1    1    2    0    0  0.12544254403E+00  0.64417638827E-01  0.20926657998E+01  0.20974117085E+01  0.51100000000E-03 0.  1.
    9000002    1    1    2    0    0  0.44421179368E-01  0.53306957986E-01  0.18770838913E-01  0.94075034804E+00  0.93800000000E+00 0. -1.
         22    1    1    2    0    0 -0.16986372339E+00 -0.11772459681E+00  0.18885633286E+01  0.18998379435E+01  0.00000000000E+00 0.  1.
</event>
<event>
 5    1  0.2111786E+001  0.1558230E+01  0.7818608E-02  0.3399985E+00
         11   -1    0    0    0    0  0.00000000000E+00  0.00000000000E+00  0.39999999674E+01  0.40000000000E+01  0.51100000000E-03 0. -1.
    9000002   -1    0    0    0    0 -0.00000000000E+00 -0.00000000000E+00  0.00000000000E+00  0.93800000000E+00  0.93800000000E+00 0. -1.
         11    1    1    2    0    0  0.33011186753E+00 -0.35576712516E-01  0.15438271050E+01  0.15791269546E+01  0.51100000000E-03 0. -1.
    9000002    1    1    2    0    0 -0.28296140323E+00 -0.16559287502E+00  0.10560570637E+00  0.99924207337E+00  0.93800000000E+00 0. -1.
         22    1    1    2    0    0 -0.47150464297E-01  0.20116958754E+00  0.23505671560E+01  0.23596309720E+01  0.00000000000E+00 0. -1.
</event>
<event>
 5    1  0.2111786E+001  0.1457998E+01  0.7818608E-02  0.3523548E+00
         11   -1    0    0    0    0  0.00000000000E+00  0.00000000000E+00  0.39999999674E+01  0.40000000000E+01  0.51100000000E-03 0. -1.
    9000002   -1    0    0    0    0 -0.00000000000E+00 -0.00000000000E+00  0.00000000000E+00  0.93800000000E+00  0.93800000000E+00 0. -1.
         11    1    1    2    0    0  0.56706018644E+00 -0.58416906513E+00  0.31206971847E+01  0.32251452574E+01  0.51100000000E-03 0. -1.
    9000002    1    1    2    0    0 -0.36919680637E+00  0.45823189905E+00  0.39660152136E+00  0.11761885571E+01  0.93800000000E+00 0. -1.
         22    1    1    2    0    0 -0.19786338007E+00  0.12593716608E+00  0.48270126133E+00  0.53666618551E+00  0.00000000000E+00 0. -1.
</event>
<event>
 5    1  0.2111786E+001  0.1553565E+01  0.7818608E-02  0.3405357E+00
         11   -1    0    0    0    0  0.00000000000E+00  0.00000000000E+00  0.39999999674E+01  0.40000000000E+01  0.51100000000E-03 0. -1.
    9000002   -1    0    0    0    0 -0.00000000000E+00 -0.00000000000E+00  0.00000000000E+00  0.93800000000E+00  0.93800000000E+00 0.  1.
         11    1    1    2    0    0 -0.11770913773E+00  0.40625199988E+00  0.38261849000E+00  0.57034489436E+00  0.51100000000E-03 0. -1.
    9000002    1    1    2    0    0  0.83107915619E-02 -0.17332752083E+00  0.24420698651E+00  0.98467890756E+00  0.93800000000E+00 0.  1.
         22    1    1    2    0    0  0.10939834617E+00 -0.23292447905E+00  0.33731744908E+01  0.33829761981E+01  0.00000000000E+00 0. -1.
</event>
<event>
 5    1  0.2111786E+001  0.1541202E+01  0.7818608E-02  0.3419763E+00
         11   -1    0    0    0    0  0.00000000000E+00  0.00000000000E+00  0.39999999674E+01  0.40000000000E+01  0.51100000000E-03 0.  1.
    9000002   -1    0    0    0    0 -0.00000000000E+00 -0.00000000000E+00  0.00000000000E+00  0.93800000000E+00  0.93800000000E+00 0.  1.
         11    1    1    2    0    0 -0.19703589442E+00 -0.17492170787E-01  0.59430153786E+00  0.62635748479E+00  0.51100000000E-03 0.  1.
    9000002    1    1    2    0    0 -0.83892550398E-01  0.18765827877E+00  0.73251709154E-01  0.96304901355E+00  0.93800000000E+00 0.  1.
         22    1    1    2    0    0  0.28092844482E+00 -0.17016610798E+00  0.33324467203E+01  0.33485935017E+01  0.00000000000E+00 0.  1.
</event>
<event>
 5    1  0.2111786E+001  0.1512995E+01  0.7818608E-02  0.3453570E+00
         11   -1    0    0    0    0  0.00000000000E+00  0.00000000000E+00  0.39999999674E+01  0.40000000000E+01  0.51100000000E-03 0. -1.
    9000002   -1    0    0    0    0 -0.00000000000E+00 -0.00000000000E+00  0.00000000000E+00  0.93800000000E+00  0.93800000000E+00 0. -1.
         11    1    1    2    0    0 -0.28110366397E+00 -0.41442132692E-01  0.30586335629E+01  0.30718034203E+01  0.51100000000E-03 0. -1.
    9000002    1    1    2    0    0  0.82937390812E-01 -0.20208334338E+00  0.10014183650E+00  0.96829162750E+00  0.93800000000E+00 0. -1.
         22    1    1    2    0    0  0.19816627316E+00  0.24352547607E+00  0.84122456800E+00  0.89790495217E+00  0.00000000000E+00 0. -1.
</event>
<event>
 5    1  0.2111786E+001  0.1514758E+01  0.7818608E-02  0.3451418E+00
         11   -1    0    0    0    0  0.00000000000E+00  0.00000000000E+00  0.39999999674E+01  0.40000000000E+01  0.51100000000E-03 0.  1.
    9000002   -1    0    0    0    0 -0.00000000000E+00 -0.00000000000E+00  0.00000000000E+00  0.93800000000E+00  0.93800000000E+00 0.  1.
         11    1    1    2    0    0 -0.16055441953E+00  0.42260000727E+00  0.20040935822E+01  0.20544487910E+01  0.51100000000E-03 0.  1.
    9000002    1    1    2    0    0 -0.22957258747E-01 -0.22768048848E+00  0.10207418407E+00  0.97089061156E+00  0.93800000000E+00 0.  1.
         22    1    1    2    0    0  0.18351167828E+00 -0.19491951879E+00  0.18938322011E+01  0.19126605974E+01  0.00000000000E+00 0.  1.
</event>
<event>
 5    1  0.2111786E+001  0.1467157E+01  0.7818608E-02  0.3511499E+00
         11   -1    0    0    0    0  0.00000000000E+00  0.00000000000E+00  0.39999999674E+01  0.40000000000E+01  0.51100000000E-03 0.  1.
    9000002   -1    0    0    0    0 -0.00000000000E+00 -0.00000000000E+00  0.00000000000E+00  0.93800000000E+00  0.93800000000E+00 0.  1.
         11    1    1    2    0    0 -0.13713415165E+00 -0.21138468150E+00  0.17102442781E+00  0.30453058164E+00  0.51100000000E-03 0.  1.
    9000002    1    1    2    0    0 -0.96724746437E-01  0.30781580431E+00  0.22052113100E+00  0.10161593454E+01  0.93800000000E+00 0.  1.
         22    1    1    2    0    0  0.23385889809E+00 -0.96431122809E-01  0.36084544085E+01  0.36173100730E+01  0.00000000000E+00 0.  1.
</event>
<event>
 5    1  0.2111786E+001  0.1518509E+01  0.7818608E-02  0.3446855E+00
         11   -1    0    0    0    0  0.00000000000E+00  0.00000000000E+00  0.39999999674E+01  0.40000000000E+01  0.51100000000E-03 0.  1.
    9000002   -1    0    0    0    0 -0.00000000000E+00 -0.00000000000E+00  0.00000000000E+00  0.93800000000E+00  0.93800000000E+00 0.  1.
         11    1    1    2    0    0 -0.14191971773E+00 -0.22909206072E+00  0.69284355712E+00  0.74340892807E+00  0.51100000000E-03 0.  1.
    9000002    1    1    2    0    0  0.33220165461E-01  0.15471181297E-01  0.62177926385E-01  0.94077257155E+00  0.93800000000E+00 0.  1.
         22    1    1    2    0    0  0.10869955226E+00  0.21362087942E+00  0.32449784839E+01  0.32538185004E+01  0.00000000000E+00 0.  1.
</event>
<event>
 5    1  0.2111786E+001  0.1530836E+01  0.7818608E-02  0.3432032E+00
         11   -1    0    0    0    0  0.00000000000E+00  0.00000000000E+00  0.39999999674E+01  0.40000000000E+01  0.51100000000E-03 0.  1.
    9000002   -1    0    0    0    0 -0.00000000000E+00 -0.00000000000E+00  0.00000000000E+00  0.93800000000E+00  0.93800000000E+00 0.  1.
         11    1    1    2    0    0 -0.25693250593E+00 -0.53253403354E-01  0.85382885956E+00  0.89323805344E+00  0.51100000000E-03 0.  1.
    9000002    1    1    2    0    0  0.21008274092E-01 -0.71443256792E-01  0.55494205581E-01  0.94258638510E+00  0.93800000000E+00 0.  1.
         22    1    1    2    0    0  0.23592423184E+00  0.12469666015E+00  0.30906769022E+01  0.31021755615E+01  0.00000000000E+00 0.  1.
</event>
<event>
 5    1  0.2111786E+001  0.1536313E+01  0.7818608E-02  0.3425527E+00
         11   -1    0    0    0    0  0.00000000000E+00  0.00000000000E+00  0.39999999674E+01  0.40000000000E+01  0.51100000000E-03 0. -1.
    9000002   -1    0    0    0    0 -0.00000000000E+00 -0.00000000000E+00  0.00000000000E+00  0.93800000000E+00  0.93800000000E+00 0.  1.
         11    1    1    2    0    0  0.56718537865E-02 -0.33276211345E+00  0.18717428267E+01  0.19011008033E+01  0.51100000000E-03 0. -1.
    9000002    1    1    2    0    0 -0.18632658885E+00  0.87682618043E-01  0.77276262970E-01  0.96344250479E+00  0.93800000000E+00 0.  1.
         22    1    1    2    0    0  0.18065473506E+00  0.24507949541E+00  0.20509808777E+01  0.20734566919E+01  0.00000000000E+00 0. -1.
</event>
<event>
 5    1  0.2111786E+001  0.1565150E+01  0.7818608E-02  0.3392079E+00
         11   -1    0    0    0    0  0.00000000000E+00  0.00000000000E+00  0.39999999674E+01  0.40000000000E+01  0.51100000000E-03 0.  1.
    9000002   -1    0    0    0    0 -0.00000000000E+00 -0.00000000000E+00  0.00000000000E+00  0.93800000000E+00  0.93800000000E+00 0.  1.
         11    1    1    2    0    0  0.33608041420E-01 -0.23148023486E+00  0.19655134858E+01  0.19793827633E+01  0.51100000000E-03 0.  1.
    9000002    1    1    2    0    0 -0.21356718645E+00  0.40331197960E-01  0.57811938263E-01  0.96458476500E+00  0.93800000000E+00 0.  1.
         22    1    1    2    0    0  0.17995914503E+00  0.19114903690E+00  0.19766745433E+01  0.19940324718E+01  0.00000000000E+00 0.  1.
</event>
<event>
 5    1  0.2111786E+001  0.1585744E+01  0.7818608E-02  0.3368983E+00
         11   -1    0    0    0    0  0.00000000000E+00  0.00000000000E+00  0.39999999674E+01  0.40000000000E+01  0.51100000000E-03 0. -1.
    9000002   -1    0    0    0    0 -0.00000000000E+00 -0.00000000000E+00  0.00000000000E+00  0.93800000000E+00  0.93800000000E+00 0. -1.
         11    1    1    2    0    0  0.39851174039E-01 -0.49047739733E-01  0.31204568325E+00  0.31838116527E+00  0.51100000000E-03 0. -1.
    9000002    1    1    2    0    0  0.33174206455E-01 -0.18773718818E+00  0.34529495870E-01  0.95780063995E+00  0.93800000000E+00 0. -1.
         22    1    1    2    0    0 -0.73025380494E-01  0.23678492791E+00  0.36534247882E+01  0.36618181948E+01  0.00000000000E+00 0. -1.
</event>
<event>
 5    1  0.2111786E+001  0.1567092E+01  0.7818608E-02  0.3389874E+00
         11   -1    0    0    0    0  0.00000000000E+00  0.00000000000E+00  0.39999999674E+01  0.40000000000E+01  0.51100000000E-03 0.  1.
    9000002   -1    0    0    0    0 -0.00000000000E+00 -0.00000000000E+00  0.00000000000E+00  0.93800000000E+00  0.93800000000E+00 0. -1.
         11    1    1    2    0    0 -0.11016342225E+00  0.26806085792E-02  0.32140501164E+00  0.33977140535E+00  0.51100000000E-03 0.  1.
    9000002    1    1    2    0    0 -0.11587882134E+00  0.27587047998E-01  0.33624896922E-01  0.94613084727E+00  0.93800000000E+00 0. -1.
         22    1    1    2    0    0  0.22604224360E+00 -0.30267656577E-01  0.36449700588E+01  0.36520977474E+01  0.00000000000E+00 0.  1.
</event>
<event>
 5    1  0.2111786E+001  0.1548394E+01  0.7818608E-02  0.3411353E+00
         11   -1    0    0    0    0  0.00000000000E+00  0.00000000000E+00  0.39999999674E+01  0.40000000000E+01  0.51100000000E-03 0.  1.
    9000002   -1    0    0    0    0 -0.00000000000E+00 -0.00000000000E+00  0.00000000000E+00  0.93800000000E+00  0.93800000000E+00 0. -1.
         11    1    1    2    0    0  0.15154409555E+00 -0.15511915367E+00  0.84535330576E+00  0.87272563696E+00  0.51100000000E-03 0.  1.
    9000002    1    1    2    0    0  0.59687985262E-01  0.12344519651E-01  0.40648911181E-01  0.94085672487E+00  0.93800000000E+00 0. -1.
         22    1    1    2    0    0 -0.21123208082E+00  0.14277463402E+00  0.31139977504E+01  0.31244176382E+01  0.00000000000E+00 0.  1.
</event>
<event>
 5    1  0.2111786E+001  0.1563001E+01  0.7818608E-02  0.3394526E+00
         11   -1    0    0    0    0  0.00000000000E+00  0.00000000000E+00  0.39999999674E+01  0.40000000000E+01  0.51100000000E-03 0.  1.
    9000002   -1    0    0    0    0 -0.00000000000E+00 -0.00000000000E+00  0.00000000000E+00  0.93800000000E+00  0.93800000000E+00 0.  1.
         11    1    1    2    0    0  0.23482617893E+00  0.69313411183E-01  0.26288724011E+01  0.26402496181E+01  0.51100000000E-03 0.  1.
    9000002    1    1    2    0    0 -0.42069229273E-01 -0.80491786802E-03  0.28237150388E-01  0.93936776856E+00  0.93800000000E+00 0.  1.
         22    1    1    2    0    0 -0.19275694966E+00 -0.68508493315E-01  0.13428904159E+01  0.13583826134E+01  0.00000000000E+00 0. -1.
</event>
<event>
 5    1  0.2111786E+001  0.1548832E+01  0.7818608E-02  0.3410843E+00
         11   -1    0    0    0    0  0.00000000000E+00  0.00000000000E+00  0.39999999674E+01  0.40000000000E+01  0.51100000000E-03 0.  1.
    9000002   -1    0    0    0    0 -0.00000000000E+00 -0.00000000000E+00  0.00000000000E+00  0.93800000000E+00  0.93800000000E+00 0. -1.
         11    1    1    2    0    0  0.25650561722E+00 -0.78823221065E-01  0.12377110585E+01  0.12664664059E+01  0.51100000000E-03 0.  1.
    9000002    1    1    2    0    0 -0.61112032592E-01 -0.19290014621E-01  0.40585498553E-01  0.94106214879E+00  0.93800000000E+00 0. -1.
         22    1    1    2    0    0 -0.19539358462E+00  0.98113235686E-01  0.27217034103E+01  0.27304714453E+01  0.00000000000E+00 0. -1.
</event>
<event>
 5    1  0.2111786E+001  0.1580361E+01  0.7818608E-02  0.3374959E+00
         11   -1    0    0    0    0  0.00000000000E+00  0.00000000000E+00  0.39999999674E+01  0.40000000000E+01  0.51100000000E-03 0.  1.
    9000002   -1    0    0    0    0 -0.00000000000E+00 -0.00000000000E+00  0.00000000000E+00  0.93800000000E+00  0.93800000000E+00 0.  1.
         11    1    1    2    0    0 -0.82228120021E-01 -0.10143188266E+00  0.11908136053E+01  0.11979512487E+01  0.51100000000E-03 0.  1.
    9000002    1    1    2    0    0 -0.48857270894E-02 -0.89745928345E-01  0.19536146836E-01  0.94249873370E+00  0.93800000000E+00 0.  1.
         22    1    1    2    0    0  0.87113847110E-01  0.19117781100E+00  0.27896502152E+01  0.27975500176E+01  0.00000000000E+00 0.  1.
</event>
<event>
 5    1  0.2111786E+001  0.1558619E+01  0.7818608E-02  0.3399540E+00
         11   -1    0    0    0    0  0.00000000000E+00  0.00000000000E+00  0.39999999674E+01  0.40000000000E+01  0.51100000000E-03 0.  1.
    9000002   -1    0    0    0    0 -0.00000000000E+00 -0.00000000000E+00  0.00000000000E+00  0.93800000000E+00  0.93800000000E+00 0.  1.
         11    1    1    2    0    0 -0.25002013603E+00 -0.68632454745E-01  0.19341425147E+01  0.19514425461E+01  0.51100000000E-03 0.  1.
    9000002    1    1    2    0    0  0.25592734951E-01  0.28768630259E-01  0.31342031453E-01  0.93931301764E+00  0.93800000000E+00 0.  1.
         22    1    1    2    0    0  0.22442740108E+00  0.39863824486E-01  0.20345154212E+01  0.20472444363E+01  0.00000000000E+00 0. -1.
</event>
<event>
 5    1  0.2111786E+001  0.1500872E+01  0.7818608E-02  0.3468520E+00
         11   -1    0    0    0    0  0.00000000000E+00  0.00000000000E+00  0.39999999674E+01  0.40000000000E+01  0.51100000000E-03 0. -1.
    9000002   -1    0    0    0    0 -0.00000000000E+00 -0.00000000000E+00  0.00000000000E+00  0.93800000000E+00  0.93800000000E+00 0.  1.
         11    1    1    2    0    0 -0.15178829380E+00  0.29036728434E+00  0.75465322344E+00  0.82271173246E+00  0.51100000000E-03 0. -1.
    9000002    1    1    2    0    0  0.45806260921E-02 -0.14133768706E+00  0.89849071832E-01  0.95284530729E+00  0.93800000000E+00 0.  1.
         22    1    1    2    0    0  0.14720766771E+00 -0.14902959728E+00  0.31554976721E+01  0.31624429602E+01  0.00000000000E+00 0. -1.
</event>
<event>
 5    1  0.2111786E+001  0.1441761E+01  0.7818608E-02  0.3545317E+00
         11   -1    0    0    0    0  0.00000000000E+00  0.00000000000E+00  0.39999999674E+01  0.40000000000E+01  0.51100000000E-03 0.  1.
    9000002   -1    0    0    0    0 -0.00000000000E+00 -0.00000000000E+00  0.00000000000E+00  0.93800000000E+00  0.93800000000E+00 0. -1.
         11    1    1    2    0    0  0.50899063936E+00 -0.54199856761E+00  0.22657285880E+01  0.23846090274E+01  0.51100000000E-03 0.  1.
    9000002    1    1    2    0    0 -0.51422531933E+00  0.18947483946E+00  0.37518529090E+00  0.11493199713E+01  0.93800000000E+00 0. -1.
         22    1    1    2    0    0  0.52346799708E-02  0.35252372815E+00  0.13590860885E+01  0.14040710013E+01  0.00000000000E+00 0. -1.
</event>
<event>
 5    1  0.2111786E+001  0.1430866E+01  0.7818608E-02  0.3560227E+00
         11   -1    0    0    0    0  0.00000000000E+00  0.00000000000E+00  0.39999999674E+01  0.40000000000E+01  0.51100000000E-03 0. -1.
    9000002   -1    0    0    0    0 -0.00000000000E+00 -0.00000000000E+00  0.00000000000E+00  0.93800000000E+00  0.93800000000E+00 0.  1.
         11    1    1    2    0    0  0.18489249540E-01 -0.46255121834E+00  0.30781663711E+01  0.31127807426E+01  0.51100000000E-03 0. -1.
    9000002    1    1    2    0    0  0.33628237797E+00  0.26479948093E+00  0.28468711541E+00  0.10696239323E+01  0.93800000000E+00 0.  1.
         22    1    1    2    0    0 -0.35477162751E+00  0.19775173741E+00  0.63714648085E+00  0.75559532515E+00  0.00000000000E+00 0. -1.
</event>
<event>
 5    1  0.2111786E+001  0.1586899E+01  0.7818608E-02  0.3367707E+00
         11   -1    0    0    0    0  0.00000000000E+00  0.00000000000E+00  0.39999999674E+01  0.40000000000E+01  0.51100000000E-03 0. -1.
    9000002   -1    0    0    0    0 -0.00000000000E+00 -0.00000000000E+00  0.00000000000E+00  0.93800000000E+00  0.93800000000E+00 0. -1.
         11    1    1    2    0    0  0.45646990372E-01  0.46147108997E+00  0.15924828768E+01  0.16586262957E+01  0.51100000000E-03 0. -1.
    9000002    1    1    2    0    0 -0.28186742942E+00 -0.77196144228E+00  0.51864614982E+00  0.13506337567E+01  0.93800000000E+00 0. -1.
         22    1    1    2    0    0  0.23622043905E+00  0.31049035231E+00  0.18888709407E+01  0.19287399476E+01  0.00000000000E+00 0.  1.
</event>
<event>
 5    1  0.2111786E+001  0.1511857E+01  0.7818608E-02  0.3454962E+00
         11   -1    0    0    0    0  0.00000000000E+00  0.00000000000E+00  0.39999999674E+01  0.40000000000E+01  0.51100000000E-03 0. -1.
    9000002   -1    0    0    0    0 -0.00000000000E+00 -0.00000000000E+00  0.00000000000E+00  0.93800000000E+00  0.93800000000E+00 0.  1.
         11    1    1    2    0    0  0.30880521801E+00  0.25694667127E+00  0.21322478742E+01  0.21697611649E+01  0.51100000000E-03 0. -1.
    9000002    1    1    2    0    0 -0.72826947488E-01 -0.46432544208E-01  0.71846373321E-01  0.94470399957E+00  0.93800000000E+00 0.  1.
         22    1    1    2    0    0 -0.23597827053E+00 -0.21051412706E+00  0.17959057199E+01  0.18235348356E+01  0.00000000000E+00 0. -1.
</event>
<event>
 5    1  0.2111786E+001  0.1542530E+01  0.7818608E-02  0.3418203E+00
         11   -1    0    0    0    0  0.00000000000E+00  0.00000000000E+00  0.39999999674E+01  0.40000000000E+01  0.51100000000E-03 0. -1.
    9000002   -1    0    0    0    0 -0.00000000000E+00 -0.00000000000E+00  0.00000000000E+00  0.93800000000E+00  0.93800000000E+00 0.  1.
         11    1    1    2    0    0  0.28765109384E+00 -0.96407323681E-01  0.15822642355E+01  0.16110859369E+01  0.51100000000E-03 0. -1.
    9000002    1    1    2    0    0 -0.85458391321E-01 -0.68957439670E-01  0.50972009841E-01  0.94578031853E+00  0.93800000000E+00 0.  1.
         22    1    1    2    0    0 -0.20219270252E+00  0.16536476335E+00  0.23667637220E+01  0.23811337446E+01  0.00000000000E+00 0. -1.
</event>
<event>
 5    1  0.2111786E+001  0.1548632E+01  0.7818608E-02  0.3411076E+00
         11   -1    0    0    0    0  0.00000000000E+00  0.00000000000E+00  0.39999999674E+01  0.40000000000E+01  0.51100000000E-03 0. -1.
    9000002   -1    0    0    0    0 -0.00000000000E+00 -0.00000000000E+00  0.00000000000E+00  0.93800000000E+00  0.93800000000E+00 0. -1.
         11    1    1    2    0    0 -0.18331170528E+00  0.21711715622E+00  0.24423182083E+01  0.24587926981E+01  0.51100000000E-03 0. -1.
    9000002    1    1    2    0    0  0.56239576530E-01  0.25525073357E-02  0.40089362018E-01  0.94054269558E+00  0.93800000000E+00 0. -1.
         22    1    1    2    0    0  0.12707212875E+00 -0.21966966356E+00  0.15175923971E+01  0.15386646063E+01  0.00000000000E+00 0. -1.
</event>
<event>
 5    1  0.2111786E+001  0.1542634E+01  0.7818608E-02  0.3418081E+00
         11   -1    0    0    0    0  0.00000000000E+00  0.00000000000E+00  0.39999999674E+01  0.40000000000E+01  0.51100000000E-03 0.  1.
    9000002   -1    0    0    0    0 -0.00000000000E+00 -0.00000000000E+00  0.00000000000E+00  0.93800000000E+00  0.93800000000E+00 0. -1.
         11    1    1    2    0    0  0.87875148660E-01  0.22932083078E+00  0.30954530683E+01  0.31051795511E+01  0.51100000000E-03 0.  1.
    9000002    1    1    2    0    0 -0.15987473321E+00  0.61974371669E-02  0.60378539147E-01  0.95346101469E+00  0.93800000000E+00 0. -1.
         22    1    1    2    0    0  0.71999584550E-01 -0.23551826795E+00  0.84416835987E+00  0.87935943420E+00  0.00000000000E+00 0.  1.
</event>
<event>
 5    1  0.2111786E+001  0.1592164E+01  0.7818608E-02  0.3361912E+00
         11   -1    0    0    0    0  0.00000000000E+00  0.00000000000E+00  0.39999999674E+01  0.40000000000E+01  0.51100000000E-03 0. -1.
    9000002   -1    0    0    0    0 -0.00000000000E+00 -0.00000000000E+00  0.00000000000E+00  0.93800000000E+00  0.93800000000E+00 0. -1.
         11    1    1    2    0    0  0.72090677764E-01 -0.20472945720E-01  0.96575478118E+00  0.96865822962E+00  0.51100000000E-03 0. -1.
    9000002    1    1    2    0    0  0.60171483410E-01  0.17486806574E+00  0.28243629217E-01  0.95647328788E+00  0.93800000000E+00 0. -1.
         22    1    1    2    0    0 -0.13226216117E+00 -0.15439512002E+00  0.30060015570E+01  0.30128684825E+01  0.00000000000E+00 0. -1.
</event>
<event>
 5    1  0.2111786E+001  0.1526887E+01  0.7818608E-02  0.3436752E+00
         11   -1    0    0    0    0  0.00000000000E+00  0.00000000000E+00  0.39999999674E+01  0.40000000000E+01  0.51100000000E-03 0.  1.
    9000002   -1    0    0    0    0 -0.00000000000E+00 -0.00000000000E+00  0.00000000000E+00  0.93800000000E+00  0.93800000000E+00 0.  1.
         11    1    1    2    0    0  0.15597218313E+00 -0.31986589843E+00  0.21987061685E+01  0.22273191490E+01  0.51100000000E-03 0.  1.
    9000002    1    1    2    0    0 -0.21009648582E-01  0.56435208232E-01  0.57222609710E-01  0.94167126171E+00  0.93800000000E+00 0.  1.
         22    1    1    2    0    0 -0.13496253455E+00  0.26343069019E+00  0.17440711891E+01  0.17690095893E+01  0.00000000000E+00 0.  1.
</event>
<event>
 5    1  0.2111786E+001  0.1560647E+01  0.7818608E-02  0.3397215E+00
         11   -1    0    0    0    0  0.00000000000E+00  0.00000000000E+00  0.39999999674E+01  0.40000000000E+01  0.51100000000E-03 0. -1.
    9000002   -1    0    0    0    0 -0.00000000000E+00 -0.00000000000E+00  0.00000000000E+00  0.93800000000E+00  0.93800000000E+00 0. -1.
         11    1    1    2    0    0 -0.80369400303E-01  0.20513884940E+00  0.24559615011E+01  0.24658240700E+01  0.51100000000E-03 0. -1.
    9000002    1    1    2    0    0  0.19528788959E-01  0.25218031991E-01  0.29493681368E-01  0.93900543128E+00  0.93800000000E+00 0. -1.
         22    1    1    2    0    0  0.60840611343E-01 -0.23035688139E+00  0.15145447849E+01  0.15331704988E+01  0.00000000000E+00 0.  1.
</event>
<event>
 5    1  0.2111786E+001  0.1522140E+01  0.7818608E-02  0.3442462E+00
         11   -1    0    0    0    0  0.00000000000E+00  0.00000000000E+00  0.39999999674E+01  0.40000000000E+01  0.51100000000E-03 0.  1.
    9000002   -1    0    0    0    0 -0.00000000000E+00 -0.00000000000E+00  0.00000000000E+00  0.93800000000E+00  0.93800000000E+00 0. -1.
         11    1    1    2    0    0 -0.15808201978E+00 -0.38549698502E+00  0.18287020485E+01  0.18755663928E+01  0.51100000000E-03 0.  1.
    9000002    1    1    2    0    0  0.75380615674E-01  0.15875757875E+00  0.80455374364E-01  0.95770730043E+00  0.93800000000E+00 0. -1.
         22    1    1    2    0    0  0.82701404109E-01  0.22673940627E+00  0.20908425445E+01  0.21047263068E+01  0.00000000000E+00 0.  1.
</event>
<event>
 5    1  0.2111786E+001  0.1430801E+01  0.7818608E-02  0.3560317E+00
         11   -1    0    0    0    0  0.00000000000E+00  0.00000000000E+00  0.39999999674E+01  0.40000000000E+01  0.51100000000E-03 0.  1.
    9000002   -1    0    0    0    0 -0.00000000000E+00 -0.00000000000E+00  0.00000000000E+00  0.93800000000E+00  0.93800000000E+00 0.  1.
         11    1    1    2    0    0  0.57168174736E+00  0.29014668135E+00  0.25728246037E+01  0.26514961474E+01  0.51100000000E-03 0.  1.
    9000002    1    1    2    0    0 -0.17675194685E+00 -0.28679217745E+00  0.22586044023E+00  0.10219334334E+01  0.93800000000E+00 0.  1.
         22    1    1    2    0    0 -0.39492980052E+00 -0.33545039001E-02  0.12013149234E+01  0.12645704193E+01  0.00000000000E+00 0.  1.
</event>
<event>
 5    1  0.2111786E+001  0.1589462E+01  0.7818608E-02  0.3364881E+00
         11   -1    0    0    0    0  0.00000000000E+00  0.00000000000E+00  0.39999999674E+01  0.40000000000E+01  0.51100000000E-03 0.  1.
    9000002   -1    0    0    0    0 -0.00000000000E+00 -0.00000000000E+00  0.00000000000E+00  0.93800000000E+00  0.93800000000E+00 0.  1.
         11    1    1    2    0    0  0.25512571305E+00  0.10423995622E+00  0.19971909567E+01  0.20161168311E+01  0.51100000000E-03 0.  1.
    9000002    1    1    2    0    0 -0.57482141848E+00  0.12445592652E-01  0.23940160515E+00  0.11259359149E+01  0.93800000000E+00 0.  1.
         22    1    1    2    0    0  0.31969570543E+00 -0.11668554887E+00  0.17634074055E+01  0.17959472540E+01  0.00000000000E+00 0. -1.
</event>
<event>
 5    1  0.2111786E+001  0.1527513E+01  0.7818608E-02  0.3436002E+00
         11   -1    0    0    0    0  0.00000000000E+00  0.00000000000E+00  0.39999999674E+01  0.40000000000E+01  0.51100000000E-03 0.  1.
    9000002   -1    0    0    0    0 -0.00000000000E+00 -0.00000000000E+00  0.00000000000E+00  0.93800000000E+00  0.93800000000E+00 0. -1.
         11    1    1    2    0    0 -0.37305564622E+00 -0.47005612507E-02  0.19890309375E+01  0.20237185925E+01  0.51100000000E-03 0.  1.
    9000002    1    1    2    0    0  0.10250156156E+00  0.81210308932E-01  0.66297967218E-01  0.94938985926E+00  0.93800000000E+00 0. -1.
         22    1    1    2    0    0  0.27055408466E+00 -0.76509747681E-01  0.19446710627E+01  0.19648915482E+01  0.00000000000E+00 0. -1.
</event>
<event>
 5    1  0.2111786E+001  0.1458185E+01  0.7818608E-02  0.3523300E+00
         11   -1    0    0    0    0  0.00000000000E+00  0.00000000000E+00  0.39999999674E+01  0.40000000000E+01  0.51100000000E-03 0. -1.
    9000002   -1    0    0    0    0 -0.00000000000E+00 -0.00000000000E+00  0.00000000000E+00  0.93800000000E+00  0.93800000000E+00 0. -1.
         11    1    1    2    0    0 -0.49044916049E+00 -0.22033981682E+00  0.23098024731E+01  0.23715559744E+01  0.51100000000E-03 0. -1.
    9000002    1    1    2    0    0  0.15397178733E+00  0.41181837476E-01  0.12991956239E+00  0.96027410031E+00  0.93800000000E+00 0. -1.
         22    1    1    2    0    0  0.33647737316E+00  0.17915797935E+00  0.15602779319E+01  0.16061699253E+01  0.00000000000E+00 0. -1.
</event>
<event>
 5    1  0.2111786E+001  0.1597835E+01  0.7818608E-02  0.3355716E+00
         11   -1    0    0    0    0  0.00000000000E+00  0.00000000000E+00  0.39999999674E+01  0.40000000000E+01  0.51100000000E-03 0.  1.
    9000002   -1    0    0    0    0 -0.00000000000E+00 -0.00000000000E+00  0.00000000000E+00  0.93800000000E+00  0.93800000000E+00 0. -1.
         11    1    1    2    0    0 -0.31468343577E-01  0.14109797539E+00  0.13702735603E+01  0.13778783642E+01  0.51100000000E-03 0.  1.
    9000002    1    1    2    0    0  0.21046638658E+00 -0.33030855722E+00  0.10488705485E+00  0.10218831328E+01  0.93800000000E+00 0. -1.
         22    1    1    2    0    0 -0.17899804300E+00  0.18921058183E+00  0.25248393522E+01  0.25382385030E+01  0.00000000000E+00 0.  1.
</event>
<event>
 5    1  0.2111786E+001  0.1531821E+01  0.7818608E-02  0.3430858E+00
         11   -1    0    0    0    0  0.00000000000E+00  0.00000000000E+00  0.39999999674E+01  0.40000000000E+01  0.51100000000E-03 0.  1.
    9000002   -1    0    0    0    0 -0.00000000000E+00 -0.00000000000E+00  0.00000000000E+00  0.93800000000E+00  0.93800000000E+00 0.  1.
         11    1    1    2    0    0 -0.89652036371E-01 -0.31949660973E+00  0.10982711122E+01  0.11473078350E+01  0.51100000000E-03 0.  1.
    9000002    1    1    2    0    0  0.17524060672E+00  0.13824275575E+00  0.86199297749E-01  0.96803649141E+00  0.93800000000E+00 0.  1.
         22    1    1    2    0    0 -0.85588570353E-01  0.18125385398E+00  0.28155295575E+01  0.28226556736E+01  0.00000000000E+00 0.  1.
</event>
<event>
 5    1  0.2111786E+001  0.1516470E+01  0.7818608E-02  0.3449332E+00
         11   -1    0    0    0    0  0.00000000000E+00  0.00000000000E+00  0.39999999674E+01  0.40000000000E+01  0.51100000000E-03 0. -1.
    9000002   -1    0    0    0    0 -0.00000000000E+00 -0.00000000000E+00  0.00000000000E+00  0.93800000000E+00  0.93800000000E+00 0. -1.
         11    1    1    2    0    0 -0.41370467503E+00 -0.77695937743E-02  0.15116407276E+01  0.15672491427E+01  0.51100000000E-03 0. -1.
    9000002    1    1    2    0    0  0.19228749848E+00  0.26672445183E-01  0.89975767075E-01  0.96209435092E+00  0.93800000000E+00 0. -1.
         22    1    1    2    0    0  0.22141717654E+00 -0.18902851408E-01  0.23983834727E+01  0.24086565064E+01  0.00000000000E+00 0. -1.
</event>
<event>
 5    1  0.2111786E+001  0.1563221E+01  0.7818608E-02  0.3394276E+00
         11   -1    0    0    0    0  0.00000000000E+00  0.00000000000E+00  0.39999999674E+01  0.40000000000E+01  0.51100000000E-03 0.  1.
    9000002   -1    0    0    0    0 -0.00000000000E+00 -0.00000000000E+00  0.00000000000E+00  0.93800000000E+00  0.93800000000E+00 0. -1.
         11    1    1    2    0    0  0.17834173963E+00 -0.25414217717E-01  0.10953781625E+01  0.11100924460E+01  0.51100000000E-03 0.  1.
    9000002    1    1    2    0    0  0.86721267939E-01 -0.39940241189E-01  0.33089493180E-01  0.94342711204E+00  0.93800000000E+00 0. -1.
         22    1    1    2    0    0 -0.26506300757E+00  0.65354458906E-01  0.28715323117E+01  0.28844804420E+01  0.00000000000E+00 0.  1.
</event>
<event>
 5    1  0.2111786E+001  0.1526321E+01  0.7818608E-02  0.3437431E+00
         11   -1    0    0    0    0  0.00000000000E+00  0.00000000000E+00  0.39999999674E+01  0.40000000000E+01  0.51100000000E-03 0.  1.
    9000002   -1    0    0    0    0 -0.00000000000E+00 -0.00000000000E+00  0.00000000000E+00  0.93800000000E+00  0.93800000000E+00 0.  1.
         11    1    1    2    0    0 -0.24770286768E+00  0.80815778618E-01  0.73190395012E+00  0.77689867682E+00  0.51100000000E-03 0.  1.
    9000002    1    1    2    0    0  0.38964599654E-01  0.34738697167E-01  0.57026977903E-01  0.94118069111E+00  0.93800000000E+00 0.  1.
         22    1    1    2    0    0  0.20873826803E+00 -0.11555447578E+00  0.32110690393E+01  0.32199206321E+01  0.00000000000E+00 0.  1.
</event>
<event>
 5    1  0.2111786E+001  0.1579003E+01  0.7818608E-02  0.3376473E+00
         11   -1    0    0    0    0  0.00000000000E+00  0.00000000000E+00  0.39999999674E+01  0.40000000000E+01  0.51100000000E-03 0.  1.
    9000002   -1    0    0    0    0 -0.00000000000E+00 -0.00000000000E+00  0.00000000000E+00  0.93800000000E+00  0.93800000000E+00 0.  1.
         11    1    1    2    0    0 -0.89596551627E-01  0.77707113553E-01  0.86624991318E+00  0.87433123629E+00  0.51100000000E-03 0.  1.
    9000002    1    1    2    0    0 -0.47430411597E-01  0.11222223546E+00  0.25103162020E-01  0.94621226097E+00  0.93800000000E+00 0.  1.
         22    1    1    2    0    0  0.13702696322E+00 -0.18992934901E+00  0.31086468922E+01  0.31174565027E+01  0.00000000000E+00 0.  1.
</event>
<event>
 5    1  0.2111786E+001  0.1515199E+01  0.7818608E-02  0.3450880E+00
         11   -1    0    0    0    0  0.00000000000E+00  0.00000000000E+00  0.39999999674E+01  0.40000000000E+01  0.51100000000E-03 0.  1.
    9000002   -1    0    0    0    0 -0.00000000000E+00 -0.00000000000E+00  0.00000000000E+00  0.93800000000E+00  0.93800000000E+00 0.  1.
         11    1    1    2    0    0 -0.22555707864E+00  0.56297648758E-01  0.13037616233E+01  0.13243262636E+01  0.51100000000E-03 0.  1.
    9000002    1    1    2    0    0 -0.28867402952E+00  0.45098987069E-01  0.12595304880E+00  0.99049219303E+00  0.93800000000E+00 0.  1.
         22    1    1    2    0    0  0.51423110816E+00 -0.10139663583E+00  0.25702852953E+01  0.26231815434E+01  0.00000000000E+00 0.  1.
</event>
<event>
 5    1  0.2111786E+001  0.1527752E+01  0.7818608E-02  0.3435716E+00
         11   -1    0    0    0    0  0.00000000000E+00  0.00000000000E+00  0.39999999674E+01  0.40000000000E+01  0.51100000000E-03 0.  1.
    9000002   -1    0    0    0    0 -0.00000000000E+00 -0.00000000000E+00  0.00000000000E+00  0.93800000000E+00  0.93800000000E+00 0.  1.
         11    1    1    2    0    0 -0.39585500841E-02 -0.25047682703E+00  0.65320142515E+00  0.69959036152E+00  0.51100000000E-03 0.  1.
    9000002    1    1    2    0    0 -0.37126514163E-01  0.47271384133E-01  0.56536616899E-01  0.94162272215E+00  0.93800000000E+00 0.  1.
         22    1    1    2    0    0  0.41085064247E-01  0.20320544290E+00  0.32902619253E+01  0.32967869163E+01  0.00000000000E+00 0.  1.
</event>
<event>
 5    1  0.2111786E+001  0.1558972E+01  0.7818608E-02  0.3399134E+00
         11   -1    0    0    0    0  0.00000000000E+00  0.00000000000E+00  0.39999999674E+01  0.40000000000E+01  0.51100000000E-03 0. -1.
    9000002   -1    0    0    0    0 -0.00000000000E+00 -0.00000000000E+00  0.00000000000E+00  0.93800000000E+00  0.93800000000E+00 0. -1.
         11    1    1    2    0    0  0.85785187849E-01 -0.16235577513E+00  0.63554861210E+00  0.66154425070E+00  0.51100000000E-03 0. -1.
    9000002    1    1    2    0    0  0.16255553530E+00  0.13502518066E+00  0.60863112339E-01  0.96343366140E+00  0.93800000000E+00 0. -1.
         22    1    1    2    0    0 -0.24834072315E+00  0.27330594465E-01  0.33035882429E+01  0.33130220879E+01  0.00000000000E+00 0. -1.
</event>
<event>
 5    1  0.2111786E+001  0.1592912E+01  0.7818608E-02  0.3361092E+00
         11   -1    0    0    0    0  0.00000000000E+00  0.00000000000E+00  0.39999999674E+01  0.40000000000E+01  0.51100000000E-03 0. -1.
    9000002   -1    0    0    0    0 -0.00000000000E+00 -0.00000000000E+00  0.00000000000E+00  0.93800000000E+00  0.93800000000E+00 0. -1.
         11    1    1    2    0    0 -0.55294327966E+00  0.17705382873E+00  0.16514719647E+01  0.17505582653E+01  0.51100000000E-03 0. -1.
    9000002    1    1    2    0    0  0.96692265977E+00 -0.18148603250E+00  0.78428295914E+00  0.15693375577E+01  0.93800000000E+00 0. -1.
         22    1    1    2    0    0 -0.41397938011E+00  0.44322037727E-02  0.15642450435E+01  0.16181041770E+01  0.00000000000E+00 0. -1.
</event>
<event>
 5    1  0.2111786E+001  0.1535907E+01  0.7818608E-02  0.3426008E+00
         11   -1    0    0    0    0  0.00000000000E+00  0.00000000000E+00  0.39999999674E+01  0.40000000000E+01  0.51100000000E-03 0.  1.
    9000002   -1    0    0    0    0 -0.00000000000E+00 -0.00000000000E+00  0.00000000000E+00  0.93800000000E+00  0.93800000000E+00 0. -1.
         11    1    1    2    0    0 -0.12427408594E-01 -0.18159282971E+00  0.30574959505E+01  0.30629090983E+01  0.51100000000E-03 0.  1.
    9000002    1    1    2    0    0  0.14909602694E+00 -0.66294254482E-01  0.66406802824E-01  0.95439950591E+00  0.93800000000E+00 0. -1.
         22    1    1    2    0    0 -0.13666861835E+00  0.24788708419E+00  0.87609721407E+00  0.92069139577E+00  0.00000000000E+00 0. -1.
</event>
<event>
 5    1  0.2111786E+001  0.1465840E+01  0.7818608E-02  0.3513222E+00
         11   -1    0    0    0    0  0.00000000000E+00  0.00000000000E+00  0.39999999674E+01  0.40000000000E+01  0.51100000000E-03 0.  1.
    9000002   -1    0    0    0    0 -0.00000000000E+00 -0.00000000000E+00  0.00000000000E+00  0.93800000000E+00  0.93800000000E+00 0.  1.
         11    1    1    2    0    0 -0.96960941504E-01  0.28077430139E+00  0.36535225802E+00  0.47086958499E+00  0.51100000000E-03 0.  1.
    9000002    1    1    2    0    0  0.31279398829E+00 -0.13551671830E+00  0.19405221522E+00  0.10167129006E+01  0.93800000000E+00 0.  1.
         22    1    1    2    0    0 -0.21583304679E+00 -0.14525758309E+00  0.34405954941E+01  0.34504175144E+01  0.00000000000E+00 0.  1.
</event>
<event>
 5    1  0.2111786E+001  0.1569040E+01  0.7818608E-02  0.3387667E+00
         11   -1    0    0    0    0  0.00000000000E+00  0.00000000000E+00  0.39999999674E+01  0.40000000000E+01  0.51100000000E-03 0.  1.
    9000002   -1    0    0    0    0 -0.00000000000E+00 -0.00000000000E+00  0.00000000000E+00  0.93800000000E+00  0.93800000000E+00 0.  1.
         11    1    1    2    0    0  0.19901501621E-01 -0.13606479300E+00  0.27535310717E+01  0.27569626986E+01  0.51100000000E-03 0.  1.
    9000002    1    1    2    0    0 -0.61578540808E-01 -0.82495726244E-01  0.29707082942E-01  0.94409955636E+00  0.93800000000E+00 0.  1.
         22    1    1    2    0    0  0.41677039187E-01  0.21856051924E+00  0.12167618127E+01  0.12369377450E+01  0.00000000000E+00 0.  1.
</event>
<event>
 5    1  0.2111786E+001  0.1572153E+01  0.7818608E-02  0.3384153E+00
         11   -1    0    0    0    0  0.00000000000E+00  0.00000000000E+00  0.39999999674E+01  0.40000000000E+01  0.51100000000E-03 0. -1.
    9000002   -1    0    0    0    0 -0.00000000000E+00 -0.00000000000E+00  0.00000000000E+00  0.93800000000E+00  0.93800000000E+00 0.  1.
         11    1    1    2    0    0 -0.55836645331E-01  0.11220714513E+00  0.96236958285E+00  0.97049659943E+00  0.51100000000E-03 0. -1.
    9000002    1    1    2    0    0 -0.10583107570E+00  0.15797364622E+00  0.44768478048E-01  0.95812530815E+00  0.93800000000E+00 0.  1.
         22    1    1    2    0    0  0.16166772103E+00 -0.27018079135E+00  0.29928619065E+01  0.30093780924E+01  0.00000000000E+00 0. -1.
</event>
<event>
 5    1  0.2111786E+001  0.1450941E+01  0.7818608E-02  0.3532944E+00
         11   -1    0    0    0    0  0.00000000000E+00  0.00000000000E+00  0.39999999674E+01  0.40000000000E+01  0.51100000000E-03 0. -1.
    9000002   -1    0    0    0    0 -0.00000000000E+00 -0.00000000000E+00  0.00000000000E+00  0.93800000000E+00  0.93800000000E+00 0. -1.
         11    1    1    2    0    0 -0.54889142979E+00 -0.60271329878E-01  0.15768001763E+01  0.16706925187E+01  0.51100000000E-03 0. -1.
    9000002    1    1    2    0    0  0.23264787333E+00 -0.24923300324E-01  0.15922689793E+00  0.97976701766E+00  0.93800000000E+00 0. -1.
         22    1    1    2    0    0  0.31624355646E+00  0.85194630201E-01  0.22639728931E+01  0.22875404636E+01  0.00000000000E+00 0. -1.
</event>
<event>
 5    1  0.2111786E+001  0.1577780E+01  0.7818608E-02  0.3377839E+00
         11   -1    0    0    0    0  0.00000000000E+00  0.00000000000E+00  0.39999999674E+01  0.40000000000E+01  0.51100000000E-03 0.  1.
    9000002   -1    0    0    0    0 -0.00000000000E+00 -0.00000000000E+00  0.00000000000E+00  0.93800000000E+00  0.93800000000E+00 0. -1.
         11    1    1    2    0    0 -0.17913068844E+00  0.74080463579E-01  0.13329918999E+01  0.13470127635E+01  0.51100000000E-03 0.  1.
    9000002    1    1    2    0    0  0.31492717416E-01 -0.22646595202E+00  0.51447338204E-01  0.96683475697E+00  0.93800000000E+00 0. -1.
         22    1    1    2    0    0  0.14763797103E+00  0.15238548844E+00  0.26155607292E+01  0.26241524795E+01  0.00000000000E+00 0.  1.
</event>
<event>
 5    1  0.2111786E+001  0.1569609E+01  0.7818608E-02  0.3387024E+00
         11   -1    0    0    0    0  0.00000000000E+00  0.00000000000E+00  0.39999999674E+01  0.40000000000E+01  0.51100000000E-03 0. -1.
    9000002   -1    0    0    0    0 -0.00000000000E+00 -0.00000000000E+00  0.00000000000E+00  0.93800000000E+00  0.93800000000E+00 0. -1.
         11    1    1    2    0    0  0.58917978602E-01  0.13270880002E+00  0.56426081782E+00  0.58264353206E+00  0.51100000000E-03 0. -1.
    9000002    1    1    2    0    0  0.15120233943E+00 -0.71159902362E-01  0.41091576704E-01  0.95365528197E+00  0.93800000000E+00 0. -1.
         22    1    1    2    0    0 -0.21012031803E+00 -0.61548897662E-01  0.33946475728E+01  0.34017011860E+01  0.00000000000E+00 0. -1.
</event>
<event>
 5    1  0.2111786E+001  0.1575690E+01  0.7818608E-02  0.3380179E+00
         11   -1    0    0    0    0  0.00000000000E+00  0.00000000000E+00  0.39999999674E+01  0.40000000000E+01  0.51100000000E-03 0. -1.
    9000002   -1    0    0    0    0 -0.00000000000E+00 -0.00000000000E+00  0.00000000000E+00  0.93800000000E+00  0.93800000000E+00 0. -1.
         11    1    1    2    0    0 -0.71182291463E-01  0.12376857538E+00  0.36946932852E+00  0.39609774640E+00  0.51100000000E-03 0. -1.
    9000002    1    1    2    0    0  0.23466811014E+00 -0.24775460009E+00  0.97475707624E-01  0.10028943002E+01  0.93800000000E+00 0. -1.
         22    1    1    2    0    0 -0.16348581868E+00  0.12398602471E+00  0.35330549312E+01  0.35390079534E+01  0.00000000000E+00 0. -1.
</event>
<event>
 5    1  0.2111786E+001  0.1567446E+01  0.7818608E-02  0.3389472E+00
         11   -1    0    0    0    0  0.00000000000E+00  0.00000000000E+00  0.39999999674E+01  0.40000000000E+01  0.51100000000E-03 0. -1.
    9000002   -1    0    0    0    0 -0.00000000000E+00 -0.00000000000E+00  0.00000000000E+00  0.93800000000E+00  0.93800000000E+00 0. -1.
         11    1    1    2    0    0 -0.12167217381E+00  0.16571050327E+00  0.16132982799E+01  0.16263442716E+01  0.51100000000E-03 0. -1.
    9000002    1    1    2    0    0 -0.59409569847E-01 -0.28421015609E-01  0.26647568679E-01  0.94068663434E+00  0.93800000000E+00 0. -1.
         22    1    1    2    0    0  0.18108174366E+00 -0.13728948766E+00  0.23600541188E+01  0.23709690940E+01  0.00000000000E+00 0. -1.
</event>
<event>
 5    1  0.2111786E+001  0.1576218E+01  0.7818608E-02  0.3379587E+00
         11   -1    0    0    0    0  0.00000000000E+00  0.00000000000E+00  0.39999999674E+01  0.40000000000E+01  0.51100000000E-03 0.  1.
    9000002   -1    0    0    0    0 -0.00000000000E+00 -0.00000000000E+00  0.00000000000E+00  0.93800000000E+00  0.93800000000E+00 0.  1.
         11    1    1    2    0    0  0.81862389780E-01  0.74323516148E-01  0.47383429511E+00  0.48656411320E+00  0.51100000000E-03 0.  1.
    9000002    1    1    2    0    0  0.12135715095E+00 -0.24420833361E-01  0.27515267178E-01  0.94653316113E+00  0.93800000000E+00 0.  1.
         22    1    1    2    0    0 -0.20321954073E+00 -0.49902682787E-01  0.34986504051E+01  0.35049027257E+01  0.00000000000E+00 0.  1.
</event>
<event>
 5    1  0.2111786E+001  0.1534857E+01  0.7818608E-02  0.3427251E+00
         11   -1    0    0    0    0  0.00000000000E+00  0.00000000000E+00  0.39999999674E+01  0.40000000000E+01  0.51100000000E-03 0.  1.
    9000002   -1    0    0    0    0 -0.00000000000E+00 -0.00000000000E+00  0.00000000000E+00  0.93800000000E+00  0.93800000000E+00 0.  1.
         11    1    1    2    0    0 -0.25293644785E+00 -0.26195932115E-01  0.28042381566E+01  0.28157441243E+01  0.51100000000E-03 0.  1.
    9000002    1    1    2    0    0 -0.36564165185E-01  0.37788748724E-01  0.50407627008E-01  0.94082403061E+00  0.93800000000E+00 0.  1.
         22    1    1    2    0    0  0.28950061304E+00 -0.11592816609E-01  0.11453541837E+01  0.11814318451E+01  0.00000000000E+00 0.  1.
</event>
<event>
 5    1  0.2111786E+001  0.1521114E+01  0.7818608E-02  0.3443701E+00
         11   -1    0    0    0    0  0.00000000000E+00  0.00000000000E+00  0.39999999674E+01  0.40000000000E+01  0.51100000000E-03 0.  1.
    9000002   -1    0    0    0    0 -0.00000000000E+00 -0.00000000000E+00  0.00000000000E+00  0.93800000000E+00  0.93800000000E+00 0. -1.
         11    1    1    2    0    0  0.40637899379E+00 -0.25450806643E+00  0.27161514961E+01  0.27581510933E+01  0.51100000000E-03 0.  1.
    9000002    1    1    2    0    0 -0.18347069379E+00  0.16985020338E+00  0.10417997937E+00  0.97632374506E+00  0.93800000000E+00 0. -1.
         22    1    1    2    0    0 -0.22290829999E+00  0.84657863056E-01  0.11796684919E+01  0.12035251617E+01  0.00000000000E+00 0.  1.
</event>
<event>
 5    1  0.2111786E+001  0.1561420E+01  0.7818608E-02  0.3396332E+00
         11   -1    0    0    0    0  0.00000000000E+00  0.00000000000E+00  0.39999999674E+01  0.40000000000E+01  0.51100000000E-03 0. -1.
    9000002   -1    0    0    0    0 -0.00000000000E+00 -0.00000000000E+00  0.00000000000E+00  0.93800000000E+00  0.93800000000E+00 0.  1.
         11    1    1    2    0    0  0.11642764642E+00  0.13502141005E+00  0.58225220083E+00  0.60893683130E+00  0.51100000000E-03 0. -1.
    9000002    1    1    2    0    0  0.86559918779E-01 -0.18311330686E+00  0.56427335918E-01  0.96127579129E+00  0.93800000000E+00 0.  1.
         22    1    1    2    0    0 -0.20298756520E+00  0.48091896808E-01  0.33613204306E+01  0.33677873774E+01  0.00000000000E+00 0. -1.
</event>
<event>
 5    1  0.2111786E+001  0.1565034E+01  0.7818608E-02  0.3392211E+00
         11   -1    0    0    0    0  0.00000000000E+00  0.00000000000E+00  0.39999999674E+01  0.40000000000E+01  0.51100000000E-03 0. -1.
    9000002   -1    0    0    0    0 -0.00000000000E+00 -0.00000000000E+00  0.00000000000E+00  0.93800000000E+00  0.93800000000E+00 0.  1.
         11    1    1    2    0    0  0.97820277829E-01 -0.14801763802E+00  0.21078762362E+01  0.21153298836E+01  0.51100000000E-03 0. -1.
    9000002    1    1    2    0    0 -0.13855440482E-01 -0.10628461709E+00  0.33339112975E-01  0.94469248410E+00  0.93800000000E+00 0.  1.
         22    1    1    2    0    0 -0.83964837346E-01  0.25430225511E+00  0.18587846182E+01  0.18779776323E+01  0.00000000000E+00 0.  1.
</event>
<event>
 5    1  0.2111786E+001  0.1579863E+01  0.7818608E-02  0.3375513E+00
         11   -1    0    0    0    0  0.00000000000E+00  0.00000000000E+00  0.39999999674E+01  0.40000000000E+01  0.51100000000E-03 0.  1.
    9000002   -1    0    0    0    0 -0.00000000000E+00 -0.00000000000E+00  0.00000000000E+00  0.93800000000E+00  0.93800000000E+00 0.  1.
         11    1    1    2    0    0 -0.10082081399E+00  0.24690978009E-01  0.40688025615E+00  0.41991223475E+00  0.51100000000E-03 0.  1.
    9000002    1    1    2    0    0 -0.26960356019E-01 -0.28526454628E+00  0.70268878212E-01  0.98330282081E+00  0.93800000000E+00 0.  1.
         22    1    1    2    0    0  0.12778117001E+00  0.26057356827E+00  0.35228508330E+01  0.35347849444E+01  0.00000000000E+00 0.  1.
</event>
<event>
 5    1  0.2111786E+001  0.1557841E+01  0.7818608E-02  0.3400433E+00
         11   -1    0    0    0    0  0.00000000000E+00  0.00000000000E+00  0.39999999674E+01  0.40000000000E+01  0.51100000000E-03 0.  1.
    9000002   -1    0    0    0    0 -0.00000000000E+00 -0.00000000000E+00  0.00000000000E+00  0.93800000000E+00  0.93800000000E+00 0. -1.
         11    1    1    2    0    0 -0.12716003585E+00  0.81807152249E-01  0.39998785684E+00  0.42761271218E+00  0.51100000000E-03 0.  1.
    9000002    1    1    2    0    0 -0.10324244218E+00 -0.20229453951E+00  0.66575778032E-01  0.96739775522E+00  0.93800000000E+00 0. -1.
         22    1    1    2    0    0  0.23040247803E+00  0.12048738726E+00  0.35334363325E+01  0.35429895326E+01  0.00000000000E+00 0.  1.
</event>
<event>
 5    1  0.2111786E+001  0.1503926E+01  0.7818608E-02  0.3464729E+00
         11   -1    0    0    0    0  0.00000000000E+00  0.00000000000E+00  0.39999999674E+01  0.40000000000E+01  0.51100000000E-03 0. -1.
    9000002   -1    0    0    0    0 -0.00000000000E+00 -0.00000000000E+00  0.00000000000E+00  0.93800000000E+00  0.93800000000E+00 0. -1.
         11    1    1    2    0    0 -0.33389787175E+00  0.11839808849E+00  0.23081347017E+01  0.23351642252E+01  0.51100000000E-03 0. -1.
    9000002    1    1    2    0    0  0.32359470350E-01  0.11797380672E+00  0.83677349010E-01  0.94963722185E+00  0.93800000000E+00 0. -1.
         22    1    1    2    0    0  0.30153840140E+00 -0.23637189521E+00  0.16081879166E+01  0.16531985530E+01  0.00000000000E+00 0.  1.
</event>
<event>
 5    1  0.2111786E+001  0.1584728E+01  0.7818608E-02  0.3370108E+00
         11   -1    0    0    0    0  0.00000000000E+00  0.00000000000E+00  0.39999999674E+01  0.40000000000E+01  0.51100000000E-03 0.  1.
    9000002   -1    0    0    0    0 -0.00000000000E+00 -0.00000000000E+00  0.00000000000E+00  0.93800000000E+00  0.93800000000E+00 0. -1.
         11    1    1    2    0    0 -0.32950501055E-01 -0.17217264862E+00  0.20265261845E+01  0.20340938509E+01  0.51100000000E-03 0.  1.
    9000002    1    1    2    0    0 -0.21425397017E+00  0.27446696325E+00  0.93397142714E-01  0.10048899959E+01  0.93800000000E+00 0. -1.
         22    1    1    2    0    0  0.24720447123E+00 -0.10229431462E+00  0.18800766401E+01  0.18990161532E+01  0.00000000000E+00 0.  1.
</event>
<event>
 5    1  0.2111786E+001  0.1509255E+01  0.7818608E-02  0.3458155E+00
         11   -1    0    0    0    0  0.00000000000E+00  0.00000000000E+00  0.39999999674E+01  0.40000000000E+01  0.51100000000E-03 0. -1.
    9000002   -1    0    0    0    0 -0.00000000000E+00 -0.00000000000E+00  0.00000000000E+00  0.93800000000E+00  0.93800000000E+00 0. -1.
         11    1    1    2    0    0  0.15761440513E+00  0.40540116538E+00  0.14438458600E+01  0.15079401627E+01  0.51100000000E-03 0. -1.
    9000002    1    1    2    0    0  0.20611410065E-01 -0.25576036625E+00  0.11659558095E+00  0.97942673267E+00  0.93800000000E+00 0. -1.
         22    1    1    2    0    0 -0.17822581519E+00 -0.14964079913E+00  0.24395585264E+01  0.24506331046E+01  0.00000000000E+00 0. -1.
</event>
<event>
 5    1  0.2111786E+001  0.1592553E+01  0.7818608E-02  0.3361486E+00
         11   -1    0    0    0    0  0.00000000000E+00  0.00000000000E+00  0.39999999674E+01  0.40000000000E+01  0.51100000000E-03 0. -1.
    9000002   -1    0    0    0    0 -0.00000000000E+00 -0.00000000000E+00  0.00000000000E+00  0.93800000000E+00  0.93800000000E+00 0.  1.
         11    1    1    2    0    0 -0.15084141670E-01  0.25275655942E+00  0.23896179269E+01  0.24029955279E+01  0.51100000000E-03 0. -1.
    9000002    1    1    2    0    0 -0.12340670477E+00 -0.46389805281E+00  0.16356166212E+00  0.10663146982E+01  0.93800000000E+00 0.  1.
         22    1    1    2    0    0  0.13849084644E+00  0.21114149339E+00  0.14468203784E+01  0.14686897739E+01  0.00000000000E+00 0. -1.
</event>
<event>
 5    1  0.2111786E+001  0.1592324E+01  0.7818608E-02  0.3361737E+00
         11   -1    0    0    0    0  0.00000000000E+00  0.00000000000E+00  0.39999999674E+01  0.40000000000E+01  0.51100000000E-03 0.  1.
    9000002   -1    0    0    0    0 -0.00000000000E+00 -0.00000000000E+00  0.00000000000E+00  0.93800000000E+00  0.93800000000E+00 0.  1.
         11    1    1    2    0    0 -0.15663371372E+00  0.13821015605E+00  0.10165369298E+01  0.10377782799E+01  0.51100000000E-03 0.  1.
    9000002    1    1    2    0    0  0.29659272093E+00 -0.34275830262E+00  0.14600098842E+00  0.10519556952E+01  0.93800000000E+00 0.  1.
         22    1    1    2    0    0 -0.13995900721E+00  0.20454814657E+00  0.28374620491E+01  0.28482660248E+01  0.00000000000E+00 0.  1.
</event>
<event>
 5    1  0.2111786E+001  0.1566927E+01  0.7818608E-02  0.3390060E+00
         11   -1    0    0    0    0  0.00000000000E+00  0.00000000000E+00  0.39999999674E+01  0.40000000000E+01  0.51100000000E-03 0. -1.
    9000002   -1    0    0    0    0 -0.00000000000E+00 -0.00000000000E+00  0.00000000000E+00  0.93800000000E+00  0.93800000000E+00 0. -1.
         11    1    1    2    0    0 -0.42011198459E+00  0.42234933566E+00  0.27993581263E+01  0.28620410936E+01  0.51100000000E-03 0. -1.
    9000002    1    1    2    0    0  0.32411031803E+00 -0.63120717185E+00  0.39895053124E+00  0.12419643789E+01  0.93800000000E+00 0. -1.
         22    1    1    2    0    0  0.96001666557E-01  0.20885783619E+00  0.80169130984E+00  0.83399452756E+00  0.00000000000E+00 0.  1.
</event>
<event>
 5    1  0.2111786E+001  0.1553814E+01  0.7818608E-02  0.3405069E+00
         11   -1    0    0    0    0  0.00000000000E+00  0.00000000000E+00  0.39999999674E+01  0.40000000000E+01  0.51100000000E-03 0.  1.
    9000002   -1    0    0    0    0 -0.00000000000E+00 -0.00000000000E+00  0.00000000000E+00  0.93800000000E+00  0.93800000000E+00 0.  1.
         11    1    1    2    0    0  0.46783972798E-01  0.29696751712E+00  0.27254475536E+01  0.27419779494E+01  0.51100000000E-03 0.  1.
    9000002    1    1    2    0    0 -0.21139733148E+00 -0.11708467467E+00  0.74545787803E-01  0.97149304026E+00  0.93800000000E+00 0.  1.
         22    1    1    2    0    0  0.16461335869E+00 -0.17988284245E+00  0.12000066259E+01  0.12245290103E+01  0.00000000000E+00 0.  1.
</event>
<event>
 5    1  0.2111786E+001  0.1554971E+01  0.7818608E-02  0.3403735E+00
         11   -1    0    0    0    0  0.00000000000E+00  0.00000000000E+00  0.39999999674E+01  0.40000000000E+01  0.51100000000E-03 0. -1.
    9000002   -1    0    0    0    0 -0.00000000000E+00 -0.00000000000E+00  0.00000000000E+00  0.93800000000E+00  0.93800000000E+00 0.  1.
         11    1    1    2    0    0  0.37126604422E-01 -0.21204579484E+00  0.89612621645E+00  0.92162045377E+00  0.51100000000E-03 0. -1.
    9000002    1    1    2    0    0 -0.15455340344E+00 -0.76744855519E-02  0.49609978827E-01  0.95197205959E+00  0.93800000000E+00 0.  1.
         22    1    1    2    0    0  0.11742679902E+00  0.21972028039E+00  0.30542637721E+01  0.30644074866E+01  0.00000000000E+00 0. -1.
</event>
<event>
 5    1  0.2111786E+001  0.1560896E+01  0.7818608E-02  0.3396931E+00
         11   -1    0    0    0    0  0.00000000000E+00  0.00000000000E+00  0.39999999674E+01  0.40000000000E+01  0.51100000000E-03 0.  1.
    9000002   -1    0    0    0    0 -0.00000000000E+00 -0.00000000000E+00  0.00000000000E+00  0.93800000000E+00  0.93800000000E+00 0. -1.
         11    1    1    2    0    0  0.18359884855E+00 -0.11602563723E+00  0.27230097586E+01  0.27316575357E+01  0.51100000000E-03 0.  1.
    9000002    1    1    2    0    0 -0.39098754582E-01 -0.56230904199E-01  0.31819510802E-01  0.94103512605E+00  0.93800000000E+00 0. -1.
         22    1    1    2    0    0 -0.14450009397E+00  0.17225654143E+00  0.12451706980E+01  0.12653073383E+01  0.00000000000E+00 0.  1.
</event>
<event>
 5    1  0.2111786E+001  0.1466052E+01  0.7818608E-02  0.3512945E+00
         11   -1    0    0    0    0  0.00000000000E+00  0.00000000000E+00  0.39999999674E+01  0.40000000000E+01  0.51100000000E-03 0. -1.
    9000002   -1    0    0    0    0 -0.00000000000E+00 -0.00000000000E+00  0.00000000000E+00  0.93800000000E+00  0.93800000000E+00 0. -1.
         11    1    1    2    0    0 -0.13833053300E+00 -0.41826028873E+00  0.29939728689E+01  0.30262106349E+01  0.51100000000E-03 0. -1.
    9000002    1    1    2    0    0  0.23613188869E+00  0.66527924389E-01  0.14989701452E+00  0.98106949221E+00  0.93800000000E+00 0. -1.
         22    1    1    2    0    0 -0.97801355692E-01  0.35173236434E+00  0.85613008391E+00  0.93071987294E+00  0.00000000000E+00 0. -1.
</event>
<event>
 5    1  0.2111786E+001  0.1484029E+01  0.7818608E-02  0.3489727E+00
         11   -1    0    0    0    0  0.00000000000E+00  0.00000000000E+00  0.39999999674E+01  0.40000000000E+01  0.51100000000E-03 0.  1.
    9000002   -1    0    0    0    0 -0.00000000000E+00 -0.00000000000E+00  0.00000000000E+00  0.93800000000E+00  0.93800000000E+00 0.  1.
         11    1    1    2    0    0 -0.38182609957E+00 -0.57829778776E+00  0.26040462457E+01  0.26946756043E+01  0.51100000000E-03 0.  1.
    9000002    1    1    2    0    0  0.52209812653E+00  0.29254314126E+00  0.37540677819E+00  0.11742836933E+01  0.93800000000E+00 0.  1.
         22    1    1    2    0    0 -0.14027202696E+00  0.28575464650E+00  0.10205469435E+01  0.10690407024E+01  0.00000000000E+00 0. -1.
</event>
<event>
 5    1  0.2111786E+001  0.1592213E+01  0.7818608E-02  0.3361859E+00
         11   -1    0    0    0    0  0.00000000000E+00  0.00000000000E+00  0.39999999674E+01  0.40000000000E+01  0.51100000000E-03 0.  1.
    9000002   -1    0    0    0    0 -0.00000000000E+00 -0.00000000000E+00  0.00000000000E+00  0.93800000000E+00  0.93800000000E+00 0. -1.
         11    1    1    2    0    0 -0.15207839198E-02 -0.19101493867E-01  0.19850704117E+01  0.19851629606E+01  0.51100000000E-03 0.  1.
    9000002    1    1    2    0    0 -0.16828294791E+00  0.15551913025E+00  0.40502030840E-01  0.96643145899E+00  0.93800000000E+00 0. -1.
         22    1    1    2    0    0  0.16980373183E+00 -0.13641763638E+00  0.19744275248E+01  0.19864055804E+01  0.00000000000E+00 0.  1.
</event>
<event>
 5    1  0.2111786E+001  0.1590512E+01  0.7818608E-02  0.3363726E+00
         11   -1    0    0    0    0  0.00000000000E+00  0.00000000000E+00  0.39999999674E+01  0.40000000000E+01  0.51100000000E-03 0.  1.
    9000002   -1    0    0    0    0 -0.00000000000E+00 -0.00000000000E+00  0.00000000000E+00  0.93800000000E+00  0.93800000000E+00 0.  1.
         11    1    1    2    0    0  0.22577312607E+00  0.93636616649E-01  0.16767552716E+01  0.16944762679E+01  0.51100000000E-03 0.  1.
    9000002    1    1    2    0    0 -0.29531246128E+00 -0.35318062218E+00  0.15219959769E+00  0.10559141628E+01  0.93800000000E+00 0.  1.
         22    1    1    2    0    0  0.69539335206E-01  0.25954400553E+00  0.21710450981E+01  0.21876095693E+01  0.00000000000E+00 0.  1.
</event>
<event>
 5    1  0.2111786E+001  0.1525508E+01  0.7818608E-02  0.3438408E+00
         11   -1    0    0    0    0  0.00000000000E+00  0.00000000000E+00  0.39999999674E+01  0.40000000000E+01  0.51100000000E-03 0.  1.
    9000002   -1    0    0    0    0 -0.00000000000E+00 -0.00000000000E+00  0.00000000000E+00  0.93800000000E+00  0.93800000000E+00 0. -1.
         11    1    1    2    0    0 -0.24458555738E+00  0.34786485639E+00  0.25736478803E+01  0.26085428358E+01  0.51100000000E-03 0.  1.
    9000002    1    1    2    0    0  0.10361480553E+00 -0.13942570777E+00  0.77232021091E-01  0.95707070846E+00  0.93800000000E+00 0. -1.
         22    1    1    2    0    0  0.14097075185E+00 -0.20843914862E+00  0.13491200660E+01  0.13723864558E+01  0.00000000000E+00 0.  1.
</event>
<event>
 5    1  0.2111786E+001  0.1548997E+01  0.7818608E-02  0.3410652E+00
         11   -1    0    0    0    0  0.00000000000E+00  0.00000000000E+00  0.39999999674E+01  0.40000000000E+01  0.51100000000E-03 0.  1.
    9000002   -1    0    0    0    0 -0.00000000000E+00 -0.00000000000E+00  0.00000000000E+00  0.93800000000E+00  0.93800000000E+00 0.  1.
         11    1    1    2    0    0 -0.35759083825E+00 -0.21864319036E-01  0.25482663944E+01  0.25733268611E+01  0.51100000000E-03 0.  1.
    9000002    1    1    2    0    0  0.15811830775E+00 -0.32985573410E-01  0.55742236064E-01  0.95343622974E+00  0.93800000000E+00 0.  1.
         22    1    1    2    0    0  0.19947253050E+00  0.54849892446E-01  0.13959913368E+01  0.14112369091E+01  0.00000000000E+00 0.  1.
</event>
<event>
 5    1  0.2111786E+001  0.1571414E+01  0.7818608E-02  0.3384987E+00
         11   -1    0    0    0    0  0.00000000000E+00  0.00000000000E+00  0.39999999674E+01  0.40000000000E+01  0.51100000000E-03 0. -1.
    9000002   -1    0    0    0    0 -0.00000000000E+00 -0.00000000000E+00  0.00000000000E+00  0.93800000000E+00  0.93800000000E+00 0.  1.
         11    1    1    2    0    0 -0.32119303445E+00  0.31677498165E+00  0.26939788317E+01  0.27314892570E+01  0.51100000000E-03 0. -1.
    9000002    1    1    2    0    0  0.52727458706E+00 -0.20030484541E+00  0.24791707448E+00  0.11222510401E+01  0.93800000000E+00 0.  1.
         22    1    1    2    0    0 -0.20608155261E+00 -0.11647013624E+00  0.10581040612E+01  0.10842597029E+01  0.00000000000E+00 0. -1.
</event>
<event>
 5    1  0.2111786E+001  0.1540686E+01  0.7818608E-02  0.3420369E+00
         11   -1    0    0    0    0  0.00000000000E+00  0.00000000000E+00  0.39999999674E+01  0.40000000000E+01  0.51100000000E-03 0. -1.
    9000002   -1    0    0    0    0 -0.00000000000E+00 -0.00000000000E+00  0.00000000000E+00  0.93800000000E+00  0.93800000000E+00 0. -1.
         11    1    1    2    0    0  0.25297906618E+00 -0.52923342130E+00  0.83380776033E+00  0.10194714633E+01  0.51100000000E-03 0. -1.
    9000002    1    1    2    0    0 -0.19773393494E+00  0.25006465226E+00  0.29558546221E+00  0.10338499914E+01  0.93800000000E+00 0. -1.
         22    1    1    2    0    0 -0.55245131237E-01  0.27916876904E+00  0.28706067448E+01  0.28846785453E+01  0.00000000000E+00 0. -1.
</event>
<event>
 5    1  0.2111786E+001  0.1481449E+01  0.7818608E-02  0.3493022E+00
         11   -1    0    0    0    0  0.00000000000E+00  0.00000000000E+00  0.39999999674E+01  0.40000000000E+01  0.51100000000E-03 0.  1.
    9000002   -1    0    0    0    0 -0.00000000000E+00 -0.00000000000E+00  0.00000000000E+00  0.93800000000E+00  0.93800000000E+00 0. -1.
         11    1    1    2    0    0 -0.16969692191E+00 -0.30656874608E+00  0.19849006700E+01  0.20155923130E+01  0.51100000000E-03 0.  1.
    9000002    1    1    2    0    0  0.20121247082E-01 -0.14786872064E+00  0.10765287180E+00  0.95587821606E+00  0.93800000000E+00 0. -1.
         22    1    1    2    0    0  0.14957567483E+00  0.45443746672E+00  0.19074464255E+01  0.19665294709E+01  0.00000000000E+00 0. -1.
</event>
<event>
 5    1  0.2111786E+001  0.1500075E+01  0.7818608E-02  0.3469511E+00
         11   -1    0    0    0    0  0.00000000000E+00  0.00000000000E+00  0.39999999674E+01  0.40000000000E+01  0.51100000000E-03 0.  1.
    9000002   -1    0    0    0    0 -0.00000000000E+00 -0.00000000000E+00  0.00000000000E+00  0.93800000000E+00  0.93800000000E+00 0. -1.
         11    1    1    2    0    0 -0.27479840105E+00  0.10826239913E+00  0.10554271515E+01  0.10959752011E+01  0.51100000000E-03 0.  1.
    9000002    1    1    2    0    0 -0.15837647425E+00  0.25806426331E-01  0.94726854812E-01  0.95632957512E+00  0.93800000000E+00 0. -1.
         22    1    1    2    0    0  0.43317487530E+00 -0.13406882546E+00  0.28498459611E+01  0.28856952237E+01  0.00000000000E+00 0.  1.
</event>
<event>
 5    1  0.2111786E+001  0.1526563E+01  0.7818608E-02  0.3437141E+00
         11   -1    0    0    0    0  0.00000000000E+00  0.00000000000E+00  0.39999999674E+01  0.40000000000E+01  0.51100000000E-03 0.  1.
    9000002   -1    0    0    0    0 -0.00000000000E+00 -0.00000000000E+00  0.00000000000E+00  0.93800000000E+00  0.93800000000E+00 0. -1.
         11    1    1    2    0    0  0.20225227852E+00  0.22353751336E+00  0.95140178249E+00  0.99801834497E+00  0.51100000000E-03 0.  1.
    9000002    1    1    2    0    0 -0.16092403686E+00  0.20004054872E-01  0.73610616462E-01  0.95475611059E+00  0.93800000000E+00 0. -1.
         22    1    1    2    0    0 -0.41328241656E-01 -0.24354156823E+00  0.29749875684E+01  0.29852255444E+01  0.00000000000E+00 0.  1.
</event>
<event>
 5    1  0.2111786E+001  0.1544367E+01  0.7818608E-02  0.3416051E+00
         11   -1    0    0    0    0  0.00000000000E+00  0.00000000000E+00  0.39999999674E+01  0.40000000000E+01  0.51100000000E-03 0. -1.
    9000002   -1    0    0    0    0 -0.00000000000E+00 -0.00000000000E+00  0.00000000000E+00  0.93800000000E+00  0.93800000000E+00 0.  1.
         11    1    1    2    0    0  0.12979717972E+00  0.22931119553E+00  0.22043377508E+01  0.22200306559E+01  0.51100000000E-03 0. -1.
    9000002    1    1    2    0    0 -0.46701602658E-01  0.57488236226E-01  0.44967820827E-01  0.94199365279E+00  0.93800000000E+00 0.  1.
         22    1    1    2    0    0 -0.83095577065E-01 -0.28679943175E+00  0.17506943957E+01  0.17759756913E+01  0.00000000000E+00 0. -1.
</event>
<event>
 5    1  0.2111786E+001  0.1493926E+01  0.7818608E-02  0.3477204E+00
         11   -1    0    0    0    0  0.00000000000E+00  0.00000000000E+00  0.39999999674E+01  0.40000000000E+01  0.51100000000E-03 0. -1.
    9000002   -1    0    0    0    0 -0.00000000000E+00 -0.00000000000E+00  0.00000000000E+00  0.93800000000E+00  0.93800000000E+00 0. -1.
         11    1    1    2    0    0 -0.41689641108E+00  0.97932107692E-01  0.12349002990E+01  0.13070471777E+01  0.51100000000E-03 0. -1.
    9000002    1    1    2    0    0  0.19232409800E+00 -0.24331251581E-01  0.10859758216E+00  0.96395954444E+00  0.93800000000E+00 0. -1.
         22    1    1    2    0    0  0.22457231308E+00 -0.73600856111E-01  0.26565020863E+01  0.26669932778E+01  0.00000000000E+00 0.  1.
</event>
<event>
 5    1  0.2111786E+001  0.1581604E+01  0.7818608E-02  0.3373576E+00
         11   -1    0    0    0    0  0.00000000000E+00  0.00000000000E+00  0.39999999674E+01  0.40000000000E+01  0.51100000000E-03 0. -1.
    9000002   -1    0    0    0    0 -0.00000000000E+00 -0.00000000000E+00  0.00000000000E+00  0.93800000000E+00  0.93800000000E+00 0.  1.
         11    1    1    2    0    0 -0.88212947906E-01 -0.87921208934E-01  0.10415671596E+01  0.10489871650E+01  0.51100000000E-03 0. -1.
    9000002    1    1    2    0    0 -0.14703811937E+00  0.88302805271E-01  0.32986128600E-01  0.95412246522E+00  0.93800000000E+00 0.  1.
         22    1    1    2    0    0  0.23525106727E+00 -0.38159633725E-03  0.29254466791E+01  0.29348903698E+01  0.00000000000E+00 0. -1.
</event>
<event>
 5    1  0.2111786E+001  0.1563027E+01  0.7818608E-02  0.3394497E+00
         11   -1    0    0    0    0  0.00000000000E+00  0.00000000000E+00  0.39999999674E+01  0.40000000000E+01  0.51100000000E-03 0. -1.
    9000002   -1    0    0    0    0 -0.00000000000E+00 -0.00000000000E+00  0.00000000000E+00  0.93800000000E+00  0.93800000000E+00 0.  1.
         11    1    1    2    0    0  0.15078952410E+00 -0.15323309990E+00  0.18645718052E+01  0.18769246498E+01  0.51100000000E-03 0. -1.
    9000002    1    1    2    0    0 -0.35156014760E-01 -0.71127285332E-01  0.31307833905E-01  0.94187006352E+00  0.93800000000E+00 0.  1.
         22    1    1    2    0    0 -0.11563350934E+00  0.22436038524E+00  0.21041203283E+01  0.21192052866E+01  0.00000000000E+00 0. -1.
</event>
<event>
 5    1  0.2111786E+001  0.1557997E+01  0.7818608E-02  0.3400253E+00
         11   -1    0    0    0    0  0.00000000000E+00  0.00000000000E+00  0.39999999674E+01  0.40000000000E+01  0.51100000000E-03 0.  1.
    9000002   -1    0    0    0    0 -0.00000000000E+00 -0.00000000000E+00  0.00000000000E+00  0.93800000000E+00  0.93800000000E+00 0. -1.
         11    1    1    2    0    0 -0.20841352777E+00  0.60180733640E-01  0.30718466093E+01  0.30794966751E+01  0.51100000000E-03 0.  1.
    9000002    1    1    2    0    0  0.74347712530E-02 -0.29462275264E-01  0.31427654159E-01  0.93901810362E+00  0.93800000000E+00 0. -1.
         22    1    1    2    0    0  0.20097875652E+00 -0.30718458376E-01  0.89672570387E+00  0.91948522132E+00  0.00000000000E+00 0. -1.
</event>
<event>
 5    1  0.2111786E+001  0.1576398E+01  0.7818608E-02  0.3379385E+00
         11   -1    0    0    0    0  0.00000000000E+00  0.00000000000E+00  0.39999999674E+01  0.40000000000E+01  0.51100000000E-03 0.  1.
    9000002   -1    0    0    0    0 -0.00000000000E+00 -0.00000000000E+00  0.00000000000E+00  0.93800000000E+00  0.93800000000E+00 0. -1.
         11    1    1    2    0    0  0.51038722225E-01 -0.26023721838E+00  0.23479560403E+01  0.23628851410E+01  0.51100000000E-03 0.  1.
    9000002    1    1    2    0    0 -0.28899119114E+00  0.21459531492E+00  0.10607939427E+00  0.10102791177E+01  0.93800000000E+00 0. -1.
         22    1    1    2    0    0  0.23795246892E+00  0.45641903453E-01  0.15459645328E+01  0.15648357413E+01  0.00000000000E+00 0. -1.
</event>
<event>
 5    1  0.2111786E+001  0.1553592E+01  0.7818608E-02  0.3405326E+00
         11   -1    0    0    0    0  0.00000000000E+00  0.00000000000E+00  0.39999999674E+01  0.40000000000E+01  0.51100000000E-03 0. -1.
    9000002   -1    0    0    0    0 -0.00000000000E+00 -0.00000000000E+00  0.00000000000E+00  0.93800000000E+00  0.93800000000E+00 0. -1.
         11    1    1    2    0    0  0.19397418805E+00  0.16126839075E+00  0.28414411995E+01  0.28526166638E+01  0.51100000000E-03 0. -1.
    9000002    1    1    2    0    0 -0.95305255788E-02 -0.30967994772E-01  0.34848671748E-01  0.93920619543E+00  0.93800000000E+00 0. -1.
         22    1    1    2    0    0 -0.18444366248E+00 -0.13030039598E+00  0.11237100961E+01  0.11461771407E+01  0.00000000000E+00 0.  1.
</event>
<event>
 5    1  0.2111786E+001  0.1112679E+01  0.7818608E-02  0.4217732E+00
         11   -1    0    0    0    0  0.00000000000E+00  0.00000000000E+00  0.39999999674E+01  0.40000000000E+01  0.51100000000E-03 0.  1.
    9000002   -1    0    0    0    0 -0.00000000000E+00 -0.00000000000E+00  0.00000000000E+00  0.93800000000E+00  0.93800000000E+00 0.  1.
         11    1    1    2    0    0 -0.24763734878E+00 -0.43805248556E+00  0.59842220103E-01  0.50675002619E+00  0.51100000000E-03 0.  1.
    9000002    1    1    2    0    0  0.44105837234E+00  0.19576661343E+00  0.93331382806E+00  0.14084657456E+01  0.93800000000E+00 0.  1.
         22    1    1    2    0    0 -0.19342102356E+00  0.24228587213E+00  0.30068439192E+01  0.30227842283E+01  0.00000000000E+00 0.  1.
</event>
<event>
 5    1  0.2111786E+001  0.1572087E+01  0.7818608E-02  0.3384228E+00
         11   -1    0    0    0    0  0.00000000000E+00  0.00000000000E+00  0.39999999674E+01  0.40000000000E+01  0.51100000000E-03 0. -1.
    9000002   -1    0    0    0    0 -0.00000000000E+00 -0.00000000000E+00  0.00000000000E+00  0.93800000000E+00  0.93800000000E+00 0. -1.
         11    1    1    2    0    0  0.16700230960E+00  0.33306367683E-01  0.23399967058E+01  0.23461849735E+01  0.51100000000E-03 0. -1.
    9000002    1    1    2    0    0  0.47889570140E-01 -0.13577119673E-01  0.21916650541E-01  0.93957548323E+00  0.93800000000E+00 0. -1.
         22    1    1    2    0    0 -0.21489187974E+00 -0.19729248010E-01  0.16380866110E+01  0.16522395433E+01  0.00000000000E+00 0.  1.
</event>
<event>
 5    1  0.2111786E+001  0.1561716E+01  0.7818608E-02  0.3395993E+00
         11   -1    0    0    0    0  0.00000000000E+00  0.00000000000E+00  0.39999999674E+01  0.40000000000E+01  0.51100000000E-03 0.  1.
    9000002   -1    0    0    0    0 -0.00000000000E+00 -0.00000000000E+00  0.00000000000E+00  0.93800000000E+00  0.93800000000E+00 0.  1.
         11    1    1    2    0    0 -0.10609962806E+00 -0.12979189046E+00  0.25274060933E+01  0.25329597091E+01  0.51100000000E-03 0.  1.
    9000002    1    1    2    0    0 -0.50923095139E-01 -0.76091640502E-01  0.33726807560E-01  0.94306129012E+00  0.93800000000E+00 0.  1.
         22    1    1    2    0    0  0.15702272320E+00  0.20588353096E+00  0.14388670665E+01  0.14619790008E+01  0.00000000000E+00 0.  1.
</event>
<event>
 5    1  0.2111786E+001  0.1503780E+01  0.7818608E-02  0.3464911E+00
         11   -1    0    0    0    0  0.00000000000E+00  0.00000000000E+00  0.39999999674E+01  0.40000000000E+01  0.51100000000E-03 0.  1.
    9000002   -1    0    0    0    0 -0.00000000000E+00 -0.00000000000E+00  0.00000000000E+00  0.93800000000E+00  0.93800000000E+00 0. -1.
         11    1    1    2    0    0 -0.16801489174E+00 -0.33916456541E+00  0.15643939000E+01  0.16095310316E+01  0.51100000000E-03 0.  1.
    9000002    1    1    2    0    0  0.78245260118E-01  0.11720875645E-02  0.77357899743E-01  0.94443207229E+00  0.93800000000E+00 0. -1.
         22    1    1    2    0    0  0.89769631617E-01  0.33799247784E+00  0.23582481676E+01  0.23840368961E+01  0.00000000000E+00 0.  1.
</event>
<event>
 5    1  0.2111786E+001  0.1510005E+01  0.7818608E-02  0.3457233E+00
         11   -1    0    0    0    0  0.00000000000E+00  0.00000000000E+00  0.39999999674E+01  0.40000000000E+01  0.51100000000E-03 0. -1.
    9000002   -1    0    0    0    0 -0.00000000000E+00 -0.00000000000E+00  0.00000000000E+00  0.93800000000E+00  0.93800000000E+00 0.  1.
         11    1    1    2    0    0 -0.32427972740E+00 -0.48723581399E-02  0.88677169109E+00  0.94421680494E+00  0.51100000000E-03 0. -1.
    9000002    1    1    2    0    0  0.11002015463E+00 -0.24490441977E+00  0.12057359586E+00  0.98308931500E+00  0.93800000000E+00 0.  1.
         22    1    1    2    0    0  0.21425957277E+00  0.24977677791E+00  0.29926546804E+01  0.30106938801E+01  0.00000000000E+00 0. -1.
</event>
<event>
 5    1  0.2111786E+001  0.1556993E+01  0.7818608E-02  0.3401407E+00
         11   -1    0    0    0    0  0.00000000000E+00  0.00000000000E+00  0.39999999674E+01  0.40000000000E+01  0.51100000000E-03 0. -1.
    9000002   -1    0    0    0    0 -0.00000000000E+00 -0.00000000000E+00  0.00000000000E+00  0.93800000000E+00  0.93800000000E+00 0. -1.
         11    1    1    2    0    0  0.39540937914E-01 -0.82826920450E-01  0.14299269878E+00  0.16991455955E+00  0.51100000000E-03 0. -1.
    9000002    1    1    2    0    0  0.14137279120E+00 -0.70035781469E-01  0.48701486572E-01  0.95242170889E+00  0.93800000000E+00 0. -1.
         22    1    1    2    0    0 -0.18091372911E+00  0.15286270192E+00  0.38083057820E+01  0.38156637316E+01  0.00000000000E+00 0. -1.
</event>
<event>
 5    1  0.2111786E+001  0.1546368E+01  0.7818608E-02  0.3413714E+00
         11   -1    0    0    0    0  0.00000000000E+00  0.00000000000E+00  0.39999999674E+01  0.40000000000E+01  0.51100000000E-03 0. -1.
    9000002   -1    0    0    0    0 -0.00000000000E+00 -0.00000000000E+00  0.00000000000E+00  0.93800000000E+00  0.93800000000E+00 0. -1.
         11    1    1    2    0    0  0.46653899821E-01 -0.28669052239E+00  0.24034537495E+01  0.24209415997E+01  0.51100000000E-03 0. -1.
    9000002    1    1    2    0    0 -0.28188736696E-01  0.27779685722E-01  0.40708494792E-01  0.93971671123E+00  0.93800000000E+00 0. -1.
         22    1    1    2    0    0 -0.18465163125E-01  0.25891083667E+00  0.15558377231E+01  0.15773416891E+01  0.00000000000E+00 0. -1.
</event>
<event>
 5    1  0.2111786E+001  0.1593911E+01  0.7818608E-02  0.3359998E+00
         11   -1    0    0    0    0  0.00000000000E+00  0.00000000000E+00  0.39999999674E+01  0.40000000000E+01  0.51100000000E-03 0.  1.
    9000002   -1    0    0    0    0 -0.00000000000E+00 -0.00000000000E+00  0.00000000000E+00  0.93800000000E+00  0.93800000000E+00 0.  1.
         11    1    1    2    0    0 -0.12288014735E+00 -0.16089287771E+00  0.19355526980E+01  0.19461116506E+01  0.51100000000E-03 0.  1.
    9000002    1    1    2    0    0  0.33568864945E+00  0.16254187289E+00  0.98242919443E-01  0.10142003752E+01  0.93800000000E+00 0.  1.
         22    1    1    2    0    0 -0.21280850209E+00 -0.16489951841E-02  0.19662043499E+01  0.19776879742E+01  0.00000000000E+00 0.  1.
</event>
<event>
 5    1  0.2111786E+001  0.1463030E+01  0.7818608E-02  0.3516908E+00
         11   -1    0    0    0    0  0.00000000000E+00  0.00000000000E+00  0.39999999674E+01  0.40000000000E+01  0.51100000000E-03 0.  1.
    9000002   -1    0    0    0    0 -0.00000000000E+00 -0.00000000000E+00  0.00000000000E+00  0.93800000000E+00  0.93800000000E+00 0. -1.
         11    1    1    2    0    0  0.70183354667E-01  0.47333247887E+00  0.26248879295E+01  0.26681465931E+01  0.51100000000E-03 0.  1.
    9000002    1    1    2    0    0  0.10401677686E+00 -0.11968402162E+00  0.12552346736E+00  0.95955400878E+00  0.93800000000E+00 0. -1.
         22    1    1    2    0    0 -0.17420013153E+00 -0.35364845725E+00  0.12495885705E+01  0.13102993981E+01  0.00000000000E+00 0.  1.
</event>
<event>
 5    1  0.2111786E+001  0.1513059E+01  0.7818608E-02  0.3453493E+00
         11   -1    0    0    0    0  0.00000000000E+00  0.00000000000E+00  0.39999999674E+01  0.40000000000E+01  0.51100000000E-03 0.  1.
    9000002   -1    0    0    0    0 -0.00000000000E+00 -0.00000000000E+00  0.00000000000E+00  0.93800000000E+00  0.93800000000E+00 0.  1.
         11    1    1    2    0    0 -0.33888222615E+00  0.31219273884E+00  0.18739708124E+01  0.19297855674E+01  0.51100000000E-03 0.  1.
    9000002    1    1    2    0    0  0.42655733445E+00  0.36478756990E-01  0.20174434452E+00  0.10506315433E+01  0.93800000000E+00 0.  1.
         22    1    1    2    0    0 -0.87675108301E-01 -0.34867149583E+00  0.19242848104E+01  0.19575828892E+01  0.00000000000E+00 0.  1.
</event>
<event>
 5    1  0.2111786E+001  0.1501484E+01  0.7818608E-02  0.3467759E+00
         11   -1    0    0    0    0  0.00000000000E+00  0.00000000000E+00  0.39999999674E+01  0.40000000000E+01  0.51100000000E-03 0.  1.
    9000002   -1    0    0    0    0 -0.00000000000E+00 -0.00000000000E+00  0.00000000000E+00  0.93800000000E+00  0.93800000000E+00 0.  1.
         11    1    1    2    0    0 -0.61828875478E+00  0.15613689512E+00  0.29745319508E+01  0.30421210202E+01  0.51100000000E-03 0.  1.
    9000002    1    1    2    0    0  0.55370438362E+00 -0.45955823343E+00  0.49562576381E+00  0.12819014050E+01  0.93800000000E+00 0.  1.
         22    1    1    2    0    0  0.64584371157E-01  0.30342133830E+00  0.52984225278E+00  0.61397757480E+00  0.00000000000E+00 0.  1.
</event>
<event>
 5    1  0.2111786E+001  0.1594484E+01  0.7818608E-02  0.3359372E+00
         11   -1    0    0    0    0  0.00000000000E+00  0.00000000000E+00  0.39999999674E+01  0.40000000000E+01  0.51100000000E-03 0.  1.
    9000002   -1    0    0    0    0 -0.00000000000E+00 -0.00000000000E+00  0.00000000000E+00  0.93800000000E+00  0.93800000000E+00 0.  1.
         11    1    1    2    0    0  0.45484039545E-01  0.71610818086E-01  0.47518201880E+00  0.48269567973E+00  0.51100000000E-03 0.  1.
    9000002    1    1    2    0    0 -0.24997298104E+00 -0.14065203683E+00  0.58865752176E-01  0.98263862304E+00  0.93800000000E+00 0.  1.
         22    1    1    2    0    0  0.20448894149E+00  0.69041218744E-01  0.34659521964E+01  0.34726656972E+01  0.00000000000E+00 0.  1.
</event>
<event>
 5    1  0.2111786E+001  0.1595331E+01  0.7818608E-02  0.3358447E+00
         11   -1    0    0    0    0  0.00000000000E+00  0.00000000000E+00  0.39999999674E+01  0.40000000000E+01  0.51100000000E-03 0.  1.
    9000002   -1    0    0    0    0 -0.00000000000E+00 -0.00000000000E+00  0.00000000000E+00  0.93800000000E+00  0.93800000000E+00 0. -1.
         11    1    1    2    0    0  0.27076004732E+00  0.26626312738E-02  0.17433182176E+01  0.17642212905E+01  0.51100000000E-03 0.  1.
    9000002    1    1    2    0    0 -0.58953790829E+00  0.16374999387E+00  0.26625866365E+00  0.11511327820E+01  0.93800000000E+00 0. -1.
         22    1    1    2    0    0  0.31877786096E+00 -0.16641262514E+00  0.19904230861E+01  0.20226459275E+01  0.00000000000E+00 0. -1.
</event>
<event>
 5    1  0.2111786E+001  0.1514695E+01  0.7818608E-02  0.3451495E+00
         11   -1    0    0    0    0  0.00000000000E+00  0.00000000000E+00  0.39999999674E+01  0.40000000000E+01  0.51100000000E-03 0.  1.
    9000002   -1    0    0    0    0 -0.00000000000E+00 -0.00000000000E+00  0.00000000000E+00  0.93800000000E+00  0.93800000000E+00 0. -1.
         11    1    1    2    0    0  0.29419585434E+00 -0.19168248215E-01  0.28550475806E+01  0.28702291844E+01  0.51100000000E-03 0.  1.
    9000002    1    1    2    0    0  0.12729017671E-01 -0.86006603505E-01  0.69654777323E-01  0.94459247919E+00  0.93800000000E+00 0. -1.
         22    1    1    2    0    0 -0.30692487201E+00  0.10517485172E+00  0.10752976095E+01  0.11231783364E+01  0.00000000000E+00 0.  1.
</event>
<event>
 5    1  0.2111786E+001  0.1515387E+01  0.7818608E-02  0.3450650E+00
         11   -1    0    0    0    0  0.00000000000E+00  0.00000000000E+00  0.39999999674E+01  0.40000000000E+01  0.51100000000E-03 0.  1.
    9000002   -1    0    0    0    0 -0.00000000000E+00 -0.00000000000E+00  0.00000000000E+00  0.93800000000E+00  0.93800000000E+00 0. -1.
         11    1    1    2    0    0 -0.21534235243E+00 -0.97572979368E-01  0.59522430733E+00  0.64045690894E+00  0.51100000000E-03 0.  1.
    9000002    1    1    2    0    0 -0.91760461793E-01 -0.63204089607E-01  0.72594397928E-01  0.94737990579E+00  0.93800000000E+00 0. -1.
         22    1    1    2    0    0  0.30710281422E+00  0.16077706897E+00  0.33321812621E+01  0.33501631853E+01  0.00000000000E+00 0.  1.
</event>
<event>
 5    1  0.2111786E+001  0.1512983E+01  0.7818608E-02  0.3453585E+00
         11   -1    0    0    0    0  0.00000000000E+00  0.00000000000E+00  0.39999999674E+01  0.40000000000E+01  0.51100000000E-03 0.  1.
    9000002   -1    0    0    0    0 -0.00000000000E+00 -0.00000000000E+00  0.00000000000E+00  0.93800000000E+00  0.93800000000E+00 0. -1.
         11    1    1    2    0    0 -0.19319779484E+00 -0.20851867667E+00  0.14750076522E+01  0.15021495470E+01  0.51100000000E-03 0.  1.
    9000002    1    1    2    0    0 -0.14754293191E+00 -0.74622646702E-01  0.85314918142E-01  0.95627406710E+00  0.93800000000E+00 0. -1.
         22    1    1    2    0    0  0.34074072675E+00  0.28314132337E+00  0.24396773970E+01  0.24795763859E+01  0.00000000000E+00 0.  1.
</event>
<event>
 5    1  0.2111786E+001  0.1448558E+01  0.7818608E-02  0.3536140E+00
         11   -1    0    0    0    0  0.00000000000E+00  0.00000000000E+00  0.39999999674E+01  0.40000000000E+01  0.51100000000E-03 0.  1.
    9000002   -1    0    0    0    0 -0.00000000000E+00 -0.00000000000E+00  0.00000000000E+00  0.93800000000E+00  0.93800000000E+00 0. -1.
         11    1    1    2    0    0 -0.47545318117E+00 -0.20838836424E+00  0.12523466432E+01  0.13556746711E+01  0.51100000000E-03 0.  1.
    9000002    1    1    2    0    0  0.20263354973E+00  0.11720344989E+00  0.16142941423E+00  0.98015328389E+00  0.93800000000E+00 0. -1.
         22    1    1    2    0    0  0.27281963144E+00  0.91184914343E-01  0.25862239099E+01  0.26021720451E+01  0.00000000000E+00 0. -1.
</event>
<event>
 5    1  0.2111786E+001  0.1507780E+01  0.7818608E-02  0.3459969E+00
         11   -1    0    0    0    0  0.00000000000E+00  0.00000000000E+00  0.39999999674E+01  0.40000000000E+01  0.51100000000E-03 0. -1.
    9000002   -1    0    0    0    0 -0.00000000000E+00 -0.00000000000E+00  0.00000000000E+00  0.93800000000E+00  0.93800000000E+00 0.  1.
         11    1    1    2    0    0  0.33777546922E+00  0.10486320584E+00  0.89194624738E+00  0.95950869141E+00  0.51100000000E-03 0. -1.
    9000002    1    1    2    0    0 -0.24134662051E+00  0.11177199531E+00  0.12147975524E+00  0.98251844822E+00  0.93800000000E+00 0.  1.
         22    1    1    2    0    0 -0.96428848707E-01 -0.21663520114E+00  0.29865739647E+01  0.29959728604E+01  0.00000000000E+00 0. -1.
</event>
<event>
 5    1  0.2111786E+001  0.1533081E+01  0.7818608E-02  0.3429359E+00
         11   -1    0    0    0    0  0.00000000000E+00  0.00000000000E+00  0.39999999674E+01  0.40000000000E+01  0.51100000000E-03 0. -1.
    9000002   -1    0    0    0    0 -0.00000000000E+00 -0.00000000000E+00  0.00000000000E+00  0.93800000000E+00  0.93800000000E+00 0.  1.
         11    1    1    2    0    0  0.32351643283E-01 -0.21537510971E+00  0.32227639603E+01  0.32301146840E+01  0.51100000000E-03 0. -1.
    9000002    1    1    2    0    0 -0.20043907896E+00  0.17744112215E-01  0.78511250913E-01  0.96254802187E+00  0.93800000000E+00 0.  1.
         22    1    1    2    0    0  0.16808743567E+00  0.19763099749E+00  0.69872475614E+00  0.74533729415E+00  0.00000000000E+00 0.  1.
</event>
<event>
 5    1  0.2111786E+001  0.1537338E+01  0.7818608E-02  0.3424315E+00
         11   -1    0    0    0    0  0.00000000000E+00  0.00000000000E+00  0.39999999674E+01  0.40000000000E+01  0.51100000000E-03 0. -1.
    9000002   -1    0    0    0    0 -0.00000000000E+00 -0.00000000000E+00  0.00000000000E+00  0.93800000000E+00  0.93800000000E+00 0.  1.
         11    1    1    2    0    0 -0.32624239120E+00 -0.24896301117E+00  0.22767730270E+01  0.23134632818E+01  0.51100000000E-03 0. -1.
    9000002    1    1    2    0    0  0.36131617893E+00 -0.40786603753E-01  0.14126979696E+00  0.10158809397E+01  0.93800000000E+00 0.  1.
         22    1    1    2    0    0 -0.35073787728E-01  0.28974961492E+00  0.15819571434E+01  0.16086557784E+01  0.00000000000E+00 0. -1.
</event>
<event>
 5    1  0.2111786E+001  0.1582193E+01  0.7818608E-02  0.3372920E+00
         11   -1    0    0    0    0  0.00000000000E+00  0.00000000000E+00  0.39999999674E+01  0.40000000000E+01  0.51100000000E-03 0. -1.
    9000002   -1    0    0    0    0 -0.00000000000E+00 -0.00000000000E+00  0.00000000000E+00  0.93800000000E+00  0.93800000000E+00 0. -1.
         11    1    1    2    0    0  0.20450663056E-01 -0.12397209689E+00  0.19443239095E+01  0.19483795926E+01  0.51100000000E-03 0. -1.
    9000002    1    1    2    0    0 -0.12160483944E+00 -0.61858560446E-01  0.25256299643E-01  0.94820678080E+00  0.93800000000E+00 0. -1.
         22    1    1    2    0    0  0.10115417638E+00  0.18583065733E+00  0.20304197582E+01  0.20414136266E+01  0.00000000000E+00 0. -1.
</event>
<event>
 5    1  0.2111786E+001  0.1497210E+01  0.7818608E-02  0.3473087E+00
         11   -1    0    0    0    0  0.00000000000E+00  0.00000000000E+00  0.39999999674E+01  0.40000000000E+01  0.51100000000E-03 0.  1.
    9000002   -1    0    0    0    0 -0.00000000000E+00 -0.00000000000E+00  0.00000000000E+00  0.93800000000E+00  0.93800000000E+00 0. -1.
         11    1    1    2    0    0  0.59256115097E+00  0.97734566153E-01  0.13323786750E+01  0.14614766361E+01  0.51100000000E-03 0.  1.
    9000002    1    1    2    0    0 -0.65128419240E+00  0.14168978551E+00  0.43474382051E+00  0.12300785682E+01  0.93800000000E+00 0. -1.
         22    1    1    2    0    0  0.58723041435E-01 -0.23942435166E+00  0.22328774719E+01  0.22464447957E+01  0.00000000000E+00 0.  1.
</event>
<event>
 5    1  0.2111786E+001  0.1594175E+01  0.7818608E-02  0.3359710E+00
         11   -1    0    0    0    0  0.00000000000E+00  0.00000000000E+00  0.39999999674E+01  0.40000000000E+01  0.51100000000E-03 0. -1.
    9000002   -1    0    0    0    0 -0.00000000000E+00 -0.00000000000E+00  0.00000000000E+00  0.93800000000E+00  0.93800000000E+00 0. -1.
         11    1    1    2    0    0  0.20564053564E+00  0.14484344577E+00  0.19316931644E+01  0.19480006150E+01  0.51100000000E-03 0. -1.
    9000002    1    1    2    0    0 -0.40863310962E+00 -0.11145142288E+00  0.12606033741E+00  0.10368884446E+01  0.93800000000E+00 0. -1.
         22    1    1    2    0    0  0.20299257398E+00 -0.33392022886E-01  0.19422464656E+01  0.19531109404E+01  0.00000000000E+00 0. -1.
</event>
<event>
 5    1  0.2111786E+001  0.1480374E+01  0.7818608E-02  0.3494399E+00
         11   -1    0    0    0    0  0.00000000000E+00  0.00000000000E+00  0.39999999674E+01  0.40000000000E+01  0.51100000000E-03 0. -1.
    9000002   -1    0    0    0    0 -0.00000000000E+00 -0.00000000000E+00  0.00000000000E+00  0.93800000000E+00  0.93800000000E+00 0. -1.
         11    1    1    2    0    0 -0.43961988412E+00 -0.23297229481E+00  0.97371134276E+00  0.10934604578E+01  0.51100000000E-03 0. -1.
    9000002    1    1    2    0    0  0.30943774251E+00  0.43832227922E+00  0.31950306421E+00  0.11268559557E+01  0.93800000000E+00 0. -1.
         22    1    1    2    0    0  0.13018214161E+00 -0.20534998442E+00  0.27067855604E+01  0.27176835864E+01  0.00000000000E+00 0. -1.
</event>
<event>
 5    1  0.2111786E+001  0.1576757E+01  0.7818608E-02  0.3378984E+00
         11   -1    0    0    0    0  0.00000000000E+00  0.00000000000E+00  0.39999999674E+01  0.40000000000E+01  0.51100000000E-03 0.  1.
    9000002   -1    0    0    0    0 -0.00000000000E+00 -0.00000000000E+00  0.00000000000E+00  0.93800000000E+00  0.93800000000E+00 0.  1.
         11    1    1    2    0    0 -0.71717412794E-01  0.29280165798E-01  0.27770143633E+01  0.27780946259E+01  0.51100000000E-03 0.  1.
    9000002    1    1    2    0    0  0.20226305462E-01  0.18231327946E+00  0.39534012777E-01  0.95658463999E+00  0.93800000000E+00 0.  1.
         22    1    1    2    0    0  0.51491107332E-01 -0.21159344525E+00  0.11834515913E+01  0.12033207341E+01  0.00000000000E+00 0.  1.
</event>
<event>
 5    1  0.2111786E+001  0.1467301E+01  0.7818608E-02  0.3511312E+00
         11   -1    0    0    0    0  0.00000000000E+00  0.00000000000E+00  0.39999999674E+01  0.40000000000E+01  0.51100000000E-03 0.  1.
    9000002   -1    0    0    0    0 -0.00000000000E+00 -0.00000000000E+00  0.00000000000E+00  0.93800000000E+00  0.93800000000E+00 0.  1.
         11    1    1    2    0    0  0.51051730420E+00  0.10167173499E-01  0.23327954579E+01  0.23880255858E+01  0.51100000000E-03 0.  1.
    9000002    1    1    2    0    0 -0.13865956099E+00  0.44543271659E-01  0.11884686752E+00  0.95664996463E+00  0.93800000000E+00 0.  1.
         22    1    1    2    0    0 -0.37185774321E+00 -0.54710445159E-01  0.15483576420E+01  0.15933244495E+01  0.00000000000E+00 0. -1.
</event>
<event>
 5    1  0.2111786E+001  0.1500647E+01  0.7818608E-02  0.3468800E+00
         11   -1    0    0    0    0  0.00000000000E+00  0.00000000000E+00  0.39999999674E+01  0.40000000000E+01  0.51100000000E-03 0. -1.
    9000002   -1    0    0    0    0 -0.00000000000E+00 -0.00000000000E+00  0.00000000000E+00  0.93800000000E+00  0.93800000000E+00 0.  1.
         11    1    1    2    0    0 -0.14974919982E+00  0.25919168063E+00  0.13746844911E+00  0.32939791404E+00  0.51100000000E-03 0. -1.
    9000002    1    1    2    0    0  0.23123400785E+00 -0.48249705873E+00  0.42125538821E+00  0.11591258259E+01  0.93800000000E+00 0.  1.
         22    1    1    2    0    0 -0.81484808025E-01  0.22330537810E+00  0.34412761300E+01  0.34494762601E+01  0.00000000000E+00 0. -1.
</event>
<event>
 5    1  0.2111786E+001  0.1593990E+01  0.7818608E-02  0.3359912E+00
         11   -1    0    0    0    0  0.00000000000E+00  0.00000000000E+00  0.39999999674E+01  0.40000000000E+01  0.51100000000E-03 0. -1.
    9000002   -1    0    0    0    0 -0.00000000000E+00 -0.00000000000E+00  0.00000000000E+00  0.93800000000E+00  0.93800000000E+00 0.  1.
         11    1    1    2    0    0 -0.24926275829E-01  0.96373613719E-01  0.21925149454E+01  0.21947736192E+01  0.51100000000E-03 0. -1.
    9000002    1    1    2    0    0 -0.30477959715E-01 -0.31615377074E+00  0.71920435483E-01  0.99292429813E+00  0.93800000000E+00 0.  1.
         22    1    1    2    0    0  0.55404235544E-01  0.21978015702E+00  0.17355645864E+01  0.17503020826E+01  0.00000000000E+00 0.  1.
</event>
<event>
 5    1  0.2111786E+001  0.1584359E+01  0.7818608E-02  0.3370517E+00
         11   -1    0    0    0    0  0.00000000000E+00  0.00000000000E+00  0.39999999674E+01  0.40000000000E+01  0.51100000000E-03 0.  1.
    9000002   -1    0    0    0    0 -0.00000000000E+00 -0.00000000000E+00  0.00000000000E+00  0.93800000000E+00  0.93800000000E+00 0.  1.
         11    1    1    2    0    0  0.10111157325E+00 -0.80377280116E-01  0.19011691689E+01  0.19055520270E+01  0.51100000000E-03 0.  1.
    9000002    1    1    2    0    0 -0.18396163174E+00 -0.14128755255E+00  0.47403344131E-01  0.96741673104E+00  0.93800000000E+00 0.  1.
         22    1    1    2    0    0  0.82850058498E-01  0.22166483266E+00  0.20514274543E+01  0.20650312420E+01  0.00000000000E+00 0.  1.
</event>
<event>
 5    1  0.2111786E+001  0.1571489E+01  0.7818608E-02  0.3384901E+00
         11   -1    0    0    0    0  0.00000000000E+00  0.00000000000E+00  0.39999999674E+01  0.40000000000E+01  0.51100000000E-03 0. -1.
    9000002   -1    0    0    0    0 -0.00000000000E+00 -0.00000000000E+00  0.00000000000E+00  0.93800000000E+00  0.93800000000E+00 0. -1.
         11    1    1    2    0    0  0.54874213982E-01  0.16506947177E+00  0.19297155827E+01  0.19375400902E+01  0.51100000000E-03 0. -1.
    9000002    1    1    2    0    0  0.26005079377E-01  0.52045760775E-01  0.22976253784E-01  0.94008347162E+00  0.93800000000E+00 0. -1.
         22    1    1    2    0    0 -0.80879293359E-01 -0.21711523255E+00  0.20473081309E+01  0.20603764382E+01  0.00000000000E+00 0. -1.
</event>
<event>
 5    1  0.2111786E+001  0.1532673E+01  0.7818608E-02  0.3429844E+00
         11   -1    0    0    0    0  0.00000000000E+00  0.00000000000E+00  0.39999999674E+01  0.40000000000E+01  0.51100000000E-03 0. -1.
    9000002   -1    0    0    0    0 -0.00000000000E+00 -0.00000000000E+00  0.00000000000E+00  0.93800000000E+00  0.93800000000E+00 0. -1.
         11    1    1    2    0    0 -0.32067584117E+00  0.17761909545E+00  0.13710443578E+01  0.14192055631E+01  0.51100000000E-03 0. -1.
    9000002    1    1    2    0    0  0.25992505598E+00  0.39174863424E-01  0.99349235468E-01  0.97918842683E+00  0.93800000000E+00 0. -1.
         22    1    1    2    0    0  0.60750785193E-01 -0.21679395888E+00  0.25296063740E+01  0.25396060100E+01  0.00000000000E+00 0.  1.
</event>
<event>
 5    1  0.2111786E+001  0.1552639E+01  0.7818608E-02  0.3406428E+00
         11   -1    0    0    0    0  0.00000000000E+00  0.00000000000E+00  0.39999999674E+01  0.40000000000E+01  0.51100000000E-03 0. -1.
    9000002   -1    0    0    0    0 -0.00000000000E+00 -0.00000000000E+00  0.00000000000E+00  0.93800000000E+00  0.93800000000E+00 0.  1.
         11    1    1    2    0    0 -0.26440295086E+00  0.10694025661E+00  0.24649401708E+01  0.24813857914E+01  0.51100000000E-03 0. -1.
    9000002    1    1    2    0    0  0.21817495441E-01 -0.11846230488E+00  0.44872015908E-01  0.94676650690E+00  0.93800000000E+00 0.  1.
         22    1    1    2    0    0  0.24258545542E+00  0.11522048264E-01  0.14901877806E+01  0.15098477017E+01  0.00000000000E+00 0.  1.
</event>
<event>
 5    1  0.2111786E+001  0.1583343E+01  0.7818608E-02  0.3371644E+00
         11   -1    0    0    0    0  0.00000000000E+00  0.00000000000E+00  0.39999999674E+01  0.40000000000E+01  0.51100000000E-03 0. -1.
    9000002   -1    0    0    0    0 -0.00000000000E+00 -0.00000000000E+00  0.00000000000E+00  0.93800000000E+00  0.93800000000E+00 0. -1.
         11    1    1    2    0    0 -0.42183734909E-01 -0.57439359247E-01  0.40443172297E+00  0.41066291183E+00  0.51100000000E-03 0. -1.
    9000002    1    1    2    0    0  0.18568390909E+00 -0.32360561209E+00  0.10704944600E+00  0.10151367840E+01  0.93800000000E+00 0. -1.
         22    1    1    2    0    0 -0.14350017418E+00  0.38104497134E+00  0.34885187984E+01  0.35122003042E+01  0.00000000000E+00 0. -1.
</event>
<event>
 5    1  0.2111786E+001  0.1573787E+01  0.7818608E-02  0.3382315E+00
         11   -1    0    0    0    0  0.00000000000E+00  0.00000000000E+00  0.39999999674E+01  0.40000000000E+01  0.51100000000E-03 0.  1.
    9000002   -1    0    0    0    0 -0.00000000000E+00 -0.00000000000E+00  0.00000000000E+00  0.93800000000E+00  0.93800000000E+00 0.  1.
         11    1    1    2    0    0  0.15946019948E+00  0.13775700617E+00  0.20839643742E+01  0.20945912064E+01  0.51100000000E-03 0.  1.
    9000002    1    1    2    0    0 -0.27308980951E+00 -0.58642956895E+00  0.32276206463E+00  0.11842706759E+01  0.93800000000E+00 0.  1.
         22    1    1    2    0    0  0.11362961003E+00  0.44867256278E+00  0.15932735285E+01  0.16591381177E+01  0.00000000000E+00 0.  1.
</event>
<event>
 5    1  0.2111786E+001  0.1587203E+01  0.7818608E-02  0.3367371E+00
         11   -1    0    0    0    0  0.00000000000E+00  0.00000000000E+00  0.39999999674E+01  0.40000000000E+01  0.51100000000E-03 0.  1.
    9000002   -1    0    0    0    0 -0.00000000000E+00 -0.00000000000E+00  0.00000000000E+00  0.93800000000E+00  0.93800000000E+00 0.  1.
         11    1    1    2    0    0 -0.22778999560E+00  0.31982417462E-01  0.20820339554E+01  0.20947020814E+01  0.51100000000E-03 0.  1.
    9000002    1    1    2    0    0  0.62961986170E+00 -0.13988125080E+00  0.30635913594E+00  0.11788502257E+01  0.93800000000E+00 0.  1.
         22    1    1    2    0    0 -0.40182986609E+00  0.10789883334E+00  0.16116068760E+01  0.16644476929E+01  0.00000000000E+00 0.  1.
</event>
<event>
 5    1  0.2111786E+001  0.1584628E+01  0.7818608E-02  0.3370218E+00
         11   -1    0    0    0    0  0.00000000000E+00  0.00000000000E+00  0.39999999674E+01  0.40000000000E+01  0.51100000000E-03 0.  1.
    9000002   -1    0    0    0    0 -0.00000000000E+00 -0.00000000000E+00  0.00000000000E+00  0.93800000000E+00  0.93800000000E+00 0.  1.
         11    1    1    2    0    0  0.10006308575E+00  0.35311755161E-01  0.16372999488E+01  0.16407348734E+01  0.51100000000E-03 0.  1.
    9000002    1    1    2    0    0  0.10762469457E+00 -0.45754600905E-01  0.20122960362E-01  0.94547633070E+00  0.93800000000E+00 0.  1.
         22    1    1    2    0    0 -0.20768778032E+00  0.10442845744E-01  0.23425770582E+01  0.23517887959E+01  0.00000000000E+00 0.  1.
</event>
<event>
 5    1  0.2177186E+001  0.1568832E+01  0.7818608E-02  0.3387903E+00
         11   -1    0    0    0    0  0.00000000000E+00  0.00000000000E+00  0.39999999674E+01  0.40000000000E+01  0.51100000000E-03 0.  1.
    9000002   -1    0    0    0    0 -0.00000000000E+00 -0.00000000000E+00  0.00000000000E+00  0.93800000000E+00  0.93800000000E+00 0. -1.
         11    1    1    2    0    0 -0.16053337791E+00 -0.12603493241E+00  0.14593914683E+01  0.14735940718E+01  0.51100000000E-03 0.  1.
    9000002    1    1    2    0    0 -0.22157681674E-01  0.31736192770E-01  0.23682323013E-01  0.93909690725E+00  0.93800000000E+00 0. -1.
         22    1    1    2    0    0  0.18269105958E+00  0.94298739636E-01  0.25169261760E+01  0.25253090209E+01  0.00000000000E+00 0.  1.
</event>
<event>
 5    1  0.2111786E+001  0.1565364E+01  0.7818608E-02  0.3391836E+00
         11   -1    0    0    0    0  0.00000000000E+00  0.00000000000E+00  0.39999999674E+01  0.40000000000E+01  0.51100000000E-03 0. -1.
    9000002   -1    0    0    0    0 -0.00000000000E+00 -0.00000000000E+00  0.00000000000E+00  0.93800000000E+00  0.93800000000E+00 0.  1.
         11    1    1    2    0    0 -0.93315046305E-01 -0.12355811620E+00  0.61374256787E+00  0.63297275351E+00  0.51100000000E-03 0. -1.
    9000002    1    1    2    0    0 -0.43261022047E-01 -0.23801302893E-01  0.26917374985E-01  0.93968428907E+00  0.93800000000E+00 0.  1.
         22    1    1    2    0    0  0.13657606835E+00  0.14735941909E+00  0.33593400245E+01  0.33653429574E+01  0.00000000000E+00 0. -1.
</event>
<event>
 5    1  0.2111786E+001  0.1527358E+01  0.7818608E-02  0.3436188E+00
         11   -1    0    0    0    0  0.00000000000E+00  0.00000000000E+00  0.39999999674E+01  0.40000000000E+01  0.51100000000E-03 0.  1.
    9000002   -1    0    0    0    0 -0.00000000000E+00 -0.00000000000E+00  0.00000000000E+00  0.93800000000E+00  0.93800000000E+00 0. -1.
         11    1    1    2    0    0  0.47463815430E-01  0.39801295936E+00  0.26339891433E+01  0.26643134571E+01  0.51100000000E-03 0.  1.
    9000002    1    1    2    0    0 -0.26597710992E-01 -0.14192894835E+00  0.69091075151E-01  0.95156126512E+00  0.93800000000E+00 0. -1.
         22    1    1    2    0    0 -0.20866104438E-01 -0.25608401101E+00  0.12969197489E+01  0.13221252778E+01  0.00000000000E+00 0.  1.
</event>
<event>
 5    1  0.2111786E+001  0.1592839E+01  0.7818608E-02  0.3361172E+00
         11   -1    0    0    0    0  0.00000000000E+00  0.00000000000E+00  0.39999999674E+01  0.40000000000E+01  0.51100000000E-03 0.  1.
    9000002   -1    0    0    0    0 -0.00000000000E+00 -0.00000000000E+00  0.00000000000E+00  0.93800000000E+00  0.93800000000E+00 0. -1.
         11    1    1    2    0    0 -0.27156981473E-01 -0.45184634633E-01  0.12471676219E+01  0.12482814151E+01  0.51100000000E-03 0.  1.
    9000002    1    1    2    0    0 -0.16752232985E+00 -0.46146060320E-02  0.23648079387E-01  0.95314650356E+00  0.93800000000E+00 0. -1.
         22    1    1    2    0    0  0.19467931133E+00  0.49799240665E-01  0.27291842660E+01  0.27365720814E+01  0.00000000000E+00 0.  1.
</event>
<event>
 5    1  0.2111786E+001  0.1493541E+01  0.7818608E-02  0.3477687E+00
         11   -1    0    0    0    0  0.00000000000E+00  0.00000000000E+00  0.39999999674E+01  0.40000000000E+01  0.51100000000E-03 0. -1.
    9000002   -1    0    0    0    0 -0.00000000000E+00 -0.00000000000E+00  0.00000000000E+00  0.93800000000E+00  0.93800000000E+00 0.  1.
         11    1    1    2    0    0 -0.54064641906E-01  0.31263430523E+00  0.18792220218E+01  0.19058171116E+01  0.51100000000E-03 0. -1.
    9000002    1    1    2    0    0 -0.10869077514E+00  0.13392169728E+00  0.10310238619E+00  0.95928244414E+00  0.93800000000E+00 0.  1.
         22    1    1    2    0    0  0.16275541704E+00 -0.44655600251E+00  0.20176755593E+01  0.20729004443E+01  0.00000000000E+00 0. -1.
</event>
<event>
 5    1  0.2111786E+001  0.1437903E+01  0.7818608E-02  0.3550569E+00
         11   -1    0    0    0    0  0.00000000000E+00  0.00000000000E+00  0.39999999674E+01  0.40000000000E+01  0.51100000000E-03 0.  1.
    9000002   -1    0    0    0    0 -0.00000000000E+00 -0.00000000000E+00  0.00000000000E+00  0.93800000000E+00  0.93800000000E+00 0.  1.
         11    1    1    2    0    0 -0.31477680063E+00 -0.49831570572E+00  0.25450604502E+01  0.26124195554E+01  0.51100000000E-03 0.  1.
    9000002    1    1    2    0    0  0.62303056565E-03  0.25039188624E+00  0.17752271636E+00  0.98694214607E+00  0.93800000000E+00 0.  1.
         22    1    1    2    0    0  0.31415377006E+00  0.24792381948E+00  0.12774168008E+01  0.13386382986E+01  0.00000000000E+00 0. -1.
</event>
<event>
 5    1  0.2111786E+001  0.1539025E+01  0.7818608E-02  0.3422324E+00
         11   -1    0    0    0    0  0.00000000000E+00  0.00000000000E+00  0.39999999674E+01  0.40000000000E+01  0.51100000000E-03 0.  1.
    9000002   -1    0    0    0    0 -0.00000000000E+00 -0.00000000000E+00  0.00000000000E+00  0.93800000000E+00  0.93800000000E+00 0. -1.
         11    1    1    2    0    0  0.16129449309E+00  0.30989740699E-01  0.34518997676E+01  0.34558050501E+01  0.51100000000E-03 0.  1.
    9000002    1    1    2    0    0  0.24052738063E-01  0.59044066164E-01  0.48093683534E-01  0.94139350877E+00  0.93800000000E+00 0. -1.
         22    1    1    2    0    0 -0.18534723115E+00 -0.90033806863E-01  0.50000651622E+00  0.54080144114E+00  0.00000000000E+00 0.  1.
</event>
<event>
 5    1  0.2111786E+001  0.1505022E+01  0.7818608E-02  0.3463372E+00
         11   -1    0    0    0    0  0.00000000000E+00  0.00000000000E+00  0.39999999674E+01  0.40000000000E+01  0.51100000000E-03 0.  1.
    9000002   -1    0    0    0    0 -0.00000000000E+00 -0.00000000000E+00  0.00000000000E+00  0.93800000000E+00  0.93800000000E+00 0. -1.
         11    1    1    2    0    0 -0.47623387382E-01  0.23663423461E+00  0.43982956528E+00  0.50171112767E+00  0.51100000000E-03 0.  1.
    9000002    1    1    2    0    0  0.10484263876E+00  0.43164335940E-02  0.79909295622E-01  0.94722758935E+00  0.93800000000E+00 0. -1.
         22    1    1    2    0    0 -0.57219251375E-01 -0.24095066821E+00  0.34802611065E+01  0.34890612830E+01  0.00000000000E+00 0.  1.
</event>
<event>
 5    1  0.2111786E+001  0.1518424E+01  0.7818608E-02  0.3446958E+00
         11   -1    0    0    0    0  0.00000000000E+00  0.00000000000E+00  0.39999999674E+01  0.40000000000E+01  0.51100000000E-03 0. -1.
    9000002   -1    0    0    0    0 -0.00000000000E+00 -0.00000000000E+00  0.00000000000E+00  0.93800000000E+00  0.93800000000E+00 0.  1.
         11    1    1    2    0    0 -0.18241336019E+00 -0.40351054241E+00  0.17333885325E+01  0.17890588189E+01  0.51100000000E-03 0. -1.
    9000002    1    1    2    0    0  0.15146083204E+00  0.18350226424E+00  0.10212409044E+00  0.97308108320E+00  0.93800000000E+00 0.  1.
         22    1    1    2    0    0  0.30952528150E-01  0.22000827817E+00  0.21644873444E+01  0.21758600979E+01  0.00000000000E+00 0. -1.
</event>
<event>
 5    1  0.2111786E+001  0.1436501E+01  0.7818608E-02  0.3552484E+00
         11   -1    0    0    0    0  0.00000000000E+00  0.00000000000E+00  0.39999999674E+01  0.40000000000E+01  0.51100000000E-03 0.  1.
    9000002   -1    0    0    0    0 -0.00000000000E+00 -0.00000000000E+00  0.00000000000E+00  0.93800000000E+00  0.93800000000E+00 0.  1.
         11    1    1    2    0    0  0.13492401967E+00 -0.47724183374E+00  0.17902403727E+01  0.18576665772E+01  0.51100000000E-03 0.  1.
    9000002    1    1    2    0    0 -0.33067579563E+00 -0.16124564701E-01  0.21701201499E+00  0.10181083921E+01  0.93800000000E+00 0.  1.
         22    1    1    2    0    0  0.19575177596E+00  0.49336639844E+00  0.19927475796E+01  0.20622250307E+01  0.00000000000E+00 0.  1.
</event>
<event>
 5    1  0.2111786E+001  0.1558089E+01  0.7818608E-02  0.3400147E+00
         11   -1    0    0    0    0  0.00000000000E+00  0.00000000000E+00  0.39999999674E+01  0.40000000000E+01  0.51100000000E-03 0.  1.
    9000002   -1    0    0    0    0 -0.00000000000E+00 -0.00000000000E+00  0.00000000000E+00  0.93800000000E+00  0.93800000000E+00 0. -1.
         11    1    1    2    0    0  0.18588518419E+00  0.14513517891E+00  0.24662018577E+01  0.24774521965E+01  0.51100000000E-03 0.  1.
    9000002    1    1    2    0    0 -0.63528066476E-01  0.68514384856E-01  0.36717314518E-01  0.94335687698E+00  0.93800000000E+00 0. -1.
         22    1    1    2    0    0 -0.12235711772E+00 -0.21364956376E+00  0.14970807951E+01  0.15171909265E+01  0.00000000000E+00 0.  1.
</event>
<event>
 5    1  0.2111786E+001  0.1581297E+01  0.7818608E-02  0.3373916E+00
         11   -1    0    0    0    0  0.00000000000E+00  0.00000000000E+00  0.39999999674E+01  0.40000000000E+01  0.51100000000E-03 0.  1.
    9000002   -1    0    0    0    0 -0.00000000000E+00 -0.00000000000E+00  0.00000000000E+00  0.93800000000E+00  0.93800000000E+00 0. -1.
         11    1    1    2    0    0  0.19762051782E+00 -0.14245714127E+00  0.12705824291E+01  0.12937263530E+01  0.51100000000E-03 0.  1.
    9000002    1    1    2    0    0 -0.44409455941E+00 -0.77516675181E-02  0.14985034894E+00  0.10486082172E+01  0.93800000000E+00 0. -1.
         22    1    1    2    0    0  0.24647404159E+00  0.15020880879E+00  0.25795671894E+01  0.25956654299E+01  0.00000000000E+00 0.  1.
</event>
<event>
 5    1  0.2111786E+001  0.1477665E+01  0.7818608E-02  0.3497876E+00
         11   -1    0    0    0    0  0.00000000000E+00  0.00000000000E+00  0.39999999674E+01  0.40000000000E+01  0.51100000000E-03 0. -1.
    9000002   -1    0    0    0    0 -0.00000000000E+00 -0.00000000000E+00  0.00000000000E+00  0.93800000000E+00  0.93800000000E+00 0. -1.
         11    1    1    2    0    0 -0.21214682983E+00 -0.19640502165E+00  0.44793697040E+00  0.53313131638E+00  0.51100000000E-03 0. -1.
    9000002    1    1    2    0    0  0.24941690859E-01  0.11209773368E+00  0.10401208409E+00  0.95071052559E+00  0.93800000000E+00 0. -1.
         22    1    1    2    0    0  0.18720513897E+00  0.84307287970E-01  0.34480509129E+01  0.34541581580E+01  0.00000000000E+00 0. -1.
</event>
<event>
 5    1  0.2111786E+001  0.1526380E+01  0.7818608E-02  0.3437360E+00
         11   -1    0    0    0    0  0.00000000000E+00  0.00000000000E+00  0.39999999674E+01  0.40000000000E+01  0.51100000000E-03 0. -1.
    9000002   -1    0    0    0    0 -0.00000000000E+00 -0.00000000000E+00  0.00000000000E+00  0.93800000000E+00  0.93800000000E+00 0.  1.
         11    1    1    2    0    0 -0.23516136831E+00  0.26305199622E+00  0.12331542995E+01  0.12826406393E+01  0.51100000000E-03 0. -1.
    9000002    1    1    2    0    0  0.29472961419E+00  0.21238830803E-01  0.11784185075E+00  0.99047833656E+00  0.93800000000E+00 0.  1.
         22    1    1    2    0    0 -0.59568245879E-01 -0.28429082702E+00  0.26490038171E+01  0.26648810242E+01  0.00000000000E+00 0. -1.
</event>
<event>
 5    1  0.2111786E+001  0.1521688E+01  0.7818608E-02  0.3443007E+00
         11   -1    0    0    0    0  0.00000000000E+00  0.00000000000E+00  0.39999999674E+01  0.40000000000E+01  0.51100000000E-03 0.  1.
    9000002   -1    0    0    0    0 -0.00000000000E+00 -0.00000000000E+00  0.00000000000E+00  0.93800000000E+00  0.93800000000E+00 0. -1.
         11    1    1    2    0    0 -0.35011301746E-01  0.19234609142E+00  0.34011469730E+00  0.39230227959E+00  0.51100000000E-03 0.  1.
    9000002    1    1    2    0    0  0.86521916841E-01  0.37618954954E-02  0.64065129516E-01  0.94416552297E+00  0.93800000000E+00 0. -1.
         22    1    1    2    0    0 -0.51510615094E-01 -0.19610798692E+00  0.35958201405E+01  0.36015321974E+01  0.00000000000E+00 0.  1.
</event>
<event>
 5    1  0.2111786E+001  0.1557460E+01  0.7818608E-02  0.3400869E+00
         11   -1    0    0    0    0  0.00000000000E+00  0.00000000000E+00  0.39999999674E+01  0.40000000000E+01  0.51100000000E-03 0.  1.
    9000002   -1    0    0    0    0 -0.00000000000E+00 -0.00000000000E+00  0.00000000000E+00  0.93800000000E+00  0.93800000000E+00 0. -1.
         11    1    1    2    0    0 -0.33511521619E+00 -0.18492700048E+00  0.19151934661E+01  0.19530659173E+01  0.51100000000E-03 0.  1.
    9000002    1    1    2    0    0  0.41319949141E+00 -0.52273780849E-01  0.15370752127E+00  0.10377554481E+01  0.93800000000E+00 0. -1.
         22    1    1    2    0    0 -0.78084275222E-01  0.23720078133E+00  0.19310989800E+01  0.19471786347E+01  0.00000000000E+00 0.  1.
</event>
<event>
 5    1  0.2111786E+001  0.1492534E+01  0.7818608E-02  0.3478954E+00
         11   -1    0    0    0    0  0.00000000000E+00  0.00000000000E+00  0.39999999674E+01  0.40000000000E+01  0.51100000000E-03 0.  1.
    9000002   -1    0    0    0    0 -0.00000000000E+00 -0.00000000000E+00  0.00000000000E+00  0.93800000000E+00  0.93800000000E+00 0. -1.
         11    1    1    2    0    0  0.29021358607E+00 -0.96097225622E-01  0.28298556290E+01  0.28463207382E+01  0.51100000000E-03 0.  1.
    9000002    1    1    2    0    0  0.38673075025E-01 -0.83917676503E-01  0.88251908930E-01  0.94666265512E+00  0.93800000000E+00 0. -1.
         22    1    1    2    0    0 -0.32888666110E+00  0.18001490213E+00  0.10818924294E+01  0.11450166067E+01  0.00000000000E+00 0.  1.
</event>
<event>
 5    1  0.2111786E+001  0.1514571E+01  0.7818608E-02  0.3451645E+00
         11   -1    0    0    0    0  0.00000000000E+00  0.00000000000E+00  0.39999999674E+01  0.40000000000E+01  0.51100000000E-03 0.  1.
    9000002   -1    0    0    0    0 -0.00000000000E+00 -0.00000000000E+00  0.00000000000E+00  0.93800000000E+00  0.93800000000E+00 0. -1.
         11    1    1    2    0    0  0.35421667467E-01 -0.30777146879E+00  0.33637206859E+01  0.33779572356E+01  0.51100000000E-03 0.  1.
    9000002    1    1    2    0    0  0.39560157865E-01  0.79245894464E-01  0.69958642072E-01  0.94476617715E+00  0.93800000000E+00 0. -1.
         22    1    1    2    0    0 -0.74981825332E-01  0.22852557433E+00  0.56632063937E+00  0.61527658726E+00  0.00000000000E+00 0.  1.
</event>
<event>
 5    1  0.2111786E+001  0.1573203E+01  0.7818608E-02  0.3382972E+00
         11   -1    0    0    0    0  0.00000000000E+00  0.00000000000E+00  0.39999999674E+01  0.40000000000E+01  0.51100000000E-03 0. -1.
    9000002   -1    0    0    0    0 -0.00000000000E+00 -0.00000000000E+00  0.00000000000E+00  0.93800000000E+00  0.93800000000E+00 0. -1.
         11    1    1    2    0    0  0.22849974390E+00  0.17950495383E+00  0.78272091877E+00  0.83491703732E+00  0.51100000000E-03 0. -1.
    9000002    1    1    2    0    0 -0.55305130249E+00 -0.28018439818E+00  0.29677887660E+00  0.11628803643E+01  0.93800000000E+00 0. -1.
         22    1    1    2    0    0  0.32455155859E+00  0.10067944434E+00  0.29205001720E+01  0.29402025983E+01  0.00000000000E+00 0. -1.
</event>
<event>
 5    1  0.2111786E+001  0.1567620E+01  0.7818608E-02  0.3389275E+00
         11   -1    0    0    0    0  0.00000000000E+00  0.00000000000E+00  0.39999999674E+01  0.40000000000E+01  0.51100000000E-03 0. -1.
    9000002   -1    0    0    0    0 -0.00000000000E+00 -0.00000000000E+00  0.00000000000E+00  0.93800000000E+00  0.93800000000E+00 0. -1.
         11    1    1    2    0    0 -0.28672578884E+00  0.38434286689E+00  0.13890599933E+01  0.14694961869E+01  0.51100000000E-03 0. -1.
    9000002    1    1    2    0    0  0.35766950281E+00 -0.59980639843E+00  0.38518864688E+00  0.12312227591E+01  0.93800000000E+00 0. -1.
         22    1    1    2    0    0 -0.70943713968E-01  0.21546353154E+00  0.22257513272E+01  0.22372810540E+01  0.00000000000E+00 0.  1.
</event>
<event>
 5    1  0.2111786E+001  0.1609271E+01  0.7818608E-02  0.3343362E+00
         11   -1    0    0    0    0  0.00000000000E+00  0.00000000000E+00  0.39999999674E+01  0.40000000000E+01  0.51100000000E-03 0.  1.
    9000002   -1    0    0    0    0 -0.00000000000E+00 -0.00000000000E+00  0.00000000000E+00  0.93800000000E+00  0.93800000000E+00 0.  1.
         11    1    1    2    0    0  0.20212961360E+00  0.37234727616E+00  0.27058769210E+00  0.50270949364E+00  0.51100000000E-03 0.  1.
    9000002    1    1    2    0    0 -0.17301681336E-01 -0.18156542560E+00  0.30857457603E+00  0.10041551777E+01  0.93800000000E+00 0.  1.
         22    1    1    2    0    0 -0.18482793226E+00 -0.19078185057E+00  0.34208376992E+01  0.34311353286E+01  0.00000000000E+00 0.  1.
</event>
<event>
 5    1  0.2111786E+001  0.1554332E+01  0.7818608E-02  0.3404472E+00
         11   -1    0    0    0    0  0.00000000000E+00  0.00000000000E+00  0.39999999674E+01  0.40000000000E+01  0.51100000000E-03 0.  1.
    9000002   -1    0    0    0    0 -0.00000000000E+00 -0.00000000000E+00  0.00000000000E+00  0.93800000000E+00  0.93800000000E+00 0.  1.
         11    1    1    2    0    0  0.30339734850E-01 -0.32593772876E+00  0.23023424696E+01  0.23254971535E+01  0.51100000000E-03 0.  1.
    9000002    1    1    2    0    0  0.25064659463E-01  0.13262590758E+00  0.46136245998E-01  0.94878365380E+00  0.93800000000E+00 0.  1.
         22    1    1    2    0    0 -0.55404394313E-01  0.19331182117E+00  0.16515212518E+01  0.16637191927E+01  0.00000000000E+00 0.  1.
</event>
<event>
 5    1  0.2111786E+001  0.1585323E+01  0.7818608E-02  0.3369448E+00
         11   -1    0    0    0    0  0.00000000000E+00  0.00000000000E+00  0.39999999674E+01  0.40000000000E+01  0.51100000000E-03 0. -1.
    9000002   -1    0    0    0    0 -0.00000000000E+00 -0.00000000000E+00  0.00000000000E+00  0.93800000000E+00  0.93800000000E+00 0. -1.
         11    1    1    2    0    0  0.14346274668E+00 -0.85605590895E-01  0.14014901886E+01  0.14114123730E+01  0.51100000000E-03 0. -1.
    9000002    1    1    2    0    0 -0.20194825491E-01  0.30353143174E+00  0.73103973771E-01  0.98880096683E+00  0.93800000000E+00 0. -1.
         22    1    1    2    0    0 -0.12326792119E+00 -0.21792584084E+00  0.25254058050E+01  0.25377866602E+01  0.00000000000E+00 0. -1.
</event>
<event>
 5    1  0.2111786E+001  0.1558565E+01  0.7818608E-02  0.3399601E+00
         11   -1    0    0    0    0  0.00000000000E+00  0.00000000000E+00  0.39999999674E+01  0.40000000000E+01  0.51100000000E-03 0. -1.
    9000002   -1    0    0    0    0 -0.00000000000E+00 -0.00000000000E+00  0.00000000000E+00  0.93800000000E+00  0.93800000000E+00 0.  1.
         11    1    1    2    0    0  0.15488163547E+00 -0.17288281310E+00  0.17119576682E+01  0.17276215172E+01  0.51100000000E-03 0. -1.
    9000002    1    1    2    0    0  0.90022418490E-01  0.65715888465E-01  0.38893761189E-01  0.94539903664E+00  0.93800000000E+00 0.  1.
         22    1    1    2    0    0 -0.24490405396E+00  0.10716692463E+00  0.22491485380E+01  0.22649794461E+01  0.00000000000E+00 0.  1.
</event>
<event>
 5    1  0.2111786E+001  0.1558747E+01  0.7818608E-02  0.3399392E+00
         11   -1    0    0    0    0  0.00000000000E+00  0.00000000000E+00  0.39999999674E+01  0.40000000000E+01  0.51100000000E-03 0.  1.
    9000002   -1    0    0    0    0 -0.00000000000E+00 -0.00000000000E+00  0.00000000000E+00  0.93800000000E+00  0.93800000000E+00 0. -1.
         11    1    1    2    0    0 -0.19380113580E+00 -0.20507618841E-01  0.12111513346E+01  0.12267303123E+01  0.51100000000E-03 0.  1.
    9000002    1    1    2    0    0 -0.79433294535E-01 -0.10587566537E+00  0.42263248934E-01  0.94823493239E+00  0.93800000000E+00 0. -1.
         22    1    1    2    0    0  0.27323443034E+00  0.12638328421E+00  0.27465853839E+01  0.27630347553E+01  0.00000000000E+00 0.  1.
</event>
<event>
 5    1  0.2111786E+001  0.1559072E+01  0.7818608E-02  0.3399019E+00
         11   -1    0    0    0    0  0.00000000000E+00  0.00000000000E+00  0.39999999674E+01  0.40000000000E+01  0.51100000000E-03 0. -1.
    9000002   -1    0    0    0    0 -0.00000000000E+00 -0.00000000000E+00  0.00000000000E+00  0.93800000000E+00  0.93800000000E+00 0. -1.
         11    1    1    2    0    0  0.12685387776E+00 -0.18255511562E+00  0.20178907368E+01  0.20300989048E+01  0.51100000000E-03 0. -1.
    9000002    1    1    2    0    0  0.61345880368E-01 -0.25200308275E-02  0.32567039691E-01  0.94057125178E+00  0.93800000000E+00 0. -1.
         22    1    1    2    0    0 -0.18819975813E+00  0.18507514645E+00  0.19495421908E+01  0.19673298434E+01  0.00000000000E+00 0. -1.
</event>
<event>
 5    1  0.2111786E+001  0.1539227E+01  0.7818608E-02  0.3422086E+00
         11   -1    0    0    0    0  0.00000000000E+00  0.00000000000E+00  0.39999999674E+01  0.40000000000E+01  0.51100000000E-03 0. -1.
    9000002   -1    0    0    0    0 -0.00000000000E+00 -0.00000000000E+00  0.00000000000E+00  0.93800000000E+00  0.93800000000E+00 0.  1.
         11    1    1    2    0    0  0.82806375433E-01  0.68133288329E+00  0.20330233069E+01  0.21457528798E+01  0.51100000000E-03 0. -1.
    9000002    1    1    2    0    0  0.16196880863E+00 -0.76485698763E+00  0.52825767059E+00  0.13304661864E+01  0.93800000000E+00 0.  1.
         22    1    1    2    0    0 -0.24477518407E+00  0.83524104333E-01  0.14387189899E+01  0.14617809338E+01  0.00000000000E+00 0. -1.
</event>
<event>
 5    1  0.2111786E+001  0.1535137E+01  0.7818608E-02  0.3426919E+00
         11   -1    0    0    0    0  0.00000000000E+00  0.00000000000E+00  0.39999999674E+01  0.40000000000E+01  0.51100000000E-03 0.  1.
    9000002   -1    0    0    0    0 -0.00000000000E+00 -0.00000000000E+00  0.00000000000E+00  0.93800000000E+00  0.93800000000E+00 0.  1.
         11    1    1    2    0    0 -0.13072033054E+00  0.47597065412E+00  0.21754652561E+01  0.22307588866E+01  0.51100000000E-03 0.  1.
    9000002    1    1    2    0    0  0.24069296351E+00 -0.30481790389E+00  0.15694632902E+00  0.10272892521E+01  0.93800000000E+00 0.  1.
         22    1    1    2    0    0 -0.10997263297E+00 -0.17115275023E+00  0.16675883822E+01  0.16799518613E+01  0.00000000000E+00 0. -1.
</event>
<event>
 5    1  0.2111786E+001  0.1559321E+01  0.7818608E-02  0.3398734E+00
         11   -1    0    0    0    0  0.00000000000E+00  0.00000000000E+00  0.39999999674E+01  0.40000000000E+01  0.51100000000E-03 0. -1.
    9000002   -1    0    0    0    0 -0.00000000000E+00 -0.00000000000E+00  0.00000000000E+00  0.93800000000E+00  0.93800000000E+00 0.  1.
         11    1    1    2    0    0 -0.44830547014E-02 -0.31106948578E-01  0.30324085799E+01  0.30325714825E+01  0.51100000000E-03 0. -1.
    9000002    1    1    2    0    0 -0.12518594483E+00 -0.19121709669E+00  0.65860784290E-01  0.96768648939E+00  0.93800000000E+00 0.  1.
         22    1    1    2    0    0  0.12966899953E+00  0.22232404526E+00  0.90173060316E+00  0.93774202807E+00  0.00000000000E+00 0.  1.
</event>
<event>
 5    1  0.2111786E+001  0.1593173E+01  0.7818608E-02  0.3360807E+00
         11   -1    0    0    0    0  0.00000000000E+00  0.00000000000E+00  0.39999999674E+01  0.40000000000E+01  0.51100000000E-03 0. -1.
    9000002   -1    0    0    0    0 -0.00000000000E+00 -0.00000000000E+00  0.00000000000E+00  0.93800000000E+00  0.93800000000E+00 0.  1.
         11    1    1    2    0    0 -0.11679220247E-01  0.30999415171E-02  0.69243090935E+00  0.69253652551E+00  0.51100000000E-03 0. -1.
    9000002    1    1    2    0    0 -0.29083152463E+00  0.20195890136E+00  0.89369095474E-01  0.10065789630E+01  0.93800000000E+00 0.  1.
         22    1    1    2    0    0  0.30251074487E+00 -0.20505884288E+00  0.32181999625E+01  0.32388845115E+01  0.00000000000E+00 0. -1.
</event>
<event>
 5    1  0.2111786E+001  0.1587188E+01  0.7818608E-02  0.3367388E+00
         11   -1    0    0    0    0  0.00000000000E+00  0.00000000000E+00  0.39999999674E+01  0.40000000000E+01  0.51100000000E-03 0. -1.
    9000002   -1    0    0    0    0 -0.00000000000E+00 -0.00000000000E+00  0.00000000000E+00  0.93800000000E+00  0.93800000000E+00 0.  1.
         11    1    1    2    0    0 -0.15194575198E+00 -0.17823457981E+00  0.13590751186E+01  0.13791085947E+01  0.51100000000E-03 0. -1.
    9000002    1    1    2    0    0  0.37561065388E+00  0.14619825348E+00  0.12011222732E+00  0.10279728789E+01  0.93800000000E+00 0.  1.
         22    1    1    2    0    0 -0.22366490190E+00  0.32036326325E-01  0.25208126214E+01  0.25309185263E+01  0.00000000000E+00 0. -1.
</event>
<event>
 5    1  0.2111786E+001  0.1541946E+01  0.7818608E-02  0.3418888E+00
         11   -1    0    0    0    0  0.00000000000E+00  0.00000000000E+00  0.39999999674E+01  0.40000000000E+01  0.51100000000E-03 0. -1.
    9000002   -1    0    0    0    0 -0.00000000000E+00 -0.00000000000E+00  0.00000000000E+00  0.93800000000E+00  0.93800000000E+00 0.  1.
         11    1    1    2    0    0 -0.13851639406E+00 -0.27833352146E+00  0.22592036977E+01  0.22804951106E+01  0.51100000000E-03 0. -1.
    9000002    1    1    2    0    0  0.17187374550E+00 -0.84327957781E-02  0.63741036728E-01  0.95578167810E+00  0.93800000000E+00 0.  1.
         22    1    1    2    0    0 -0.33357351443E-01  0.28676631724E+00  0.16770552329E+01  0.17017232113E+01  0.00000000000E+00 0. -1.
</event>
<event>
 5    1  0.2111786E+001  0.1599585E+01  0.7818608E-02  0.3353814E+00
         11   -1    0    0    0    0  0.00000000000E+00  0.00000000000E+00  0.39999999674E+01  0.40000000000E+01  0.51100000000E-03 0. -1.
    9000002   -1    0    0    0    0 -0.00000000000E+00 -0.00000000000E+00  0.00000000000E+00  0.93800000000E+00  0.93800000000E+00 0.  1.
         11    1    1    2    0    0  0.46889676790E-01  0.73512949559E-01  0.11988177922E+01  0.12019846736E+01  0.51100000000E-03 0. -1.
    9000002    1    1    2    0    0 -0.17381520820E+00 -0.26970736831E+00  0.68893212959E-01  0.99375251744E+00  0.93800000000E+00 0.  1.
         22    1    1    2    0    0  0.12692553141E+00  0.19619441875E+00  0.27322889622E+01  0.27422628090E+01  0.00000000000E+00 0. -1.
</event>
<event>
 5    1  0.2111786E+001  0.1515251E+01  0.7818608E-02  0.3450817E+00
         11   -1    0    0    0    0  0.00000000000E+00  0.00000000000E+00  0.39999999674E+01  0.40000000000E+01  0.51100000000E-03 0.  1.
    9000002   -1    0    0    0    0 -0.00000000000E+00 -0.00000000000E+00  0.00000000000E+00  0.93800000000E+00  0.93800000000E+00 0.  1.
         11    1    1    2    0    0 -0.21940163798E-01 -0.42245006725E+00  0.19160909248E+01  0.19622309047E+01  0.51100000000E-03 0.  1.
    9000002    1    1    2    0    0 -0.16916931182E-03  0.15000088610E+00  0.79975452224E-01  0.95327874591E+00  0.93800000000E+00 0.  1.
         22    1    1    2    0    0  0.22109333110E-01  0.27244918115E+00  0.20039335903E+01  0.20224903493E+01  0.00000000000E+00 0.  1.
</event>
<event>
 5    1  0.2111786E+001  0.1560883E+01  0.7818608E-02  0.3396946E+00
         11   -1    0    0    0    0  0.00000000000E+00  0.00000000000E+00  0.39999999674E+01  0.40000000000E+01  0.51100000000E-03 0.  1.
    9000002   -1    0    0    0    0 -0.00000000000E+00 -0.00000000000E+00  0.00000000000E+00  0.93800000000E+00  0.93800000000E+00 0.  1.
         11    1    1    2    0    0  0.47725820163E-01 -0.18625282393E+00  0.10988823716E+01  0.11155763515E+01  0.51100000000E-03 0.  1.
    9000002    1    1    2    0    0  0.61424277603E-01 -0.57507565586E-01  0.33465460641E-01  0.94236086455E+00  0.93800000000E+00 0.  1.
         22    1    1    2    0    0 -0.10915009777E+00  0.24376038952E+00  0.28676521351E+01  0.28800627839E+01  0.00000000000E+00 0.  1.
</event>
<event>
 5    1  0.2111786E+001  0.1514277E+01  0.7818608E-02  0.3452004E+00
         11   -1    0    0    0    0  0.00000000000E+00  0.00000000000E+00  0.39999999674E+01  0.40000000000E+01  0.51100000000E-03 0.  1.
    9000002   -1    0    0    0    0 -0.00000000000E+00 -0.00000000000E+00  0.00000000000E+00  0.93800000000E+00  0.93800000000E+00 0.  1.
         11    1    1    2    0    0  0.40261975090E+00 -0.33266394989E+00  0.28830941266E+01  0.29300170599E+01  0.51100000000E-03 0.  1.
    9000002    1    1    2    0    0 -0.15000797950E+00  0.31897952738E+00  0.15573251849E+00  0.10140744303E+01  0.93800000000E+00 0.  1.
         22    1    1    2    0    0 -0.25261177140E+00  0.13684422517E-01  0.96117332232E+00  0.99390850988E+00  0.00000000000E+00 0.  1.
</event>
<event>
 5    1  0.2111786E+001  0.1541649E+01  0.7818608E-02  0.3419237E+00
         11   -1    0    0    0    0  0.00000000000E+00  0.00000000000E+00  0.39999999674E+01  0.40000000000E+01  0.51100000000E-03 0.  1.
    9000002   -1    0    0    0    0 -0.00000000000E+00 -0.00000000000E+00  0.00000000000E+00  0.93800000000E+00  0.93800000000E+00 0.  1.
         11    1    1    2    0    0  0.14310892287E+00  0.20205164480E+00  0.33461717302E+01  0.33553197374E+01  0.51100000000E-03 0.  1.
    9000002    1    1    2    0    0 -0.17696873677E-02 -0.54096443475E-01  0.45277043409E-01  0.94065060870E+00  0.93800000000E+00 0.  1.
         22    1    1    2    0    0 -0.14133923550E+00 -0.14795520132E+00  0.60855119377E+00  0.64202965393E+00  0.00000000000E+00 0.  1.
</event>
<event>
 5    1  0.2111786E+001  0.1519890E+01  0.7818608E-02  0.3445182E+00
         11   -1    0    0    0    0  0.00000000000E+00  0.00000000000E+00  0.39999999674E+01  0.40000000000E+01  0.51100000000E-03 0.  1.
    9000002   -1    0    0    0    0 -0.00000000000E+00 -0.00000000000E+00  0.00000000000E+00  0.93800000000E+00  0.93800000000E+00 0. -1.
         11    1    1    2    0    0  0.16206091275E+00  0.38704492899E+00  0.24924149962E+01  0.25274889299E+01  0.51100000000E-03 0.  1.
    9000002    1    1    2    0    0  0.23687184760E-01 -0.17623207737E+00  0.82803459965E-01  0.95828974783E+00  0.93800000000E+00 0. -1.
         22    1    1    2    0    0 -0.18574809751E+00 -0.21081285162E+00  0.14247815112E+01  0.14522213223E+01  0.00000000000E+00 0. -1.
</event>
<event>
 5    1  0.2111786E+001  0.1514005E+01  0.7818608E-02  0.3452336E+00
         11   -1    0    0    0    0  0.00000000000E+00  0.00000000000E+00  0.39999999674E+01  0.40000000000E+01  0.51100000000E-03 0.  1.
    9000002   -1    0    0    0    0 -0.00000000000E+00 -0.00000000000E+00  0.00000000000E+00  0.93800000000E+00  0.93800000000E+00 0. -1.
         11    1    1    2    0    0 -0.13231795381E+00  0.37869911992E+00  0.33309996896E+01  0.33550678470E+01  0.51100000000E-03 0.  1.
    9000002    1    1    2    0    0  0.27533278187E-01 -0.17700865544E+00  0.87930322829E-01  0.95899212050E+00  0.93800000000E+00 0. -1.
         22    1    1    2    0    0  0.10478467562E+00 -0.20169046448E+00  0.58106995492E+00  0.62394003255E+00  0.00000000000E+00 0.  1.
</event>
<event>
 5    1  0.2111786E+001  0.1553823E+01  0.7818608E-02  0.3405059E+00
         11   -1    0    0    0    0  0.00000000000E+00  0.00000000000E+00  0.39999999674E+01  0.40000000000E+01  0.51100000000E-03 0. -1.
    9000002   -1    0    0    0    0 -0.00000000000E+00 -0.00000000000E+00  0.00000000000E+00  0.93800000000E+00  0.93800000000E+00 0.  1.
         11    1    1    2    0    0  0.19122795225E+00 -0.16027867926E-01  0.68436857816E+00  0.71076411992E+00  0.51100000000E-03 0. -1.
    9000002    1    1    2    0    0  0.27002257962E-01  0.12620114910E+00  0.45447111355E-01  0.94792683890E+00  0.93800000000E+00 0.  1.
         22    1    1    2    0    0 -0.21823021021E+00 -0.11017328117E+00  0.32701842778E+01  0.32793090412E+01  0.00000000000E+00 0. -1.
</event>
<event>
 5    1  0.2111786E+001  0.1589680E+01  0.7818608E-02  0.3364641E+00
         11   -1    0    0    0    0  0.00000000000E+00  0.00000000000E+00  0.39999999674E+01  0.40000000000E+01  0.51100000000E-03 0.  1.
    9000002   -1    0    0    0    0 -0.00000000000E+00 -0.00000000000E+00  0.00000000000E+00  0.93800000000E+00  0.93800000000E+00 0.  1.
         11    1    1    2    0    0 -0.23038043316E-01  0.81404638549E-01  0.11729930678E+01  0.11760401629E+01  0.51100000000E-03 0.  1.
    9000002    1    1    2    0    0 -0.16477642910E+00  0.57692719220E-02  0.25407584945E-01  0.95271931935E+00  0.93800000000E+00 0.  1.
         22    1    1    2    0    0  0.18781447242E+00 -0.87173910471E-01  0.28015993146E+01  0.28092405177E+01  0.00000000000E+00 0. -1.
</event>
<event>
 5    1  0.2111786E+001  0.1513723E+01  0.7818608E-02  0.3452681E+00
         11   -1    0    0    0    0  0.00000000000E+00  0.00000000000E+00  0.39999999674E+01  0.40000000000E+01  0.51100000000E-03 0.  1.
    9000002   -1    0    0    0    0 -0.00000000000E+00 -0.00000000000E+00  0.00000000000E+00  0.93800000000E+00  0.93800000000E+00 0. -1.
         11    1    1    2    0    0 -0.22920064098E+00 -0.22316290714E+00  0.25347135572E+01  0.25548204820E+01  0.51100000000E-03 0.  1.
    9000002    1    1    2    0    0  0.30566831488E+00 -0.16942038587E+00  0.15463951264E+00  0.10128641393E+01  0.93800000000E+00 0. -1.
         22    1    1    2    0    0 -0.76467673902E-01  0.39258329301E+00  0.13106468975E+01  0.13703153787E+01  0.00000000000E+00 0.  1.
</event>
<event>
 5    1  0.2111786E+001  0.1558807E+01  0.7818608E-02  0.3399323E+00
         11   -1    0    0    0    0  0.00000000000E+00  0.00000000000E+00  0.39999999674E+01  0.40000000000E+01  0.51100000000E-03 0. -1.
    9000002   -1    0    0    0    0 -0.00000000000E+00 -0.00000000000E+00  0.00000000000E+00  0.93800000000E+00  0.93800000000E+00 0.  1.
         11    1    1    2    0    0  0.21291466095E+00  0.11868953969E+00  0.13196457124E+01  0.13419705388E+01  0.51100000000E-03 0. -1.
    9000002    1    1    2    0    0 -0.26757963664E-01 -0.40623483293E-01  0.31805105367E-01  0.93979881929E+00  0.93800000000E+00 0.  1.
         22    1    1    2    0    0 -0.18615669729E+00 -0.78066056401E-01  0.26485491496E+01  0.26562306419E+01  0.00000000000E+00 0. -1.
</event>
<event>
 5    1  0.2111786E+001  0.1590612E+01  0.7818608E-02  0.3363616E+00
         11   -1    0    0    0    0  0.00000000000E+00  0.00000000000E+00  0.39999999674E+01  0.40000000000E+01  0.51100000000E-03 0. -1.
    9000002   -1    0    0    0    0 -0.00000000000E+00 -0.00000000000E+00  0.00000000000E+00  0.93800000000E+00  0.93800000000E+00 0. -1.
         11    1    1    2    0    0 -0.88440032353E-01  0.55417854961E-01  0.13535480200E+01  0.13575659400E+01  0.51100000000E-03 0. -1.
    9000002    1    1    2    0    0  0.17830745398E+00  0.14545616153E+00  0.42025359548E-01  0.96672704210E+00  0.93800000000E+00 0. -1.
         22    1    1    2    0    0 -0.89867421630E-01 -0.20087401649E+00  0.26044265878E+01  0.26137070179E+01  0.00000000000E+00 0. -1.
</event>
<event>
 5    1  0.2111786E+001  0.1555350E+01  0.7818608E-02  0.3403298E+00
         11   -1    0    0    0    0  0.00000000000E+00  0.00000000000E+00  0.39999999674E+01  0.40000000000E+01  0.51100000000E-03 0.  1.
    9000002   -1    0    0    0    0 -0.00000000000E+00 -0.00000000000E+00  0.00000000000E+00  0.93800000000E+00  0.93800000000E+00 0.  1.
         11    1    1    2    0    0 -0.17536149656E+00  0.25733295180E+00  0.25191064488E+01  0.25382808088E+01  0.51100000000E-03 0.  1.
    9000002    1    1    2    0    0  0.16693329222E+00 -0.37256450129E-01  0.52997663158E-01  0.95493848987E+00  0.93800000000E+00 0.  1.
         22    1    1    2    0    0  0.84282043324E-02 -0.22007650167E+00  0.14278958554E+01  0.14447807014E+01  0.00000000000E+00 0.  1.
</event>
<event>
 5    1  0.2111786E+001  0.1576548E+01  0.7818608E-02  0.3379218E+00
         11   -1    0    0    0    0  0.00000000000E+00  0.00000000000E+00  0.39999999674E+01  0.40000000000E+01  0.51100000000E-03 0. -1.
    9000002   -1    0    0    0    0 -0.00000000000E+00 -0.00000000000E+00  0.00000000000E+00  0.93800000000E+00  0.93800000000E+00 0. -1.
         11    1    1    2    0    0  0.20151946086E+00 -0.64186312717E-02  0.23060034684E+01  0.23148009740E+01  0.51100000000E-03 0. -1.
    9000002    1    1    2    0    0 -0.10033293684E+00  0.19964723668E+00  0.50793430249E-01  0.96558256503E+00  0.93800000000E+00 0. -1.
         22    1    1    2    0    0 -0.10118652402E+00 -0.19322860541E+00  0.16432030687E+01  0.16576164609E+01  0.00000000000E+00 0.  1.
</event>
<event>
 5    1  0.2111786E+001  0.1567053E+01  0.7818608E-02  0.3389919E+00
         11   -1    0    0    0    0  0.00000000000E+00  0.00000000000E+00  0.39999999674E+01  0.40000000000E+01  0.51100000000E-03 0. -1.
    9000002   -1    0    0    0    0 -0.00000000000E+00 -0.00000000000E+00  0.00000000000E+00  0.93800000000E+00  0.93800000000E+00 0.  1.
         11    1    1    2    0    0 -0.21294232870E+00 -0.29789549225E+00  0.11206985774E+01  0.11790045472E+01  0.51100000000E-03 0. -1.
    9000002    1    1    2    0    0  0.24737241474E+00  0.50352650481E+00  0.24968138284E+00  0.11211230287E+01  0.93800000000E+00 0.  1.
         22    1    1    2    0    0 -0.34430086039E-01 -0.20563101256E+00  0.26296200071E+01  0.26378724241E+01  0.00000000000E+00 0. -1.
</event>
<event>
 5    1  0.2111786E+001  0.1541848E+01  0.7818608E-02  0.3419003E+00
         11   -1    0    0    0    0  0.00000000000E+00  0.00000000000E+00  0.39999999674E+01  0.40000000000E+01  0.51100000000E-03 0.  1.
    9000002   -1    0    0    0    0 -0.00000000000E+00 -0.00000000000E+00  0.00000000000E+00  0.93800000000E+00  0.93800000000E+00 0.  1.
         11    1    1    2    0    0  0.17165299015E+00 -0.22203790095E+00  0.14340388545E+01  0.14612437428E+01  0.51100000000E-03 0.  1.
    9000002    1    1    2    0    0  0.28327249640E-01  0.30996596074E-01  0.44310323869E-01  0.93998437585E+00  0.93800000000E+00 0.  1.
         22    1    1    2    0    0 -0.19998023979E+00  0.19104130488E+00  0.25216507889E+01  0.25367718813E+01  0.00000000000E+00 0.  1.
</event>
<event>
 5    1  0.2111786E+001  0.1571878E+01  0.7818608E-02  0.3384464E+00
         11   -1    0    0    0    0  0.00000000000E+00  0.00000000000E+00  0.39999999674E+01  0.40000000000E+01  0.51100000000E-03 0. -1.
    9000002   -1    0    0    0    0 -0.00000000000E+00 -0.00000000000E+00  0.00000000000E+00  0.93800000000E+00  0.93800000000E+00 0. -1.
         11    1    1    2    0    0 -0.52136796918E-01  0.17711800490E+00  0.14557986349E+01  0.14674600369E+01  0.51100000000E-03 0. -1.
    9000002    1    1    2    0    0 -0.64442881277E-01  0.20769827051E-02  0.23209148774E-01  0.94049979447E+00  0.93800000000E+00 0. -1.
         22    1    1    2    0    0  0.11657967820E+00 -0.17919498760E+00  0.25209921837E+01  0.25300401687E+01  0.00000000000E+00 0. -1.
</event>
<event>
 5    1  0.2111786E+001  0.1548396E+01  0.7818608E-02  0.3411351E+00
         11   -1    0    0    0    0  0.00000000000E+00  0.00000000000E+00  0.39999999674E+01  0.40000000000E+01  0.51100000000E-03 0. -1.
    9000002   -1    0    0    0    0 -0.00000000000E+00 -0.00000000000E+00  0.00000000000E+00  0.93800000000E+00  0.93800000000E+00 0. -1.
         11    1    1    2    0    0 -0.15131821770E+00 -0.28058117555E+00  0.18789232243E+01  0.19057743158E+01  0.51100000000E-03 0. -1.
    9000002    1    1    2    0    0 -0.85981019455E-02  0.11992797316E+00  0.48105149454E-01  0.94689743452E+00  0.93800000000E+00 0. -1.
         22    1    1    2    0    0  0.15991631965E+00  0.16065320239E+00  0.20729715936E+01  0.20853282496E+01  0.00000000000E+00 0. -1.
</event>
<event>
 5    1  0.2111786E+001  0.1542034E+01  0.7818608E-02  0.3418785E+00
         11   -1    0    0    0    0  0.00000000000E+00  0.00000000000E+00  0.39999999674E+01  0.40000000000E+01  0.51100000000E-03 0.  1.
    9000002   -1    0    0    0    0 -0.00000000000E+00 -0.00000000000E+00  0.00000000000E+00  0.93800000000E+00  0.93800000000E+00 0.  1.
         11    1    1    2    0    0  0.21553892934E+00 -0.25532181794E+00  0.29490026356E+01  0.29678718076E+01  0.51100000000E-03 0.  1.
    9000002    1    1    2    0    0 -0.10038192036E+00  0.62548107672E-01  0.52707530211E-01  0.94689538992E+00  0.93800000000E+00 0.  1.
         22    1    1    2    0    0 -0.11515700897E+00  0.19277371027E+00  0.99828980160E+00  0.10232328025E+01  0.00000000000E+00 0. -1.
</event>
<event>
 5    1  0.2111786E+001  0.1577628E+01  0.7818608E-02  0.3378009E+00
         11   -1    0    0    0    0  0.00000000000E+00  0.00000000000E+00  0.39999999674E+01  0.40000000000E+01  0.51100000000E-03 0. -1.
    9000002   -1    0    0    0    0 -0.00000000000E+00 -0.00000000000E+00  0.00000000000E+00  0.93800000000E+00  0.93800000000E+00 0. -1.
         11    1    1    2    0    0 -0.84970567362E-01  0.16307923628E-01  0.25748292904E+01  0.25762826090E+01  0.51100000000E-03 0. -1.
    9000002    1    1    2    0    0 -0.13249608318E+00 -0.16951842257E-01  0.28159778080E-01  0.94788161187E+00  0.93800000000E+00 0. -1.
         22    1    1    2    0    0  0.21746665054E+00  0.64391862943E-03  0.13970108989E+01  0.14138357791E+01  0.00000000000E+00 0.  1.
</event>
<event>
 5    1  0.2111786E+001  0.1525107E+01  0.7818608E-02  0.3438889E+00
         11   -1    0    0    0    0  0.00000000000E+00  0.00000000000E+00  0.39999999674E+01  0.40000000000E+01  0.51100000000E-03 0. -1.
    9000002   -1    0    0    0    0 -0.00000000000E+00 -0.00000000000E+00  0.00000000000E+00  0.93800000000E+00  0.93800000000E+00 0. -1.
         11    1    1    2    0    0 -0.92632817608E-02  0.29233844984E+00  0.16174610243E+01  0.16436934033E+01  0.51100000000E-03 0. -1.
    9000002    1    1    2    0    0  0.15797548256E+00  0.63745648057E-01  0.76725696923E-01  0.95642594763E+00  0.93800000000E+00 0. -1.
         22    1    1    2    0    0 -0.14871220080E+00 -0.35608409790E+00  0.23058132461E+01  0.23378806491E+01  0.00000000000E+00 0. -1.
</event>
<event>
 5    1  0.2111786E+001  0.1527746E+01  0.7818608E-02  0.3435723E+00
         11   -1    0    0    0    0  0.00000000000E+00  0.00000000000E+00  0.39999999674E+01  0.40000000000E+01  0.51100000000E-03 0.  1.
    9000002   -1    0    0    0    0 -0.00000000000E+00 -0.00000000000E+00  0.00000000000E+00  0.93800000000E+00  0.93800000000E+00 0. -1.
         11    1    1    2    0    0  0.19680407765E+00 -0.28282110452E-01  0.46767300816E+00  0.50818306390E+00  0.51100000000E-03 0.  1.
    9000002    1    1    2    0    0  0.10124318402E+00 -0.47871787298E-01  0.62872903484E-01  0.94675175855E+00  0.93800000000E+00 0. -1.
         22    1    1    2    0    0 -0.29804726167E+00  0.76153897750E-01  0.34694540557E+01  0.34830651775E+01  0.00000000000E+00 0.  1.
</event>
<event>
 5    1  0.2111786E+001  0.1577345E+01  0.7818608E-02  0.3378326E+00
         11   -1    0    0    0    0  0.00000000000E+00  0.00000000000E+00  0.39999999674E+01  0.40000000000E+01  0.51100000000E-03 0.  1.
    9000002   -1    0    0    0    0 -0.00000000000E+00 -0.00000000000E+00  0.00000000000E+00  0.93800000000E+00  0.93800000000E+00 0.  1.
         11    1    1    2    0    0  0.15895122711E+00 -0.64749285865E-01  0.21025059412E+01  0.21094998120E+01  0.51100000000E-03 0.  1.
    9000002    1    1    2    0    0 -0.15378564030E+00 -0.18276289154E+00  0.55050183247E-01  0.96949823123E+00  0.93800000000E+00 0.  1.
         22    1    1    2    0    0 -0.51655868124E-02  0.24751217740E+00  0.18424438429E+01  0.18590019568E+01  0.00000000000E+00 0.  1.
</event>
<event>
 5    1  0.2111786E+001  0.1534468E+01  0.7818608E-02  0.3427712E+00
         11   -1    0    0    0    0  0.00000000000E+00  0.00000000000E+00  0.39999999674E+01  0.40000000000E+01  0.51100000000E-03 0. -1.
    9000002   -1    0    0    0    0 -0.00000000000E+00 -0.00000000000E+00  0.00000000000E+00  0.93800000000E+00  0.93800000000E+00 0. -1.
         11    1    1    2    0    0  0.25034478340E+00 -0.69932891545E+00  0.25515392974E+01  0.26574586525E+01  0.51100000000E-03 0. -1.
    9000002    1    1    2    0    0 -0.49297878656E+00  0.61529015997E+00  0.54459361782E+00  0.13409087491E+01  0.93800000000E+00 0. -1.
         22    1    1    2    0    0  0.24263400316E+00  0.84038755479E-01  0.90386705215E+00  0.93963259834E+00  0.00000000000E+00 0. -1.
</event>
<event>
 5    1  0.2111786E+001  0.1598421E+01  0.7818608E-02  0.3355079E+00
         11   -1    0    0    0    0  0.00000000000E+00  0.00000000000E+00  0.39999999674E+01  0.40000000000E+01  0.51100000000E-03 0.  1.
    9000002   -1    0    0    0    0 -0.00000000000E+00 -0.00000000000E+00  0.00000000000E+00  0.93800000000E+00  0.93800000000E+00 0. -1.
         11    1    1    2    0    0  0.15858606820E+00  0.23614975281E+00  0.21088350847E+01  0.21279337214E+01  0.51100000000E-03 0.  1.
    9000002    1    1    2    0    0 -0.32473229376E+00 -0.36142484092E+00  0.16235164313E+00  0.10687754836E+01  0.93800000000E+00 0. -1.
         22    1    1    2    0    0  0.16614622556E+00  0.12527508811E+00  0.17288132395E+01  0.17412907951E+01  0.00000000000E+00 0.  1.
</event>
<event>
 5    1  0.2472259E+001  0.1573230E+01  0.7818608E-02  0.3382941E+00
         11   -1    0    0    0    0  0.00000000000E+00  0.00000000000E+00  0.39999999674E+01  0.40000000000E+01  0.51100000000E-03 0. -1.
    9000002   -1    0    0    0    0 -0.00000000000E+00 -0.00000000000E+00  0.00000000000E+00  0.93800000000E+00  0.93800000000E+00 0.  1.
         11    1    1    2    0    0 -0.17514985074E+00  0.53990775511E-01  0.23297870925E+01  0.23369853726E+01  0.51100000000E-03 0. -1.
    9000002    1    1    2    0    0 -0.23299711382E-01 -0.25034499457E-01  0.20181611596E-01  0.93884018883E+00  0.93800000000E+00 0.  1.
         22    1    1    2    0    0  0.19844956212E+00 -0.28956276055E-01  0.16500312632E+01  0.16621744386E+01  0.00000000000E+00 0. -1.
</event>
<event>
 5    1  0.2111786E+001  0.1461259E+01  0.7818608E-02  0.3519240E+00
         11   -1    0    0    0    0  0.00000000000E+00  0.00000000000E+00  0.39999999674E+01  0.40000000000E+01  0.51100000000E-03 0.  1.
    9000002   -1    0    0    0    0 -0.00000000000E+00 -0.00000000000E+00  0.00000000000E+00  0.93800000000E+00  0.93800000000E+00 0.  1.
         11    1    1    2    0    0  0.71997320849E+00 -0.24224217953E+00  0.27944018519E+01  0.28958115729E+01  0.51100000000E-03 0.  1.
    9000002    1    1    2    0    0 -0.46652669537E+00  0.16977356599E+00  0.30563246915E+00  0.11044118016E+01  0.93800000000E+00 0.  1.
         22    1    1    2    0    0 -0.25344651312E+00  0.72468613544E-01  0.89996564631E+00  0.93777662559E+00  0.00000000000E+00 0.  1.
</event>
<event>
 5    1  0.2111786E+001  0.1551900E+01  0.7818608E-02  0.3407284E+00
         11   -1    0    0    0    0  0.00000000000E+00  0.00000000000E+00  0.39999999674E+01  0.40000000000E+01  0.51100000000E-03 0.  1.
    9000002   -1    0    0    0    0 -0.00000000000E+00 -0.00000000000E+00  0.00000000000E+00  0.93800000000E+00  0.93800000000E+00 0. -1.
         11    1    1    2    0    0  0.15497740782E+00  0.22565921211E+00  0.13486436406E+01  0.13761467972E+01  0.51100000000E-03 0.  1.
    9000002    1    1    2    0    0  0.10246257729E-01 -0.95688975707E-01  0.41806812177E-01  0.94385018695E+00  0.93800000000E+00 0. -1.
         22    1    1    2    0    0 -0.16522366555E+00 -0.12997023641E+00  0.26095495146E+01  0.26180030158E+01  0.00000000000E+00 0.  1.
</event>
<event>
 5    1  0.2111786E+001  0.1554215E+01  0.7818608E-02  0.3404606E+00
         11   -1    0    0    0    0  0.00000000000E+00  0.00000000000E+00  0.39999999674E+01  0.40000000000E+01  0.51100000000E-03 0.  1.
    9000002   -1    0    0    0    0 -0.00000000000E+00 -0.00000000000E+00  0.00000000000E+00  0.93800000000E+00  0.93800000000E+00 0.  1.
         11    1    1    2    0    0 -0.10606270522E+00 -0.21979372005E+00  0.12026290456E+01  0.12271411733E+01  0.51100000000E-03 0.  1.
    9000002    1    1    2    0    0 -0.61662794561E-01  0.62785418239E-01  0.38988855547E-01  0.94292546886E+00  0.93800000000E+00 0.  1.
         22    1    1    2    0    0  0.16772549978E+00  0.15700830181E+00  0.27583820662E+01  0.27679333578E+01  0.00000000000E+00 0.  1.
</event>
<event>
 5    1  0.2111786E+001  0.1560428E+01  0.7818608E-02  0.3397467E+00
         11   -1    0    0    0    0  0.00000000000E+00  0.00000000000E+00  0.39999999674E+01  0.40000000000E+01  0.51100000000E-03 0. -1.
    9000002   -1    0    0    0    0 -0.00000000000E+00 -0.00000000000E+00  0.00000000000E+00  0.93800000000E+00  0.93800000000E+00 0.  1.
         11    1    1    2    0    0  0.15109158216E+00  0.30121344339E-01  0.50983671458E+00  0.53260651352E+00  0.51100000000E-03 0. -1.
    9000002    1    1    2    0    0  0.56992919154E-01 -0.25981562691E-01  0.31647883530E-01  0.94062150888E+00  0.93800000000E+00 0.  1.
         22    1    1    2    0    0 -0.20808450131E+00 -0.41397816481E-02  0.34585153692E+01  0.34647719776E+01  0.00000000000E+00 0. -1.
</event>
<event>
 5    1  0.2111786E+001  0.1571873E+01  0.7818608E-02  0.3384469E+00
         11   -1    0    0    0    0  0.00000000000E+00  0.00000000000E+00  0.39999999674E+01  0.40000000000E+01  0.51100000000E-03 0. -1.
    9000002   -1    0    0    0    0 -0.00000000000E+00 -0.00000000000E+00  0.00000000000E+00  0.93800000000E+00  0.93800000000E+00 0. -1.
         11    1    1    2    0    0 -0.19606389666E-01 -0.19192444817E+00  0.15454674713E+01  0.15574624780E+01  0.51100000000E-03 0. -1.
    9000002    1    1    2    0    0  0.32928012578E-01 -0.91942835503E-02  0.21190510440E-01  0.93886198485E+00  0.93800000000E+00 0. -1.
         22    1    1    2    0    0 -0.13321622912E-01  0.20111873172E+00  0.24333419856E+01  0.24416755371E+01  0.00000000000E+00 0. -1.
</event>
<event>
 5    1  0.2111786E+001  0.1541635E+01  0.7818608E-02  0.3419254E+00
         11   -1    0    0    0    0  0.00000000000E+00  0.00000000000E+00  0.39999999674E+01  0.40000000000E+01  0.51100000000E-03 0.  1.
    9000002   -1    0    0    0    0 -0.00000000000E+00 -0.00000000000E+00  0.00000000000E+00  0.93800000000E+00  0.93800000000E+00 0.  1.
         11    1    1    2    0    0  0.26078818046E+00 -0.32995163835E+00  0.26302540792E+01  0.26636657713E+01  0.51100000000E-03 0.  1.
    9000002    1    1    2    0    0 -0.41661340082E+00  0.90390655264E-01  0.17400965139E+00  0.10449213153E+01  0.93800000000E+00 0.  1.
         22    1    1    2    0    0  0.15582522036E+00  0.23956098308E+00  0.11957362367E+01  0.12294129135E+01  0.00000000000E+00 0.  1.
</event>
<event>
 5    1  0.2111786E+001  0.1483670E+01  0.7818608E-02  0.3490184E+00
         11   -1    0    0    0    0  0.00000000000E+00  0.00000000000E+00  0.39999999674E+01  0.40000000000E+01  0.51100000000E-03 0. -1.
    9000002   -1    0    0    0    0 -0.00000000000E+00 -0.00000000000E+00  0.00000000000E+00  0.93800000000E+00  0.93800000000E+00 0. -1.
         11    1    1    2    0    0 -0.26889289531E+00 -0.31744665832E+00  0.58187471655E+00  0.71530008870E+00  0.51100000000E-03 0. -1.
    9000002    1    1    2    0    0  0.14140212925E+00  0.97510015402E-01  0.17487144310E+00  0.96949821396E+00  0.93800000000E+00 0. -1.
         22    1    1    2    0    0  0.12749076606E+00  0.21993664291E+00  0.32432538077E+01  0.32532016973E+01  0.00000000000E+00 0. -1.
</event>
<event>
 5    1  0.2111786E+001  0.1547925E+01  0.7818608E-02  0.3411899E+00
         11   -1    0    0    0    0  0.00000000000E+00  0.00000000000E+00  0.39999999674E+01  0.40000000000E+01  0.51100000000E-03 0. -1.
    9000002   -1    0    0    0    0 -0.00000000000E+00 -0.00000000000E+00  0.00000000000E+00  0.93800000000E+00  0.93800000000E+00 0.  1.
         11    1    1    2    0    0  0.19301043323E+00 -0.14681158182E+00  0.29194130763E+01  0.29294674668E+01  0.51100000000E-03 0. -1.
    9000002    1    1    2    0    0  0.47300922392E-01  0.91310694997E-01  0.45769540513E-01  0.94472952273E+00  0.93800000000E+00 0.  1.
         22    1    1    2    0    0 -0.24031135562E+00  0.55500886823E-01  0.10348173506E+01  0.10638030105E+01  0.00000000000E+00 0. -1.
</event>
<event>
 5    1  0.2111786E+001  0.1568159E+01  0.7818608E-02  0.3388665E+00
         11   -1    0    0    0    0  0.00000000000E+00  0.00000000000E+00  0.39999999674E+01  0.40000000000E+01  0.51100000000E-03 0. -1.
    9000002   -1    0    0    0    0 -0.00000000000E+00 -0.00000000000E+00  0.00000000000E+00  0.93800000000E+00  0.93800000000E+00 0. -1.
         11    1    1    2    0    0 -0.13410321093E+00 -0.56254711218E-01  0.47923332015E+00  0.50081243992E+00  0.51100000000E-03 0. -1.
    9000002    1    1    2    0    0  0.13127185815E+00 -0.16599679892E+00  0.53776701864E-01  0.96308004426E+00  0.93800000000E+00 0. -1.
         22    1    1    2    0    0  0.28313527804E-02  0.22225151014E+00  0.34669899453E+01  0.34741075158E+01  0.00000000000E+00 0. -1.
</event>
<event>
 5    1  0.2111786E+001  0.1461261E+01  0.7818608E-02  0.3519236E+00
         11   -1    0    0    0    0  0.00000000000E+00  0.00000000000E+00  0.39999999674E+01  0.40000000000E+01  0.51100000000E-03 0. -1.
    9000002   -1    0    0    0    0 -0.00000000000E+00 -0.00000000000E+00  0.00000000000E+00  0.93800000000E+00  0.93800000000E+00 0.  1.
         11    1    1    2    0    0 -0.57203546244E+00  0.42887328458E+00  0.24219437481E+01  0.25252660542E+01  0.51100000000E-03 0. -1.
    9000002    1    1    2    0    0  0.38402490582E+00 -0.22864938674E+00  0.26642191463E+00  0.10726510649E+01  0.93800000000E+00 0.  1.
         22    1    1    2    0    0  0.18801055662E+00 -0.20022389784E+00  0.13116343046E+01  0.13400828809E+01  0.00000000000E+00 0. -1.
</event>
<event>
 5    1  0.2111786E+001  0.1582689E+01  0.7818608E-02  0.3372369E+00
         11   -1    0    0    0    0  0.00000000000E+00  0.00000000000E+00  0.39999999674E+01  0.40000000000E+01  0.51100000000E-03 0. -1.
    9000002   -1    0    0    0    0 -0.00000000000E+00 -0.00000000000E+00  0.00000000000E+00  0.93800000000E+00  0.93800000000E+00 0.  1.
         11    1    1    2    0    0 -0.14878481399E+00 -0.63793690742E-01  0.19939524834E+01  0.20005132649E+01  0.51100000000E-03 0. -1.
    9000002    1    1    2    0    0 -0.32261841259E-02  0.21478474499E+00  0.43485631403E-01  0.96326418759E+00  0.93800000000E+00 0.  1.
         22    1    1    2    0    0  0.15201099812E+00 -0.15099105425E+00  0.19625618525E+01  0.19742225475E+01  0.00000000000E+00 0. -1.
</event>
<event>
 5    1  0.2111786E+001  0.1517365E+01  0.7818608E-02  0.3448244E+00
         11   -1    0    0    0    0  0.00000000000E+00  0.00000000000E+00  0.39999999674E+01  0.40000000000E+01  0.51100000000E-03 0. -1.
    9000002   -1    0    0    0    0 -0.00000000000E+00 -0.00000000000E+00  0.00000000000E+00  0.93800000000E+00  0.93800000000E+00 0. -1.
         11    1    1    2    0    0 -0.48972433147E+00 -0.30431550278E+00  0.32130788645E+01  0.32644010012E+01  0.51100000000E-03 0. -1.
    9000002    1    1    2    0    0  0.40225028998E+00  0.12176950466E+00  0.19258457527E+00  0.10457370256E+01  0.93800000000E+00 0. -1.
         22    1    1    2    0    0  0.87474041482E-01  0.18254599813E+00  0.59433652762E+00  0.62786197323E+00  0.00000000000E+00 0.  1.
</event>
<event>
 5    1  0.2111786E+001  0.1493369E+01  0.7818608E-02  0.3477903E+00
         11   -1    0    0    0    0  0.00000000000E+00  0.00000000000E+00  0.39999999674E+01  0.40000000000E+01  0.51100000000E-03 0.  1.
    9000002   -1    0    0    0    0 -0.00000000000E+00 -0.00000000000E+00  0.00000000000E+00  0.93800000000E+00  0.93800000000E+00 0. -1.
         11    1    1    2    0    0 -0.40135110535E+00  0.17062682293E+00  0.13885458133E+01  0.14554229486E+01  0.51100000000E-03 0.  1.
    9000002    1    1    2    0    0  0.16195293961E+00 -0.39591384703E-01  0.10179720424E+00  0.95812468039E+00  0.93800000000E+00 0. -1.
         22    1    1    2    0    0  0.23939816574E+00 -0.13103543823E+00  0.25096569498E+01  0.25244523711E+01  0.00000000000E+00 0.  1.
</event>
<event>
 5    1  0.2111786E+001  0.1562341E+01  0.7818608E-02  0.3395280E+00
         11   -1    0    0    0    0  0.00000000000E+00  0.00000000000E+00  0.39999999674E+01  0.40000000000E+01  0.51100000000E-03 0. -1.
    9000002   -1    0    0    0    0 -0.00000000000E+00 -0.00000000000E+00  0.00000000000E+00  0.93800000000E+00  0.93800000000E+00 0. -1.
         11    1    1    2    0    0 -0.13062953842E+00 -0.18792760424E+00  0.16121166615E+01  0.16282816870E+01  0.51100000000E-03 0. -1.
    9000002    1    1    2    0    0 -0.23513764643E-01  0.18740978376E-01  0.28142264590E-01  0.93890367368E+00  0.93800000000E+00 0. -1.
         22    1    1    2    0    0  0.15414330306E+00  0.16918662586E+00  0.23597410413E+01  0.23708146394E+01  0.00000000000E+00 0. -1.
</event>
<event>
 5    1  0.2111786E+001  0.1545865E+01  0.7818608E-02  0.3414300E+00
         11   -1    0    0    0    0  0.00000000000E+00  0.00000000000E+00  0.39999999674E+01  0.40000000000E+01  0.51100000000E-03 0. -1.
    9000002   -1    0    0    0    0 -0.00000000000E+00 -0.00000000000E+00  0.00000000000E+00  0.93800000000E+00  0.93800000000E+00 0.  1.
         11    1    1    2    0    0 -0.19196400401E+00  0.68772109601E-01  0.60794356636E+00  0.64122961792E+00  0.51100000000E-03 0. -1.
    9000002    1    1    2    0    0  0.27267309218E-01  0.56505309976E-01  0.42739135876E-01  0.94106694233E+00  0.93800000000E+00 0.  1.
         22    1    1    2    0    0  0.16469669479E+00 -0.12527741958E+00  0.33493172651E+01  0.33557034398E+01  0.00000000000E+00 0. -1.
</event>
<event>
 5    1  0.2111786E+001  0.1578377E+01  0.7818608E-02  0.3377172E+00
         11   -1    0    0    0    0  0.00000000000E+00  0.00000000000E+00  0.39999999674E+01  0.40000000000E+01  0.51100000000E-03 0.  1.
    9000002   -1    0    0    0    0 -0.00000000000E+00 -0.00000000000E+00  0.00000000000E+00  0.93800000000E+00  0.93800000000E+00 0. -1.
         11    1    1    2    0    0  0.75551297412E-01  0.13583684315E+00  0.16070891480E+01  0.16145883182E+01  0.51100000000E-03 0.  1.
    9000002    1    1    2    0    0 -0.46941242893E-01  0.66690448665E-01  0.20050462523E-01  0.94175215278E+00  0.93800000000E+00 0. -1.
         22    1    1    2    0    0 -0.28610054519E-01 -0.20252729181E+00  0.23728603568E+01  0.23816595290E+01  0.00000000000E+00 0.  1.
</event>
<event>
 5    1  0.2111786E+001  0.1514517E+01  0.7818608E-02  0.3451711E+00
         11   -1    0    0    0    0  0.00000000000E+00  0.00000000000E+00  0.39999999674E+01  0.40000000000E+01  0.51100000000E-03 0. -1.
    9000002   -1    0    0    0    0 -0.00000000000E+00 -0.00000000000E+00  0.00000000000E+00  0.93800000000E+00  0.93800000000E+00 0.  1.
         11    1    1    2    0    0 -0.23663211936E+00 -0.16133960187E+00  0.74457375428E+00  0.79775658175E+00  0.51100000000E-03 0. -1.
    9000002    1    1    2    0    0 -0.73743688190E-01  0.20553183337E+00  0.98854422152E-01  0.96814134446E+00  0.93800000000E+00 0.  1.
         22    1    1    2    0    0  0.31037580755E+00 -0.44192231499E-01  0.31565717909E+01  0.31721020738E+01  0.00000000000E+00 0. -1.
</event>
<event>
 5    1  0.2111786E+001  0.1542072E+01  0.7818608E-02  0.3418741E+00
         11   -1    0    0    0    0  0.00000000000E+00  0.00000000000E+00  0.39999999674E+01  0.40000000000E+01  0.51100000000E-03 0. -1.
    9000002   -1    0    0    0    0 -0.00000000000E+00 -0.00000000000E+00  0.00000000000E+00  0.93800000000E+00  0.93800000000E+00 0.  1.
         11    1    1    2    0    0  0.40727225431E+00  0.54480722551E-01  0.23851151298E+01  0.24202506650E+01  0.51100000000E-03 0. -1.
    9000002    1    1    2    0    0 -0.20597500594E+00 -0.90719772139E-01  0.78503410154E-01  0.96781329064E+00  0.93800000000E+00 0.  1.
         22    1    1    2    0    0 -0.20129724836E+00  0.36239049588E-01  0.15363814274E+01  0.15499360443E+01  0.00000000000E+00 0. -1.
</event>
<event>
 5    1  0.2111786E+001  0.1548941E+01  0.7818608E-02  0.3410716E+00
         11   -1    0    0    0    0  0.00000000000E+00  0.00000000000E+00  0.39999999674E+01  0.40000000000E+01  0.51100000000E-03 0.  1.
    9000002   -1    0    0    0    0 -0.00000000000E+00 -0.00000000000E+00  0.00000000000E+00  0.93800000000E+00  0.93800000000E+00 0.  1.
         11    1    1    2    0    0 -0.22758458677E+00 -0.12958627567E+00  0.11619766170E+01  0.11911243707E+01  0.51100000000E-03 0.  1.
    9000002    1    1    2    0    0  0.37870353529E-01  0.32952913033E-01  0.39402998846E-01  0.94016841814E+00  0.93800000000E+00 0.  1.
         22    1    1    2    0    0  0.18971423324E+00  0.96633362637E-01  0.27986203515E+01  0.28067072111E+01  0.00000000000E+00 0. -1.
</event>
<event>
 5    1  0.2111786E+001  0.1561416E+01  0.7818608E-02  0.3396336E+00
         11   -1    0    0    0    0  0.00000000000E+00  0.00000000000E+00  0.39999999674E+01  0.40000000000E+01  0.51100000000E-03 0.  1.
    9000002   -1    0    0    0    0 -0.00000000000E+00 -0.00000000000E+00  0.00000000000E+00  0.93800000000E+00  0.93800000000E+00 0. -1.
         11    1    1    2    0    0 -0.20374466098E+00  0.29402660524E-01  0.25050680454E+01  0.25135120005E+01  0.51100000000E-03 0.  1.
    9000002    1    1    2    0    0 -0.37342128099E-01 -0.47632125299E-01  0.30723690101E-01  0.94045265645E+00  0.93800000000E+00 0. -1.
         22    1    1    2    0    0  0.24108678908E+00  0.18229464775E-01  0.14642082319E+01  0.14840353431E+01  0.00000000000E+00 0.  1.
</event>
<event>
 5    1  0.2111786E+001  0.1576756E+01  0.7818608E-02  0.3378984E+00
         11   -1    0    0    0    0  0.00000000000E+00  0.00000000000E+00  0.39999999674E+01  0.40000000000E+01  0.51100000000E-03 0. -1.
    9000002   -1    0    0    0    0 -0.00000000000E+00 -0.00000000000E+00  0.00000000000E+00  0.93800000000E+00  0.93800000000E+00 0.  1.
         11    1    1    2    0    0 -0.11934146612E+00 -0.15382037142E-01  0.41020564788E+00  0.42749026571E+00  0.51100000000E-03 0. -1.
    9000002    1    1    2    0    0  0.71722292408E-01  0.22773540453E+00  0.55478002036E-01  0.96949951543E+00  0.93800000000E+00 0.  1.
         22    1    1    2    0    0  0.47619173710E-01 -0.21235336739E+00  0.35343163174E+01  0.35410102189E+01  0.00000000000E+00 0. -1.
</event>
<event>
 5    1  0.2111786E+001  0.1593613E+01  0.7818608E-02  0.3360325E+00
         11   -1    0    0    0    0  0.00000000000E+00  0.00000000000E+00  0.39999999674E+01  0.40000000000E+01  0.51100000000E-03 0. -1.
    9000002   -1    0    0    0    0 -0.00000000000E+00 -0.00000000000E+00  0.00000000000E+00  0.93800000000E+00  0.93800000000E+00 0.  1.
         11    1    1    2    0    0 -0.18999856973E-01  0.32442723172E-02  0.14177825914E+01  0.14179136989E+01  0.51100000000E-03 0. -1.
    9000002    1    1    2    0    0 -0.19611241517E+00 -0.42485303719E-01  0.31216345422E-01  0.95973097305E+00  0.93800000000E+00 0.  1.
         22    1    1    2    0    0  0.21511227214E+00  0.39241031402E-01  0.25510010305E+01  0.25603553280E+01  0.00000000000E+00 0. -1.
</event>
<event>
 5    1  0.2111786E+001  0.1537442E+01  0.7818608E-02  0.3424192E+00
         11   -1    0    0    0    0  0.00000000000E+00  0.00000000000E+00  0.39999999674E+01  0.40000000000E+01  0.51100000000E-03 0.  1.
    9000002   -1    0    0    0    0 -0.00000000000E+00 -0.00000000000E+00  0.00000000000E+00  0.93800000000E+00  0.93800000000E+00 0.  1.
         11    1    1    2    0    0 -0.74286646024E-01 -0.23829873552E+00  0.63668278850E+00  0.68386404162E+00  0.51100000000E-03 0.  1.
    9000002    1    1    2    0    0 -0.45260359699E+00  0.39053077388E+00  0.31383051080E+00  0.11557239683E+01  0.93800000000E+00 0.  1.
         22    1    1    2    0    0  0.52689024302E+00 -0.15223203836E+00  0.30494866681E+01  0.30984119901E+01  0.00000000000E+00 0.  1.
</event>
<event>
 5    1  0.2111786E+001  0.1278608E+01  0.7818608E-02  0.3823699E+00
         11   -1    0    0    0    0  0.00000000000E+00  0.00000000000E+00  0.39999999674E+01  0.40000000000E+01  0.51100000000E-03 0. -1.
    9000002   -1    0    0    0    0 -0.00000000000E+00 -0.00000000000E+00  0.00000000000E+00  0.93800000000E+00  0.93800000000E+00 0. -1.
         11    1    1    2    0    0  0.40612916413E+00 -0.66271999983E+00  0.15466855186E+01  0.17310040585E+01  0.51100000000E-03 0. -1.
    9000002    1    1    2    0    0 -0.16078211588E+00  0.17747150637E+00  0.34189498312E+00  0.10266855428E+01  0.93800000000E+00 0. -1.
         22    1    1    2    0    0 -0.24534704825E+00  0.48524849346E+00  0.21114194657E+01  0.21803103987E+01  0.00000000000E+00 0. -1.
</event>
<event>
 5    1  0.2111786E+001  0.1566083E+01  0.7818608E-02  0.3391019E+00
         11   -1    0    0    0    0  0.00000000000E+00  0.00000000000E+00  0.39999999674E+01  0.40000000000E+01  0.51100000000E-03 0. -1.
    9000002   -1    0    0    0    0 -0.00000000000E+00 -0.00000000000E+00  0.00000000000E+00  0.93800000000E+00  0.93800000000E+00 0.  1.
         11    1    1    2    0    0 -0.62951564159E-01 -0.19583569977E+00  0.18768014408E+01  0.18880408974E+01  0.51100000000E-03 0. -1.
    9000002    1    1    2    0    0 -0.17360034973E-01 -0.26569952005E-01  0.25404849669E-01  0.93888057790E+00  0.93800000000E+00 0.  1.
         22    1    1    2    0    0  0.80311599132E-01  0.22240565178E+00  0.20977936768E+01  0.21110785247E+01  0.00000000000E+00 0. -1.
</event>
<event>
 5    1  0.2111786E+001  0.1460295E+01  0.7818608E-02  0.3520511E+00
         11   -1    0    0    0    0  0.00000000000E+00  0.00000000000E+00  0.39999999674E+01  0.40000000000E+01  0.51100000000E-03 0. -1.
    9000002   -1    0    0    0    0 -0.00000000000E+00 -0.00000000000E+00  0.00000000000E+00  0.93800000000E+00  0.93800000000E+00 0.  1.
         11    1    1    2    0    0 -0.11488758917E+00 -0.22434621970E+00  0.23471893173E+00  0.34441780220E+00  0.51100000000E-03 0. -1.
    9000002    1    1    2    0    0 -0.10499117658E+00  0.29932126265E+00  0.18689795515E+00  0.10076662201E+01  0.93800000000E+00 0.  1.
         22    1    1    2    0    0  0.21987876574E+00 -0.74975042945E-01  0.35783830805E+01  0.35859159777E+01  0.00000000000E+00 0. -1.
</event>
<event>
 5    1  0.2111786E+001  0.1598289E+01  0.7818608E-02  0.3355223E+00
         11   -1    0    0    0    0  0.00000000000E+00  0.00000000000E+00  0.39999999674E+01  0.40000000000E+01  0.51100000000E-03 0. -1.
    9000002   -1    0    0    0    0 -0.00000000000E+00 -0.00000000000E+00  0.00000000000E+00  0.93800000000E+00  0.93800000000E+00 0.  1.
         11    1    1    2    0    0 -0.25722450755E-01 -0.39402306023E-02  0.22828216269E+00  0.22976112990E+00  0.51100000000E-03 0. -1.
    9000002    1    1    2    0    0  0.11404855742E+00  0.21435050005E+00  0.40199034148E-01  0.96974902561E+00  0.93800000000E+00 0.  1.
         22    1    1    2    0    0 -0.88326106667E-01 -0.21041026945E+00  0.37315187705E+01  0.37384898445E+01  0.00000000000E+00 0. -1.
</event>
<event>
 5    1  0.2111786E+001  0.1578723E+01  0.7818608E-02  0.3376785E+00
         11   -1    0    0    0    0  0.00000000000E+00  0.00000000000E+00  0.39999999674E+01  0.40000000000E+01  0.51100000000E-03 0. -1.
    9000002   -1    0    0    0    0 -0.00000000000E+00 -0.00000000000E+00  0.00000000000E+00  0.93800000000E+00  0.93800000000E+00 0.  1.
         11    1    1    2    0    0 -0.56477436682E-01 -0.24315672816E+00  0.29990211936E+01  0.30093925094E+01  0.51100000000E-03 0. -1.
    9000002    1    1    2    0    0 -0.86975813248E-01  0.41322529067E+00  0.13857138036E+00  0.10379624080E+01  0.93800000000E+00 0.  1.
         22    1    1    2    0    0  0.14345324993E+00 -0.17006856250E+00  0.86240739344E+00  0.89064508259E+00  0.00000000000E+00 0. -1.
</event>
<event>
 5    1  0.2111786E+001  0.1447512E+01  0.7818608E-02  0.3537546E+00
         11   -1    0    0    0    0  0.00000000000E+00  0.00000000000E+00  0.39999999674E+01  0.40000000000E+01  0.51100000000E-03 0.  1.
    9000002   -1    0    0    0    0 -0.00000000000E+00 -0.00000000000E+00  0.00000000000E+00  0.93800000000E+00  0.93800000000E+00 0. -1.
         11    1    1    2    0    0 -0.40813240301E-01  0.69137832266E+00  0.24903251088E+01  0.25848383150E+01  0.51100000000E-03 0.  1.
    9000002    1    1    2    0    0  0.16390535912E+00 -0.38131436928E+00  0.25783549857E+00  0.10576335657E+01  0.93800000000E+00 0. -1.
         22    1    1    2    0    0 -0.12309211882E+00 -0.31006395339E+00  0.12518393599E+01  0.12955281193E+01  0.00000000000E+00 0.  1.
</event>
<event>
 5    1  0.2111786E+001  0.1364307E+01  0.7818608E-02  0.3665851E+00
         11   -1    0    0    0    0  0.00000000000E+00  0.00000000000E+00  0.39999999674E+01  0.40000000000E+01  0.51100000000E-03 0.  1.
    9000002   -1    0    0    0    0 -0.00000000000E+00 -0.00000000000E+00  0.00000000000E+00  0.93800000000E+00  0.93800000000E+00 0. -1.
         11    1    1    2    0    0  0.17658720484E+00 -0.47560568099E+00  0.34295498325E+01  0.34668712291E+01  0.51100000000E-03 0.  1.
    9000002    1    1    2    0    0  0.72673770338E-01  0.24176254373E+00  0.25095510340E+00  0.10032711839E+01  0.93800000000E+00 0. -1.
         22    1    1    2    0    0 -0.24926097518E+00  0.23384313726E+00  0.31949503148E+00  0.46785758702E+00  0.00000000000E+00 0. -1.
</event>
<event>
 5    1  0.2111786E+001  0.1561881E+01  0.7818608E-02  0.3395805E+00
         11   -1    0    0    0    0  0.00000000000E+00  0.00000000000E+00  0.39999999674E+01  0.40000000000E+01  0.51100000000E-03 0. -1.
    9000002   -1    0    0    0    0 -0.00000000000E+00 -0.00000000000E+00  0.00000000000E+00  0.93800000000E+00  0.93800000000E+00 0. -1.
         11    1    1    2    0    0  0.14980721233E-01 -0.19180235460E+00  0.12285620502E+01  0.12435342928E+01  0.51100000000E-03 0. -1.
    9000002    1    1    2    0    0 -0.13866913115E+00 -0.73814389049E-01  0.44787410503E-01  0.95211743189E+00  0.93800000000E+00 0. -1.
         22    1    1    2    0    0  0.12368840992E+00  0.26561674365E+00  0.27266505067E+01  0.27423482753E+01  0.00000000000E+00 0. -1.
</event>
<event>
 5    1  0.2111786E+001  0.1535186E+01  0.7818608E-02  0.3426862E+00
         11   -1    0    0    0    0  0.00000000000E+00  0.00000000000E+00  0.39999999674E+01  0.40000000000E+01  0.51100000000E-03 0. -1.
    9000002   -1    0    0    0    0 -0.00000000000E+00 -0.00000000000E+00  0.00000000000E+00  0.93800000000E+00  0.93800000000E+00 0.  1.
         11    1    1    2    0    0  0.25486053037E+00 -0.83545354702E-01  0.89109849703E+00  0.93058611034E+00  0.51100000000E-03 0. -1.
    9000002    1    1    2    0    0 -0.26965511551E-01  0.82307316318E-01  0.53482347365E-01  0.94350728382E+00  0.93800000000E+00 0.  1.
         22    1    1    2    0    0 -0.22789501882E+00  0.12380383836E-02  0.30554191230E+01  0.30639066058E+01  0.00000000000E+00 0. -1.
</event>
<event>
 5    1  0.2111786E+001  0.1560722E+01  0.7818608E-02  0.3397130E+00
         11   -1    0    0    0    0  0.00000000000E+00  0.00000000000E+00  0.39999999674E+01  0.40000000000E+01  0.51100000000E-03 0.  1.
    9000002   -1    0    0    0    0 -0.00000000000E+00 -0.00000000000E+00  0.00000000000E+00  0.93800000000E+00  0.93800000000E+00 0. -1.
         11    1    1    2    0    0 -0.19481605734E+00 -0.42572823338E-01  0.18174723703E+01  0.18283795611E+01  0.51100000000E-03 0.  1.
    9000002    1    1    2    0    0 -0.85170876925E-01  0.13419336099E-01  0.33830132787E-01  0.94256174055E+00  0.93800000000E+00 0. -1.
         22    1    1    2    0    0  0.27998693427E+00  0.29153487240E-01  0.21486974643E+01  0.21670586984E+01  0.00000000000E+00 0.  1.
</event>
<event>
 5    1  0.2111786E+001  0.1550560E+01  0.7818608E-02  0.3408837E+00
         11   -1    0    0    0    0  0.00000000000E+00  0.00000000000E+00  0.39999999674E+01  0.40000000000E+01  0.51100000000E-03 0.  1.
    9000002   -1    0    0    0    0 -0.00000000000E+00 -0.00000000000E+00  0.00000000000E+00  0.93800000000E+00  0.93800000000E+00 0. -1.
         11    1    1    2    0    0  0.13875944766E+00 -0.76863984831E-01  0.40705822777E+00  0.43687403035E+00  0.51100000000E-03 0.  1.
    9000002    1    1    2    0    0  0.13370149175E-01 -0.82300926301E-01  0.41234594724E-01  0.94260092041E+00  0.93800000000E+00 0. -1.
         22    1    1    2    0    0 -0.15212959683E+00  0.15916491113E+00  0.35517071449E+01  0.35585250492E+01  0.00000000000E+00 0.  1.
</event>
<event>
 5    1  0.2111786E+001  0.1577172E+01  0.7818608E-02  0.3378519E+00
         11   -1    0    0    0    0  0.00000000000E+00  0.00000000000E+00  0.39999999674E+01  0.40000000000E+01  0.51100000000E-03 0. -1.
    9000002   -1    0    0    0    0 -0.00000000000E+00 -0.00000000000E+00  0.00000000000E+00  0.93800000000E+00  0.93800000000E+00 0. -1.
         11    1    1    2    0    0 -0.61065580143E-01 -0.12935294875E+00  0.20318447278E+01  0.20368736950E+01  0.51100000000E-03 0. -1.
    9000002    1    1    2    0    0  0.11017785502E-01 -0.83078359793E-01  0.21198054748E-01  0.94197492694E+00  0.93800000000E+00 0. -1.
         22    1    1    2    0    0  0.50047794641E-01  0.21243130854E+00  0.19469571848E+01  0.19591513780E+01  0.00000000000E+00 0. -1.
</event>
<event>
 5    1  0.2111786E+001  0.1566382E+01  0.7818608E-02  0.3390680E+00
         11   -1    0    0    0    0  0.00000000000E+00  0.00000000000E+00  0.39999999674E+01  0.40000000000E+01  0.51100000000E-03 0. -1.
    9000002   -1    0    0    0    0 -0.00000000000E+00 -0.00000000000E+00  0.00000000000E+00  0.93800000000E+00  0.93800000000E+00 0. -1.
         11    1    1    2    0    0  0.21600907047E+00  0.11796659604E+00  0.17521732357E+01  0.17693748459E+01  0.51100000000E-03 0. -1.
    9000002    1    1    2    0    0  0.14982390739E-02 -0.20749641223E+00  0.53966582607E-01  0.96219197557E+00  0.93800000000E+00 0. -1.
         22    1    1    2    0    0 -0.21750730954E+00  0.89529816192E-01  0.21938601490E+01  0.22064331785E+01  0.00000000000E+00 0.  1.
</event>
<event>
 5    1  0.2111786E+001  0.1576874E+01  0.7818608E-02  0.3378853E+00
         11   -1    0    0    0    0  0.00000000000E+00  0.00000000000E+00  0.39999999674E+01  0.40000000000E+01  0.51100000000E-03 0.  1.
    9000002   -1    0    0    0    0 -0.00000000000E+00 -0.00000000000E+00  0.00000000000E+00  0.93800000000E+00  0.93800000000E+00 0.  1.
         11    1    1    2    0    0  0.11301314249E+00 -0.93243986753E-01  0.13967456700E+01  0.14044091779E+01  0.51100000000E-03 0.  1.
    9000002    1    1    2    0    0  0.71677178127E-02 -0.10295381022E+00  0.23866814165E-01  0.94396212214E+00  0.93800000000E+00 0.  1.
         22    1    1    2    0    0 -0.12018086031E+00  0.19619779697E+00  0.25793874832E+01  0.25896286999E+01  0.00000000000E+00 0.  1.
</event>
<event>
 5    1  0.2111786E+001  0.1177096E+01  0.7818608E-02  0.4047922E+00
         11   -1    0    0    0    0  0.00000000000E+00  0.00000000000E+00  0.39999999674E+01  0.40000000000E+01  0.51100000000E-03 0. -1.
    9000002   -1    0    0    0    0 -0.00000000000E+00 -0.00000000000E+00  0.00000000000E+00  0.93800000000E+00  0.93800000000E+00 0.  1.
         11    1    1    2    0    0 -0.12630815865E+00 -0.74640545786E+00  0.17701652844E+01  0.19252429077E+01  0.51100000000E-03 0. -1.
    9000002    1    1    2    0    0 -0.34036398854E+00  0.47767265974E-01  0.56438929799E+00  0.11473921021E+01  0.93800000000E+00 0.  1.
         22    1    1    2    0    0  0.46667214719E+00  0.69863819189E+00  0.16654453850E+01  0.18653649902E+01  0.00000000000E+00 0. -1.
</event>
<event>
 5    1  0.2111786E+001  0.1507828E+01  0.7818608E-02  0.3459910E+00
         11   -1    0    0    0    0  0.00000000000E+00  0.00000000000E+00  0.39999999674E+01  0.40000000000E+01  0.51100000000E-03 0. -1.
    9000002   -1    0    0    0    0 -0.00000000000E+00 -0.00000000000E+00  0.00000000000E+00  0.93800000000E+00  0.93800000000E+00 0.  1.
         11    1    1    2    0    0  0.88903608682E-01  0.35157145453E+00  0.14421091002E+01  0.14870054664E+01  0.51100000000E-03 0. -1.
    9000002    1    1    2    0    0  0.85851363281E-01 -0.56082659855E-01  0.77287223268E-01  0.94674866580E+00  0.93800000000E+00 0.  1.
         22    1    1    2    0    0 -0.17475497196E+00 -0.29548879468E+00  0.24806036439E+01  0.25042458678E+01  0.00000000000E+00 0.  1.
</event>
<event>
 5    1  0.2111786E+001  0.1553239E+01  0.7818608E-02  0.3405734E+00
         11   -1    0    0    0    0  0.00000000000E+00  0.00000000000E+00  0.39999999674E+01  0.40000000000E+01  0.51100000000E-03 0. -1.
    9000002   -1    0    0    0    0 -0.00000000000E+00 -0.00000000000E+00  0.00000000000E+00  0.93800000000E+00  0.93800000000E+00 0. -1.
         11    1    1    2    0    0  0.82017500682E-01 -0.17545879288E+00  0.70989325077E+00  0.73584057175E+00  0.51100000000E-03 0. -1.
    9000002    1    1    2    0    0 -0.98707201284E-02 -0.42073919802E-01  0.35679837195E-01  0.93967265397E+00  0.93800000000E+00 0. -1.
         22    1    1    2    0    0 -0.72146780554E-01  0.21753271268E+00  0.32544268794E+01  0.32624867743E+01  0.00000000000E+00 0. -1.
</event>
<event>
 5    1  0.2111786E+001  0.1554704E+01  0.7818608E-02  0.3404043E+00
         11   -1    0    0    0    0  0.00000000000E+00  0.00000000000E+00  0.39999999674E+01  0.40000000000E+01  0.51100000000E-03 0.  1.
    9000002   -1    0    0    0    0 -0.00000000000E+00 -0.00000000000E+00  0.00000000000E+00  0.93800000000E+00  0.93800000000E+00 0.  1.
         11    1    1    2    0    0 -0.44571082530E-02 -0.23128965636E+00  0.29586290472E+01  0.29676591568E+01  0.51100000000E-03 0.  1.
    9000002    1    1    2    0    0 -0.42096506266E-01  0.15469765832E-01  0.34667457014E-01  0.93971126527E+00  0.93800000000E+00 0.  1.
         22    1    1    2    0    0  0.46553614519E-01  0.21581989053E+00  0.10067034631E+01  0.10306295779E+01  0.00000000000E+00 0.  1.
</event>
<event>
 5    1  0.2111786E+001  0.1542419E+01  0.7818608E-02  0.3418334E+00
         11   -1    0    0    0    0  0.00000000000E+00  0.00000000000E+00  0.39999999674E+01  0.40000000000E+01  0.51100000000E-03 0. -1.
    9000002   -1    0    0    0    0 -0.00000000000E+00 -0.00000000000E+00  0.00000000000E+00  0.93800000000E+00  0.93800000000E+00 0.  1.
         11    1    1    2    0    0  0.39317271978E-01  0.19887535054E+00  0.68885082083E+00  0.71806195234E+00  0.51100000000E-03 0. -1.
    9000002    1    1    2    0    0  0.53382287159E-01  0.87410219340E-01  0.49962103560E-01  0.94489704562E+00  0.93800000000E+00 0.  1.
         22    1    1    2    0    0 -0.92699559137E-01 -0.28628556988E+00  0.32611870430E+01  0.32750410020E+01  0.00000000000E+00 0. -1.
</event>
<event>
 5    1  0.2111786E+001  0.1553319E+01  0.7818608E-02  0.3405642E+00
         11   -1    0    0    0    0  0.00000000000E+00  0.00000000000E+00  0.39999999674E+01  0.40000000000E+01  0.51100000000E-03 0. -1.
    9000002   -1    0    0    0    0 -0.00000000000E+00 -0.00000000000E+00  0.00000000000E+00  0.93800000000E+00  0.93800000000E+00 0.  1.
         11    1    1    2    0    0  0.14163028903E+00  0.27776915070E+00  0.22577564993E+01  0.22791839572E+01  0.51100000000E-03 0. -1.
    9000002    1    1    2    0    0 -0.10955768759E+00 -0.59239502962E-01  0.45043059660E-01  0.94730411318E+00  0.93800000000E+00 0.  1.
         22    1    1    2    0    0 -0.32072601441E-01 -0.21852964774E+00  0.16972004084E+01  0.17115119296E+01  0.00000000000E+00 0.  1.
</event>
<event>
 5    1  0.2111786E+001  0.1478543E+01  0.7818608E-02  0.3496748E+00
         11   -1    0    0    0    0  0.00000000000E+00  0.00000000000E+00  0.39999999674E+01  0.40000000000E+01  0.51100000000E-03 0. -1.
    9000002   -1    0    0    0    0 -0.00000000000E+00 -0.00000000000E+00  0.00000000000E+00  0.93800000000E+00  0.93800000000E+00 0.  1.
         11    1    1    2    0    0 -0.32947183126E+00  0.19045331647E+00  0.86819133120E+00  0.94793491446E+00  0.51100000000E-03 0. -1.
    9000002    1    1    2    0    0  0.11171633553E+00 -0.48516499055E-01  0.10451300843E+00  0.95163089443E+00  0.93800000000E+00 0.  1.
         22    1    1    2    0    0  0.21775549573E+00 -0.14193681742E+00  0.30272956277E+01  0.30384341911E+01  0.00000000000E+00 0. -1.
</event>
<event>
 5    1  0.2111786E+001  0.1563717E+01  0.7818608E-02  0.3393711E+00
         11   -1    0    0    0    0  0.00000000000E+00  0.00000000000E+00  0.39999999674E+01  0.40000000000E+01  0.51100000000E-03 0. -1.
    9000002   -1    0    0    0    0 -0.00000000000E+00 -0.00000000000E+00  0.00000000000E+00  0.93800000000E+00  0.93800000000E+00 0.  1.
         11    1    1    2    0    0 -0.43277695608E-01  0.20001096260E+00  0.15163604374E+01  0.15301067222E+01  0.51100000000E-03 0. -1.
    9000002    1    1    2    0    0 -0.23252972745E-01  0.40590307352E-01  0.27984327332E-01  0.93958256496E+00  0.93800000000E+00 0.  1.
         22    1    1    2    0    0  0.66530668353E-01 -0.24060126995E+00  0.24556552026E+01  0.24683107128E+01  0.00000000000E+00 0. -1.
</event>
<event>
 5    1  0.2111786E+001  0.1564649E+01  0.7818608E-02  0.3392649E+00
         11   -1    0    0    0    0  0.00000000000E+00  0.00000000000E+00  0.39999999674E+01  0.40000000000E+01  0.51100000000E-03 0.  1.
    9000002   -1    0    0    0    0 -0.00000000000E+00 -0.00000000000E+00  0.00000000000E+00  0.93800000000E+00  0.93800000000E+00 0. -1.
         11    1    1    2    0    0  0.19958441273E+00 -0.27049402023E+00  0.27603642814E+01  0.27807574831E+01  0.51100000000E-03 0.  1.
    9000002    1    1    2    0    0 -0.15142327441E-02  0.30925689767E+00  0.91941386415E-01  0.99193716545E+00  0.93800000000E+00 0. -1.
         22    1    1    2    0    0 -0.19807017999E+00 -0.38762877442E-01  0.11476942995E+01  0.11653053514E+01  0.00000000000E+00 0. -1.
</event>
<event>
 5    1  0.2111786E+001  0.1561600E+01  0.7818608E-02  0.3396126E+00
         11   -1    0    0    0    0  0.00000000000E+00  0.00000000000E+00  0.39999999674E+01  0.40000000000E+01  0.51100000000E-03 0.  1.
    9000002   -1    0    0    0    0 -0.00000000000E+00 -0.00000000000E+00  0.00000000000E+00  0.93800000000E+00  0.93800000000E+00 0. -1.
         11    1    1    2    0    0 -0.18241521363E+00 -0.13013365436E+00  0.28460155685E+01  0.28548231041E+01  0.51100000000E-03 0.  1.
    9000002    1    1    2    0    0 -0.25714620343E-01  0.88080027915E-01  0.33839751949E-01  0.94308454649E+00  0.93800000000E+00 0. -1.
         22    1    1    2    0    0  0.20812983397E+00  0.42053626446E-01  0.11201446469E+01  0.11400923494E+01  0.00000000000E+00 0. -1.
</event>
<event>
 5    1  0.2111786E+001  0.1550275E+01  0.7818608E-02  0.3409167E+00
         11   -1    0    0    0    0  0.00000000000E+00  0.00000000000E+00  0.39999999674E+01  0.40000000000E+01  0.51100000000E-03 0. -1.
    9000002   -1    0    0    0    0 -0.00000000000E+00 -0.00000000000E+00  0.00000000000E+00  0.93800000000E+00  0.93800000000E+00 0. -1.
         11    1    1    2    0    0  0.68963474477E-01 -0.19686157241E+00  0.75127027131E+00  0.77969078562E+00  0.51100000000E-03 0. -1.
    9000002    1    1    2    0    0  0.78689794881E-01  0.18165204872E-01  0.41154905283E-01  0.94236924012E+00  0.93800000000E+00 0. -1.
         22    1    1    2    0    0 -0.14765326936E+00  0.17869636754E+00  0.32075747908E+01  0.32159399743E+01  0.00000000000E+00 0. -1.
</event>
<event>
 5    1  0.4494518E+001  0.1564655E+01  0.7818608E-02  0.3392643E+00
         11   -1    0    0    0    0  0.00000000000E+00  0.00000000000E+00  0.39999999674E+01  0.40000000000E+01  0.51100000000E-03 0. -1.
    9000002   -1    0    0    0    0 -0.00000000000E+00 -0.00000000000E+00  0.00000000000E+00  0.93800000000E+00  0.93800000000E+00 0. -1.
         11    1    1    2    0    0  0.18385504160E+00 -0.14437912345E+00  0.18577817965E+01  0.18724319673E+01  0.51100000000E-03 0. -1.
    9000002    1    1    2    0    0 -0.64301935550E-02  0.23526833877E-01  0.26194343498E-01  0.93868258902E+00  0.93800000000E+00 0. -1.
         22    1    1    2    0    0 -0.17742484805E+00  0.12085228957E+00  0.21160238274E+01  0.21268854437E+01  0.00000000000E+00 0. -1.
</event>
<event>
 5    1  0.2111786E+001  0.1495284E+01  0.7818608E-02  0.3475498E+00
         11   -1    0    0    0    0  0.00000000000E+00  0.00000000000E+00  0.39999999674E+01  0.40000000000E+01  0.51100000000E-03 0. -1.
    9000002   -1    0    0    0    0 -0.00000000000E+00 -0.00000000000E+00  0.00000000000E+00  0.93800000000E+00  0.93800000000E+00 0. -1.
         11    1    1    2    0    0  0.21171298711E+00  0.20787563961E+00  0.29359083056E+00  0.41740928040E+00  0.51100000000E-03 0. -1.
    9000002    1    1    2    0    0  0.11951962856E+00  0.77487373379E-01  0.17813480212E+00  0.96533167480E+00  0.93800000000E+00 0. -1.
         22    1    1    2    0    0 -0.33123261567E+00 -0.28536301298E+00  0.35282743347E+01  0.35552590448E+01  0.00000000000E+00 0. -1.
</event>
<event>
 5    1  0.2111786E+001  0.1555967E+01  0.7818608E-02  0.3402587E+00
         11   -1    0    0    0    0  0.00000000000E+00  0.00000000000E+00  0.39999999674E+01  0.40000000000E+01  0.51100000000E-03 0.  1.
    9000002   -1    0    0    0    0 -0.00000000000E+00 -0.00000000000E+00  0.00000000000E+00  0.93800000000E+00  0.93800000000E+00 0. -1.
         11    1    1    2    0    0 -0.77280751587E-01  0.27024157968E+00  0.21699633557E+01  0.21880914177E+01  0.51100000000E-03 0.  1.
    9000002    1    1    2    0    0  0.49054361123E-01 -0.45576602922E-01  0.35409576792E-01  0.94105334344E+00  0.93800000000E+00 0. -1.
         22    1    1    2    0    0  0.28226390464E-01 -0.22466497676E+00  0.17946270349E+01  0.18088552389E+01  0.00000000000E+00 0.  1.
</event>
<event>
 5    1  0.2111786E+001  0.1571349E+01  0.7818608E-02  0.3385060E+00
         11   -1    0    0    0    0  0.00000000000E+00  0.00000000000E+00  0.39999999674E+01  0.40000000000E+01  0.51100000000E-03 0. -1.
    9000002   -1    0    0    0    0 -0.00000000000E+00 -0.00000000000E+00  0.00000000000E+00  0.93800000000E+00  0.93800000000E+00 0. -1.
         11    1    1    2    0    0 -0.16320664900E+00 -0.10414684688E+00  0.25354440459E+01  0.25428251507E+01  0.51100000000E-03 0. -1.
    9000002    1    1    2    0    0  0.23119396969E+00 -0.13870437128E+00  0.70532290198E-01  0.97852356037E+00  0.93800000000E+00 0. -1.
         22    1    1    2    0    0 -0.67987320685E-01  0.24285121816E+00  0.13940236313E+01  0.14166512889E+01  0.00000000000E+00 0. -1.
</event>
<event>
 5    1  0.2111786E+001  0.1592707E+01  0.7818608E-02  0.3361317E+00
         11   -1    0    0    0    0  0.00000000000E+00  0.00000000000E+00  0.39999999674E+01  0.40000000000E+01  0.51100000000E-03 0. -1.
    9000002   -1    0    0    0    0 -0.00000000000E+00 -0.00000000000E+00  0.00000000000E+00  0.93800000000E+00  0.93800000000E+00 0. -1.
         11    1    1    2    0    0 -0.35809771143E-01 -0.32333931020E-01  0.10810095041E+01  0.10820857785E+01  0.51100000000E-03 0. -1.
    9000002    1    1    2    0    0 -0.65510017478E-01 -0.14420133491E+00  0.21743742524E-01  0.95152634105E+00  0.93800000000E+00 0. -1.
         22    1    1    2    0    0  0.10131978862E+00  0.17653526593E+00  0.28972467207E+01  0.29043878805E+01  0.00000000000E+00 0. -1.
</event>
<event>
 5    1  0.2111786E+001  0.1599107E+01  0.7818608E-02  0.3354333E+00
         11   -1    0    0    0    0  0.00000000000E+00  0.00000000000E+00  0.39999999674E+01  0.40000000000E+01  0.51100000000E-03 0. -1.
    9000002   -1    0    0    0    0 -0.00000000000E+00 -0.00000000000E+00  0.00000000000E+00  0.93800000000E+00  0.93800000000E+00 0. -1.
         11    1    1    2    0    0 -0.26668701866E-01 -0.16431074338E-01  0.36845897871E+00  0.36978842596E+00  0.51100000000E-03 0. -1.
    9000002    1    1    2    0    0  0.12274229552E+00  0.24997874189E+00  0.52079470451E-01  0.97985270003E+00  0.93800000000E+00 0. -1.
         22    1    1    2    0    0 -0.96073593651E-01 -0.23354766756E+00  0.35794615182E+01  0.35883588740E+01  0.00000000000E+00 0. -1.
</event>
<event>
 5    1  0.2111786E+001  0.1585960E+01  0.7818608E-02  0.3368744E+00
         11   -1    0    0    0    0  0.00000000000E+00  0.00000000000E+00  0.39999999674E+01  0.40000000000E+01  0.51100000000E-03 0.  1.
    9000002   -1    0    0    0    0 -0.00000000000E+00 -0.00000000000E+00  0.00000000000E+00  0.93800000000E+00  0.93800000000E+00 0.  1.
         11    1    1    2    0    0  0.11645871063E+00 -0.76851890476E-01  0.14916107178E+01  0.14981227049E+01  0.51100000000E-03 0.  1.
    9000002    1    1    2    0    0  0.53364749480E-01  0.20836115546E+00  0.41063222502E-01  0.96321978584E+00  0.93800000000E+00 0.  1.
         22    1    1    2    0    0 -0.16982346011E+00 -0.13150926499E+00  0.24673260270E+01  0.24766575092E+01  0.00000000000E+00 0.  1.
</event>
<event>
 5    1  0.2111786E+001  0.1577270E+01  0.7818608E-02  0.3378409E+00
         11   -1    0    0    0    0  0.00000000000E+00  0.00000000000E+00  0.39999999674E+01  0.40000000000E+01  0.51100000000E-03 0.  1.
    9000002   -1    0    0    0    0 -0.00000000000E+00 -0.00000000000E+00  0.00000000000E+00  0.93800000000E+00  0.93800000000E+00 0.  1.
         11    1    1    2    0    0 -0.79688628907E-01  0.17641907996E-01  0.11661654646E+01  0.11690182490E+01  0.51100000000E-03 0.  1.
    9000002    1    1    2    0    0 -0.18150938574E+00  0.26413376672E+00  0.86606113210E-01  0.99501604142E+00  0.93800000000E+00 0.  1.
         22    1    1    2    0    0  0.26119801464E+00 -0.28177567472E+00  0.27472283896E+01  0.27739657096E+01  0.00000000000E+00 0.  1.
</event>
<event>
 5    1  0.2111786E+001  0.1171436E+01  0.7818608E-02  0.4061879E+00
         11   -1    0    0    0    0  0.00000000000E+00  0.00000000000E+00  0.39999999674E+01  0.40000000000E+01  0.51100000000E-03 0. -1.
    9000002   -1    0    0    0    0 -0.00000000000E+00 -0.00000000000E+00  0.00000000000E+00  0.93800000000E+00  0.93800000000E+00 0.  1.
         11    1    1    2    0    0 -0.41877706352E+00 -0.44088859732E+00  0.54896893446E+00  0.81922166493E+00  0.51100000000E-03 0. -1.
    9000002    1    1    2    0    0 -0.11958922159E+00  0.10211515617E+00  0.45199829696E+00  0.10530315985E+01  0.93800000000E+00 0.  1.
         22    1    1    2    0    0  0.53836628511E+00  0.33877344115E+00  0.29990327359E+01  0.30657467365E+01  0.00000000000E+00 0. -1.
</event>
<event>
 5    1  0.2111786E+001  0.1582946E+01  0.7818608E-02  0.3372084E+00
         11   -1    0    0    0    0  0.00000000000E+00  0.00000000000E+00  0.39999999674E+01  0.40000000000E+01  0.51100000000E-03 0.  1.
    9000002   -1    0    0    0    0 -0.00000000000E+00 -0.00000000000E+00  0.00000000000E+00  0.93800000000E+00  0.93800000000E+00 0.  1.
         11    1    1    2    0    0 -0.33335419589E-01  0.15207173147E+00  0.27495356074E+01  0.27539396107E+01  0.51100000000E-03 0.  1.
    9000002    1    1    2    0    0  0.23801015977E+00 -0.14124890815E+00  0.64052919697E-01  0.98007492914E+00  0.93800000000E+00 0.  1.
         22    1    1    2    0    0 -0.20467474018E+00 -0.10822823318E-01  0.11864114402E+01  0.12039854602E+01  0.00000000000E+00 0.  1.
</event>
<event>
 5    1  0.2111786E+001  0.1574917E+01  0.7818608E-02  0.3381045E+00
         11   -1    0    0    0    0  0.00000000000E+00  0.00000000000E+00  0.39999999674E+01  0.40000000000E+01  0.51100000000E-03 0.  1.
    9000002   -1    0    0    0    0 -0.00000000000E+00 -0.00000000000E+00  0.00000000000E+00  0.93800000000E+00  0.93800000000E+00 0. -1.
         11    1    1    2    0    0 -0.97241098351E-01  0.86657224511E-01  0.11422585976E+01  0.11496609372E+01  0.51100000000E-03 0.  1.
    9000002    1    1    2    0    0 -0.23691944944E+00 -0.14537333717E+00  0.70860600607E-01  0.98088197934E+00  0.93800000000E+00 0. -1.
         22    1    1    2    0    0  0.33416054779E+00  0.58716112660E-01  0.27868807692E+01  0.28074570834E+01  0.00000000000E+00 0. -1.
</event>
<event>
 5    1  0.2111786E+001  0.1591881E+01  0.7818608E-02  0.3362223E+00
         11   -1    0    0    0    0  0.00000000000E+00  0.00000000000E+00  0.39999999674E+01  0.40000000000E+01  0.51100000000E-03 0.  1.
    9000002   -1    0    0    0    0 -0.00000000000E+00 -0.00000000000E+00  0.00000000000E+00  0.93800000000E+00  0.93800000000E+00 0.  1.
         11    1    1    2    0    0  0.34344386460E-01  0.62716050286E-01  0.48813005832E+00  0.49333969514E+00  0.51100000000E-03 0.  1.
    9000002    1    1    2    0    0 -0.21307878019E+00  0.54789252334E-01  0.37994101192E-01  0.96420536218E+00  0.93800000000E+00 0.  1.
         22    1    1    2    0    0  0.17873439373E+00 -0.11750530262E+00  0.34738758078E+01  0.34804549427E+01  0.00000000000E+00 0.  1.
</event>
<event>
 5    1  0.2111786E+001  0.1571915E+01  0.7818608E-02  0.3384422E+00
         11   -1    0    0    0    0  0.00000000000E+00  0.00000000000E+00  0.39999999674E+01  0.40000000000E+01  0.51100000000E-03 0. -1.
    9000002   -1    0    0    0    0 -0.00000000000E+00 -0.00000000000E+00  0.00000000000E+00  0.93800000000E+00  0.93800000000E+00 0.  1.
         11    1    1    2    0    0  0.23054727491E+00  0.35895240328E+00  0.14139351920E+01  0.14768926372E+01  0.51100000000E-03 0. -1.
    9000002    1    1    2    0    0 -0.71582779431E+00 -0.41854869535E+00  0.55051676503E+00  0.13676641218E+01  0.93800000000E+00 0.  1.
         22    1    1    2    0    0  0.48528051940E+00  0.59596292070E-01  0.20355480104E+01  0.20934432410E+01  0.00000000000E+00 0. -1.
</event>
<event>
 5    1  0.2111786E+001  0.1597229E+01  0.7818608E-02  0.3356376E+00
         11   -1    0    0    0    0  0.00000000000E+00  0.00000000000E+00  0.39999999674E+01  0.40000000000E+01  0.51100000000E-03 0. -1.
    9000002   -1    0    0    0    0 -0.00000000000E+00 -0.00000000000E+00  0.00000000000E+00  0.93800000000E+00  0.93800000000E+00 0. -1.
         11    1    1    2    0    0  0.41248492896E-01 -0.84428077692E+00  0.22646412239E+01  0.24172529041E+01  0.51100000000E-03 0. -1.
    9000002    1    1    2    0    0 -0.64938082317E-01  0.11303208500E+01  0.11422235398E+01  0.18618165305E+01  0.93800000000E+00 0. -1.
         22    1    1    2    0    0  0.23689589421E-01 -0.28604007312E+00  0.59313520374E+00  0.65893056538E+00  0.00000000000E+00 0.  1.
</event>
<event>
 5    1  0.2111786E+001  0.1546977E+01  0.7818608E-02  0.3413003E+00
         11   -1    0    0    0    0  0.00000000000E+00  0.00000000000E+00  0.39999999674E+01  0.40000000000E+01  0.51100000000E-03 0. -1.
    9000002   -1    0    0    0    0 -0.00000000000E+00 -0.00000000000E+00  0.00000000000E+00  0.93800000000E+00  0.93800000000E+00 0. -1.
         11    1    1    2    0    0  0.19746594273E-01  0.27551753710E+00  0.11577940941E+00  0.29950788637E+00  0.51100000000E-03 0. -1.
    9000002    1    1    2    0    0  0.88371440718E-01 -0.90739088554E-01  0.22483605988E+00  0.97285062962E+00  0.93800000000E+00 0. -1.
         22    1    1    2    0    0 -0.10811803499E+00 -0.18477844855E+00  0.36593844981E+01  0.36656414840E+01  0.00000000000E+00 0. -1.
</event>
<event>
 5    1  0.2111786E+001  0.1499801E+01  0.7818608E-02  0.3469853E+00
         11   -1    0    0    0    0  0.00000000000E+00  0.00000000000E+00  0.39999999674E+01  0.40000000000E+01  0.51100000000E-03 0. -1.
    9000002   -1    0    0    0    0 -0.00000000000E+00 -0.00000000000E+00  0.00000000000E+00  0.93800000000E+00  0.93800000000E+00 0. -1.
         11    1    1    2    0    0  0.38566781730E+00  0.37771131558E+00  0.24143847264E+01  0.24739966393E+01  0.51100000000E-03 0. -1.
    9000002    1    1    2    0    0 -0.12295710481E+00 -0.28318721955E+00  0.14680349105E+00  0.99835300166E+00  0.93800000000E+00 0. -1.
         22    1    1    2    0    0 -0.26271071249E+00 -0.94524096035E-01  0.14388117499E+01  0.14656503590E+01  0.00000000000E+00 0. -1.
</event>
<event>
 5    1  0.2111786E+001  0.1545557E+01  0.7818608E-02  0.3414660E+00
         11   -1    0    0    0    0  0.00000000000E+00  0.00000000000E+00  0.39999999674E+01  0.40000000000E+01  0.51100000000E-03 0.  1.
    9000002   -1    0    0    0    0 -0.00000000000E+00 -0.00000000000E+00  0.00000000000E+00  0.93800000000E+00  0.93800000000E+00 0.  1.
         11    1    1    2    0    0 -0.31006912640E+00 -0.64469481421E-01  0.24491068317E+01  0.24694986761E+01  0.51100000000E-03 0.  1.
    9000002    1    1    2    0    0  0.73335882701E-01  0.35460192429E-02  0.43986661022E-01  0.94189678431E+00  0.93800000000E+00 0.  1.
         22    1    1    2    0    0  0.23673324370E+00  0.60923462178E-01  0.15069064746E+01  0.15266045396E+01  0.00000000000E+00 0.  1.
</event>
<event>
 5    1  0.2111786E+001  0.1585004E+01  0.7818608E-02  0.3369802E+00
         11   -1    0    0    0    0  0.00000000000E+00  0.00000000000E+00  0.39999999674E+01  0.40000000000E+01  0.51100000000E-03 0. -1.
    9000002   -1    0    0    0    0 -0.00000000000E+00 -0.00000000000E+00  0.00000000000E+00  0.93800000000E+00  0.93800000000E+00 0.  1.
         11    1    1    2    0    0  0.16955089576E+00 -0.34943937509E+00  0.27117322642E+01  0.27394064169E+01  0.51100000000E-03 0. -1.
    9000002    1    1    2    0    0 -0.26757301963E+00  0.63966950686E+00  0.35947946544E+00  0.12205907934E+01  0.93800000000E+00 0.  1.
         22    1    1    2    0    0  0.98022123869E-01 -0.29023013178E+00  0.92878823775E+00  0.97800278974E+00  0.00000000000E+00 0. -1.
</event>
<event>
 5    1  0.2111786E+001  0.1564330E+01  0.7818608E-02  0.3393013E+00
         11   -1    0    0    0    0  0.00000000000E+00  0.00000000000E+00  0.39999999674E+01  0.40000000000E+01  0.51100000000E-03 0.  1.
    9000002   -1    0    0    0    0 -0.00000000000E+00 -0.00000000000E+00  0.00000000000E+00  0.93800000000E+00  0.93800000000E+00 0. -1.
         11    1    1    2    0    0 -0.14207495241E+00 -0.13230630036E+00  0.77649751500E+00  0.80039921360E+00  0.51100000000E-03 0.  1.
    9000002    1    1    2    0    0  0.19460165710E+00 -0.79920802208E-01  0.56393409669E-01  0.96295449333E+00  0.93800000000E+00 0. -1.
         22    1    1    2    0    0 -0.52526704689E-01  0.21222710257E+00  0.31671090427E+01  0.31746462931E+01  0.00000000000E+00 0. -1.
</event>
<event>
 5    1  0.2111786E+001  0.1519217E+01  0.7818608E-02  0.3445997E+00
         11   -1    0    0    0    0  0.00000000000E+00  0.00000000000E+00  0.39999999674E+01  0.40000000000E+01  0.51100000000E-03 0. -1.
    9000002   -1    0    0    0    0 -0.00000000000E+00 -0.00000000000E+00  0.00000000000E+00  0.93800000000E+00  0.93800000000E+00 0.  1.
         11    1    1    2    0    0  0.14005545100E+00  0.24772662644E+00  0.20347740407E+01  0.20545777348E+01  0.51100000000E-03 0. -1.
    9000002    1    1    2    0    0  0.44401526638E-01  0.10062184055E+00  0.69311250262E-01  0.94696583876E+00  0.93800000000E+00 0.  1.
         22    1    1    2    0    0 -0.18445697764E+00 -0.34834846699E+00  0.18959146764E+01  0.19364564264E+01  0.00000000000E+00 0. -1.
</event>
<event>
 5    1  0.2111786E+001  0.1484581E+01  0.7818608E-02  0.3489024E+00
         11   -1    0    0    0    0  0.00000000000E+00  0.00000000000E+00  0.39999999674E+01  0.40000000000E+01  0.51100000000E-03 0. -1.
    9000002   -1    0    0    0    0 -0.00000000000E+00 -0.00000000000E+00  0.00000000000E+00  0.93800000000E+00  0.93800000000E+00 0.  1.
         11    1    1    2    0    0  0.20908048254E+00  0.76910741459E-01  0.29739625529E+00  0.37158404718E+00  0.51100000000E-03 0. -1.
    9000002    1    1    2    0    0  0.76969259989E-01 -0.56143890781E-01  0.95189559899E-01  0.94761883464E+00  0.93800000000E+00 0.  1.
         22    1    1    2    0    0 -0.28604974253E+00 -0.20766850678E-01  0.36074141522E+01  0.36187971182E+01  0.00000000000E+00 0. -1.
</event>
<event>
 5    1  0.2111786E+001  0.1587478E+01  0.7818608E-02  0.3367068E+00
         11   -1    0    0    0    0  0.00000000000E+00  0.00000000000E+00  0.39999999674E+01  0.40000000000E+01  0.51100000000E-03 0.  1.
    9000002   -1    0    0    0    0 -0.00000000000E+00 -0.00000000000E+00  0.00000000000E+00  0.93800000000E+00  0.93800000000E+00 0. -1.
         11    1    1    2    0    0 -0.45066103207E-01 -0.27035231700E-01  0.14774256658E+01  0.14783601444E+01  0.51100000000E-03 0.  1.
    9000002    1    1    2    0    0 -0.22200946174E+00  0.10601064088E+00  0.49560234525E-01  0.97099262300E+00  0.93800000000E+00 0. -1.
         22    1    1    2    0    0  0.26707556495E+00 -0.78975409178E-01  0.24730140670E+01  0.24886472326E+01  0.00000000000E+00 0.  1.
</event>
<event>
 5    1  0.2111786E+001  0.1444359E+01  0.7818608E-02  0.3541798E+00
         11   -1    0    0    0    0  0.00000000000E+00  0.00000000000E+00  0.39999999674E+01  0.40000000000E+01  0.51100000000E-03 0. -1.
    9000002   -1    0    0    0    0 -0.00000000000E+00 -0.00000000000E+00  0.00000000000E+00  0.93800000000E+00  0.93800000000E+00 0.  1.
         11    1    1    2    0    0  0.25633006722E+00 -0.42276200953E+00  0.17894692097E+01  0.18565110109E+01  0.51100000000E-03 0. -1.
    9000002    1    1    2    0    0 -0.14635856288E+00 -0.24088497399E-01  0.13937824515E+00  0.95982882842E+00  0.93800000000E+00 0.  1.
         22    1    1    2    0    0 -0.10997150434E+00  0.44685050693E+00  0.20711525125E+01  0.21216601607E+01  0.00000000000E+00 0. -1.
</event>
<event>
 5    1  0.2111786E+001  0.1563117E+01  0.7818608E-02  0.3394394E+00
         11   -1    0    0    0    0  0.00000000000E+00  0.00000000000E+00  0.39999999674E+01  0.40000000000E+01  0.51100000000E-03 0. -1.
    9000002   -1    0    0    0    0 -0.00000000000E+00 -0.00000000000E+00  0.00000000000E+00  0.93800000000E+00  0.93800000000E+00 0. -1.
         11    1    1    2    0    0 -0.86872292344E-01 -0.15968072759E+00  0.82176107712E+00  0.84162714959E+00  0.51100000000E-03 0. -1.
    9000002    1    1    2    0    0  0.59892493324E-01 -0.57163020989E-01  0.31621907909E-01  0.94217761955E+00  0.93800000000E+00 0. -1.
         22    1    1    2    0    0  0.26979799020E-01  0.21684374858E+00  0.31466169823E+01  0.31541952309E+01  0.00000000000E+00 0. -1.
</event>
<event>
 5    1  0.2111786E+001  0.1567296E+01  0.7818608E-02  0.3389642E+00
         11   -1    0    0    0    0  0.00000000000E+00  0.00000000000E+00  0.39999999674E+01  0.40000000000E+01  0.51100000000E-03 0.  1.
    9000002   -1    0    0    0    0 -0.00000000000E+00 -0.00000000000E+00  0.00000000000E+00  0.93800000000E+00  0.93800000000E+00 0.  1.
         11    1    1    2    0    0  0.12464557892E+00 -0.96637375547E-01  0.22986248700E+01  0.23040294826E+01  0.51100000000E-03 0.  1.
    9000002    1    1    2    0    0  0.60690901146E-02 -0.12881648339E+00  0.35136527718E-01  0.94747511620E+00  0.93800000000E+00 0.  1.
         22    1    1    2    0    0 -0.13071466904E+00  0.22545385893E+00  0.16662385696E+01  0.16864954012E+01  0.00000000000E+00 0. -1.
</event>
<event>
 5    1  0.2111786E+001  0.1544810E+01  0.7818608E-02  0.3415533E+00
         11   -1    0    0    0    0  0.00000000000E+00  0.00000000000E+00  0.39999999674E+01  0.40000000000E+01  0.51100000000E-03 0. -1.
    9000002   -1    0    0    0    0 -0.00000000000E+00 -0.00000000000E+00  0.00000000000E+00  0.93800000000E+00  0.93800000000E+00 0. -1.
         11    1    1    2    0    0  0.16883496739E+00  0.16791151810E+00  0.12295917344E+01  0.12524358740E+01  0.51100000000E-03 0. -1.
    9000002    1    1    2    0    0  0.13349383513E+00 -0.42014383031E-01  0.54463160071E-01  0.94994528695E+00  0.93800000000E+00 0. -1.
         22    1    1    2    0    0 -0.30232880252E+00 -0.12589713507E+00  0.27159450729E+01  0.27356188390E+01  0.00000000000E+00 0. -1.
</event>
<event>
 5    1  0.2111786E+001  0.1573048E+01  0.7818608E-02  0.3383146E+00
         11   -1    0    0    0    0  0.00000000000E+00  0.00000000000E+00  0.39999999674E+01  0.40000000000E+01  0.51100000000E-03 0.  1.
    9000002   -1    0    0    0    0 -0.00000000000E+00 -0.00000000000E+00  0.00000000000E+00  0.93800000000E+00  0.93800000000E+00 0. -1.
         11    1    1    2    0    0  0.14340814141E+00  0.60143126594E-01  0.14332918388E+01  0.14417034532E+01  0.51100000000E-03 0.  1.
    9000002    1    1    2    0    0  0.44558394135E-01  0.11226286850E+00  0.29400334668E-01  0.94620123748E+00  0.93800000000E+00 0. -1.
         22    1    1    2    0    0 -0.18796653554E+00 -0.17240599509E+00  0.25373077939E+01  0.25500953093E+01  0.00000000000E+00 0.  1.
</event>
<event>
 5    1  0.2111786E+001  0.1560952E+01  0.7818608E-02  0.3396866E+00
         11   -1    0    0    0    0  0.00000000000E+00  0.00000000000E+00  0.39999999674E+01  0.40000000000E+01  0.51100000000E-03 0.  1.
    9000002   -1    0    0    0    0 -0.00000000000E+00 -0.00000000000E+00  0.00000000000E+00  0.93800000000E+00  0.93800000000E+00 0.  1.
         11    1    1    2    0    0  0.18499581632E+00 -0.17637504233E-01  0.21398816340E+01  0.21479358003E+01  0.51100000000E-03 0.  1.
    9000002    1    1    2    0    0  0.94430327297E-01  0.14582553374E-01  0.34817457579E-01  0.94349668411E+00  0.93800000000E+00 0.  1.
         22    1    1    2    0    0 -0.27942614361E+00  0.30549508589E-02  0.18253008758E+01  0.18465675156E+01  0.00000000000E+00 0. -1.
</event>
<event>
 5    1  0.2111786E+001  0.1558787E+01  0.7818608E-02  0.3399347E+00
         11   -1    0    0    0    0  0.00000000000E+00  0.00000000000E+00  0.39999999674E+01  0.40000000000E+01  0.51100000000E-03 0. -1.
    9000002   -1    0    0    0    0 -0.00000000000E+00 -0.00000000000E+00  0.00000000000E+00  0.93800000000E+00  0.93800000000E+00 0.  1.
         11    1    1    2    0    0 -0.14639088817E+00  0.18264227982E+00  0.16799032430E+01  0.16961319705E+01  0.51100000000E-03 0. -1.
    9000002    1    1    2    0    0  0.88034275845E-01  0.74793468900E-01  0.39358844474E-01  0.94590550022E+00  0.93800000000E+00 0.  1.
         22    1    1    2    0    0  0.58356612328E-01 -0.25743574872E+00  0.22807378799E+01  0.22959625293E+01  0.00000000000E+00 0. -1.
</event>
<event>
 5    1  0.2111786E+001  0.1575777E+01  0.7818608E-02  0.3380082E+00
         11   -1    0    0    0    0  0.00000000000E+00  0.00000000000E+00  0.39999999674E+01  0.40000000000E+01  0.51100000000E-03 0. -1.
    9000002   -1    0    0    0    0 -0.00000000000E+00 -0.00000000000E+00  0.00000000000E+00  0.93800000000E+00  0.93800000000E+00 0.  1.
         11    1    1    2    0    0  0.20827008070E+00 -0.68514430924E-01  0.15094071730E+01  0.15252478254E+01  0.51100000000E-03 0. -1.
    9000002    1    1    2    0    0 -0.79456266654E-01  0.26768465007E+00  0.70664188890E-01  0.98122668012E+00  0.93800000000E+00 0.  1.
         22    1    1    2    0    0 -0.12881381404E+00 -0.19917021915E+00  0.24199286055E+01  0.24315254945E+01  0.00000000000E+00 0.  1.
</event>
<event>
 5    1  0.2111786E+001  0.1504705E+01  0.7818608E-02  0.3463766E+00
         11   -1    0    0    0    0  0.00000000000E+00  0.00000000000E+00  0.39999999674E+01  0.40000000000E+01  0.51100000000E-03 0.  1.
    9000002   -1    0    0    0    0 -0.00000000000E+00 -0.00000000000E+00  0.00000000000E+00  0.93800000000E+00  0.93800000000E+00 0. -1.
         11    1    1    2    0    0 -0.12205806214E+00 -0.24833618788E+00  0.64173985610E+00  0.69885573388E+00  0.51100000000E-03 0.  1.
    9000002    1    1    2    0    0  0.36775705881E-01 -0.26286425768E-01  0.73651825253E-01  0.94197240941E+00  0.93800000000E+00 0. -1.
         22    1    1    2    0    0  0.85282356260E-01  0.27462261365E+00  0.32846082860E+01  0.32971718567E+01  0.00000000000E+00 0.  1.
</event>
<event>
 5    1  0.2111786E+001  0.1551572E+01  0.7818608E-02  0.3407664E+00
         11   -1    0    0    0    0  0.00000000000E+00  0.00000000000E+00  0.39999999674E+01  0.40000000000E+01  0.51100000000E-03 0. -1.
    9000002   -1    0    0    0    0 -0.00000000000E+00 -0.00000000000E+00  0.00000000000E+00  0.93800000000E+00  0.93800000000E+00 0.  1.
         11    1    1    2    0    0 -0.16542276253E-01 -0.12309672067E+00  0.33469410446E+01  0.33492448503E+01  0.51100000000E-03 0. -1.
    9000002    1    1    2    0    0  0.21046096912E+00  0.27375683027E-01  0.66967793153E-01  0.96403938346E+00  0.93800000000E+00 0.  1.
         22    1    1    2    0    0 -0.19391869286E+00  0.95721037640E-01  0.58609112956E+00  0.62471576628E+00  0.00000000000E+00 0. -1.
</event>
<event>
 5    1  0.2111786E+001  0.1565509E+01  0.7818608E-02  0.3391671E+00
         11   -1    0    0    0    0  0.00000000000E+00  0.00000000000E+00  0.39999999674E+01  0.40000000000E+01  0.51100000000E-03 0.  1.
    9000002   -1    0    0    0    0 -0.00000000000E+00 -0.00000000000E+00  0.00000000000E+00  0.93800000000E+00  0.93800000000E+00 0.  1.
         11    1    1    2    0    0 -0.19836604866E+00  0.16280177873E-01  0.21931058553E+01  0.22021189085E+01  0.51100000000E-03 0.  1.
    9000002    1    1    2    0    0 -0.37549480419E-01  0.26491425076E-01  0.26586560675E-01  0.93950125295E+00  0.93800000000E+00 0.  1.
         22    1    1    2    0    0  0.23591552907E+00 -0.42771602949E-01  0.17803075514E+01  0.17963798385E+01  0.00000000000E+00 0.  1.
</event>
<event>
 5    1  0.2111786E+001  0.1531296E+01  0.7818608E-02  0.3431483E+00
         11   -1    0    0    0    0  0.00000000000E+00  0.00000000000E+00  0.39999999674E+01  0.40000000000E+01  0.51100000000E-03 0. -1.
    9000002   -1    0    0    0    0 -0.00000000000E+00 -0.00000000000E+00  0.00000000000E+00  0.93800000000E+00  0.93800000000E+00 0. -1.
         11    1    1    2    0    0  0.30266823241E+00 -0.18328353653E+00  0.27241546085E+01  0.27470383153E+01  0.51100000000E-03 0. -1.
    9000002    1    1    2    0    0 -0.11413107555E+00 -0.38586130394E-02  0.60431921862E-01  0.94685627657E+00  0.93800000000E+00 0. -1.
         22    1    1    2    0    0 -0.18853715686E+00  0.18714214957E+00  0.12154134370E+01  0.12441054081E+01  0.00000000000E+00 0. -1.
</event>
<event>
 5    1  0.2111786E+001  0.1511887E+01  0.7818608E-02  0.3454926E+00
         11   -1    0    0    0    0  0.00000000000E+00  0.00000000000E+00  0.39999999674E+01  0.40000000000E+01  0.51100000000E-03 0.  1.
    9000002   -1    0    0    0    0 -0.00000000000E+00 -0.00000000000E+00  0.00000000000E+00  0.93800000000E+00  0.93800000000E+00 0.  1.
         11    1    1    2    0    0  0.47141732089E+00 -0.60204006336E-01  0.31918914627E+01  0.32270776538E+01  0.51100000000E-03 0.  1.
    9000002    1    1    2    0    0 -0.24233824616E+00  0.31886699670E-01  0.10988228538E+00  0.97553201065E+00  0.93800000000E+00 0.  1.
         22    1    1    2    0    0 -0.22907907473E+00  0.28317306667E-01  0.69822621928E+00  0.73539033556E+00  0.00000000000E+00 0.  1.
</event>
<event>
 5    1  0.2111786E+001  0.1521170E+01  0.7818608E-02  0.3443633E+00
         11   -1    0    0    0    0  0.00000000000E+00  0.00000000000E+00  0.39999999674E+01  0.40000000000E+01  0.51100000000E-03 0.  1.
    9000002   -1    0    0    0    0 -0.00000000000E+00 -0.00000000000E+00  0.00000000000E+00  0.93800000000E+00  0.93800000000E+00 0.  1.
         11    1    1    2    0    0 -0.12094103175E+00  0.30379387998E+00  0.10556121133E+01  0.11050948600E+01  0.51100000000E-03 0.  1.
    9000002    1    1    2    0    0 -0.69438709258E-01 -0.13868145427E+00  0.76327374392E-01  0.95379460482E+00  0.93800000000E+00 0.  1.
         22    1    1    2    0    0  0.19037974100E+00 -0.16511242571E+00  0.28680604797E+01  0.28791105352E+01  0.00000000000E+00 0.  1.
</event>
<event>
 5    1  0.2111786E+001  0.1513781E+01  0.7818608E-02  0.3452610E+00
         11   -1    0    0    0    0  0.00000000000E+00  0.00000000000E+00  0.39999999674E+01  0.40000000000E+01  0.51100000000E-03 0. -1.
    9000002   -1    0    0    0    0 -0.00000000000E+00 -0.00000000000E+00  0.00000000000E+00  0.93800000000E+00  0.93800000000E+00 0.  1.
         11    1    1    2    0    0 -0.32575318436E+00 -0.76434372981E-01  0.10325064981E+01  0.10853696515E+01  0.51100000000E-03 0. -1.
    9000002    1    1    2    0    0  0.66150603897E-01  0.95590617374E-01  0.74672336227E-01  0.94812099772E+00  0.93800000000E+00 0.  1.
         22    1    1    2    0    0  0.25960258046E+00 -0.19156244392E-01  0.28928211330E+01  0.29045093508E+01  0.00000000000E+00 0. -1.
</event>
<event>
 5    1  0.2111786E+001  0.1567165E+01  0.7818608E-02  0.3389791E+00
         11   -1    0    0    0    0  0.00000000000E+00  0.00000000000E+00  0.39999999674E+01  0.40000000000E+01  0.51100000000E-03 0.  1.
    9000002   -1    0    0    0    0 -0.00000000000E+00 -0.00000000000E+00  0.00000000000E+00  0.93800000000E+00  0.93800000000E+00 0.  1.
         11    1    1    2    0    0  0.14850710042E+00 -0.18603047005E-01  0.27913733986E+01  0.27953830048E+01  0.51100000000E-03 0.  1.
    9000002    1    1    2    0    0  0.24649381261E-01 -0.12861209458E+00  0.35589997689E-01  0.94776543026E+00  0.93800000000E+00 0.  1.
         22    1    1    2    0    0 -0.17315648168E+00  0.14721514158E+00  0.11730365711E+01  0.11948515649E+01  0.00000000000E+00 0.  1.
</event>
<event>
 5    1  0.2111786E+001  0.1487398E+01  0.7818608E-02  0.3485443E+00
         11   -1    0    0    0    0  0.00000000000E+00  0.00000000000E+00  0.39999999674E+01  0.40000000000E+01  0.51100000000E-03 0.  1.
    9000002   -1    0    0    0    0 -0.00000000000E+00 -0.00000000000E+00  0.00000000000E+00  0.93800000000E+00  0.93800000000E+00 0. -1.
         11    1    1    2    0    0 -0.34616599569E+00 -0.39678399304E+00  0.21729918340E+01  0.22358806331E+01  0.51100000000E-03 0.  1.
    9000002    1    1    2    0    0  0.26043193198E+00  0.88720118744E-01  0.14288267203E+00  0.98790460503E+00  0.93800000000E+00 0. -1.
         22    1    1    2    0    0  0.85734063710E-01  0.30806387430E+00  0.16841254614E+01  0.17142147619E+01  0.00000000000E+00 0. -1.
</event>
<event>
 5    1  0.2111786E+001  0.1589986E+01  0.7818608E-02  0.3364304E+00
         11   -1    0    0    0    0  0.00000000000E+00  0.00000000000E+00  0.39999999674E+01  0.40000000000E+01  0.51100000000E-03 0. -1.
    9000002   -1    0    0    0    0 -0.00000000000E+00 -0.00000000000E+00  0.00000000000E+00  0.93800000000E+00  0.93800000000E+00 0.  1.
         11    1    1    2    0    0  0.13332309065E-01  0.84434131337E-01  0.11602408044E+01  0.11633855157E+01  0.51100000000E-03 0. -1.
    9000002    1    1    2    0    0  0.17125583709E+00  0.91975236764E-02  0.26671454402E-01  0.95392270266E+00  0.93800000000E+00 0.  1.
         22    1    1    2    0    0 -0.18458814616E+00 -0.93631655014E-01  0.28130877086E+01  0.28206917816E+01  0.00000000000E+00 0. -1.
</event>
<event>
 5    1  0.2111786E+001  0.1606126E+01  0.7818608E-02  0.3346741E+00
         11   -1    0    0    0    0  0.00000000000E+00  0.00000000000E+00  0.39999999674E+01  0.40000000000E+01  0.51100000000E-03 0. -1.
    9000002   -1    0    0    0    0 -0.00000000000E+00 -0.00000000000E+00  0.00000000000E+00  0.93800000000E+00  0.93800000000E+00 0.  1.
         11    1    1    2    0    0  0.52011571699E-01  0.28936718307E+00  0.27806913515E-01  0.29531687353E+00  0.51100000000E-03 0. -1.
    9000002    1    1    2    0    0 -0.43369514848E+00 -0.28954790973E+00  0.56248311844E+00  0.12116768267E+01  0.93800000000E+00 0.  1.
         22    1    1    2    0    0  0.38168357678E+00  0.18072665239E-03  0.34097099354E+01  0.34310062998E+01  0.00000000000E+00 0. -1.
</event>
<event>
 5    1  0.2111786E+001  0.1511767E+01  0.7818608E-02  0.3455073E+00
         11   -1    0    0    0    0  0.00000000000E+00  0.00000000000E+00  0.39999999674E+01  0.40000000000E+01  0.51100000000E-03 0.  1.
    9000002   -1    0    0    0    0 -0.00000000000E+00 -0.00000000000E+00  0.00000000000E+00  0.93800000000E+00  0.93800000000E+00 0. -1.
         11    1    1    2    0    0 -0.77513339307E-01 -0.17524924098E+00  0.34681340330E+01  0.34734240378E+01  0.51100000000E-03 0.  1.
    9000002    1    1    2    0    0 -0.12219543111E+00  0.36306618879E-01  0.78267379606E-01  0.94985244995E+00  0.93800000000E+00 0. -1.
         22    1    1    2    0    0  0.19970877041E+00  0.13894262210E+00  0.45359855477E+00  0.51472351229E+00  0.00000000000E+00 0. -1.
</event>
<event>
 5    1  0.2111786E+001  0.1511627E+01  0.7818608E-02  0.3455245E+00
         11   -1    0    0    0    0  0.00000000000E+00  0.00000000000E+00  0.39999999674E+01  0.40000000000E+01  0.51100000000E-03 0.  1.
    9000002   -1    0    0    0    0 -0.00000000000E+00 -0.00000000000E+00  0.00000000000E+00  0.93800000000E+00  0.93800000000E+00 0. -1.
         11    1    1    2    0    0 -0.52741362561E-01  0.27916431717E+00  0.82386887237E+00  0.87147836880E+00  0.51100000000E-03 0.  1.
    9000002    1    1    2    0    0  0.24588748148E+00  0.68185894198E-01  0.11404917220E+00  0.97875491488E+00  0.93800000000E+00 0. -1.
         22    1    1    2    0    0 -0.19314611892E+00 -0.34735021136E+00  0.30620819228E+01  0.30877667163E+01  0.00000000000E+00 0.  1.
</event>
<event>
 5    1  0.2111786E+001  0.1565469E+01  0.7818608E-02  0.3391716E+00
         11   -1    0    0    0    0  0.00000000000E+00  0.00000000000E+00  0.39999999674E+01  0.40000000000E+01  0.51100000000E-03 0. -1.
    9000002   -1    0    0    0    0 -0.00000000000E+00 -0.00000000000E+00  0.00000000000E+00  0.93800000000E+00  0.93800000000E+00 0.  1.
         11    1    1    2    0    0  0.14775511693E+00 -0.16181847420E+00  0.21208571122E+01  0.21321472614E+01  0.51100000000E-03 0. -1.
    9000002    1    1    2    0    0 -0.17767686141E-01 -0.22334023689E-01  0.25733501650E-01  0.93878683011E+00  0.93800000000E+00 0.  1.
         22    1    1    2    0    0 -0.12998743079E+00  0.18415249788E+00  0.18534093536E+01  0.18670659084E+01  0.00000000000E+00 0.  1.
</event>
<event>
 5    1  0.2111786E+001  0.1578265E+01  0.7818608E-02  0.3377297E+00
         11   -1    0    0    0    0  0.00000000000E+00  0.00000000000E+00  0.39999999674E+01  0.40000000000E+01  0.51100000000E-03 0.  1.
    9000002   -1    0    0    0    0 -0.00000000000E+00 -0.00000000000E+00  0.00000000000E+00  0.93800000000E+00  0.93800000000E+00 0.  1.
         11    1    1    2    0    0 -0.89607353020E-01 -0.62158647613E-01  0.47568968793E+00  0.48803085508E+00  0.51100000000E-03 0.  1.
    9000002    1    1    2    0    0  0.52254952699E-01 -0.14024394767E+00  0.30761447528E-01  0.95036267372E+00  0.93800000000E+00 0.  1.
         22    1    1    2    0    0  0.37352400321E-01  0.20240259528E+00  0.34935488319E+01  0.34996064712E+01  0.00000000000E+00 0.  1.
</event>
<event>
 5    1  0.2111786E+001  0.1561951E+01  0.7818608E-02  0.3395725E+00
         11   -1    0    0    0    0  0.00000000000E+00  0.00000000000E+00  0.39999999674E+01  0.40000000000E+01  0.51100000000E-03 0. -1.
    9000002   -1    0    0    0    0 -0.00000000000E+00 -0.00000000000E+00  0.00000000000E+00  0.93800000000E+00  0.93800000000E+00 0. -1.
         11    1    1    2    0    0 -0.15743610546E+00  0.16992664141E+00  0.13249362130E+01  0.13450343566E+01  0.51100000000E-03 0. -1.
    9000002    1    1    2    0    0 -0.27855177725E-01 -0.75887427488E-01  0.32284552713E-01  0.94203030998E+00  0.93800000000E+00 0. -1.
         22    1    1    2    0    0  0.18529128318E+00 -0.94039213927E-01  0.26427792017E+01  0.26509353334E+01  0.00000000000E+00 0. -1.
</event>
<event>
 5    1  0.2111786E+001  0.1523084E+01  0.7818608E-02  0.3441324E+00
         11   -1    0    0    0    0  0.00000000000E+00  0.00000000000E+00  0.39999999674E+01  0.40000000000E+01  0.51100000000E-03 0.  1.
    9000002   -1    0    0    0    0 -0.00000000000E+00 -0.00000000000E+00  0.00000000000E+00  0.93800000000E+00  0.93800000000E+00 0. -1.
         11    1    1    2    0    0  0.27503789122E+00  0.44192734275E-01  0.30901279388E+01  0.31026585018E+01  0.51100000000E-03 0.  1.
    9000002    1    1    2    0    0 -0.38493321959E-01  0.10403583381E+00  0.66389849708E-01  0.94686683472E+00  0.93800000000E+00 0. -1.
         22    1    1    2    0    0 -0.23654456926E+00 -0.14822856809E+00  0.84348217887E+00  0.88847466352E+00  0.00000000000E+00 0. -1.
</event>
<event>
 5    1  0.2111786E+001  0.1596586E+01  0.7818608E-02  0.3357077E+00
         11   -1    0    0    0    0  0.00000000000E+00  0.00000000000E+00  0.39999999674E+01  0.40000000000E+01  0.51100000000E-03 0. -1.
    9000002   -1    0    0    0    0 -0.00000000000E+00 -0.00000000000E+00  0.00000000000E+00  0.93800000000E+00  0.93800000000E+00 0. -1.
         11    1    1    2    0    0  0.37206233269E-01  0.26424493525E+00  0.21869775161E+01  0.22031978138E+01  0.51100000000E-03 0. -1.
    9000002    1    1    2    0    0 -0.17692072429E+00 -0.48915885087E+00  0.18871054142E+00  0.10890514187E+01  0.93800000000E+00 0. -1.
         22    1    1    2    0    0  0.13971449102E+00  0.22491391562E+00  0.16243119098E+01  0.16457507675E+01  0.00000000000E+00 0.  1.
</event>
<event>
 5    1  0.2111786E+001  0.1562587E+01  0.7818608E-02  0.3394999E+00
         11   -1    0    0    0    0  0.00000000000E+00  0.00000000000E+00  0.39999999674E+01  0.40000000000E+01  0.51100000000E-03 0.  1.
    9000002   -1    0    0    0    0 -0.00000000000E+00 -0.00000000000E+00  0.00000000000E+00  0.93800000000E+00  0.93800000000E+00 0.  1.
         11    1    1    2    0    0 -0.15946334846E+00  0.46794782546E-01 -0.41503864451E-01  0.17129256569E+00  0.51100000000E-03 0.  1.
    9000002    1    1    2    0    0  0.16722772432E+00 -0.32684376596E+00  0.35266212219E+00  0.10672424896E+01  0.93800000000E+00 0.  1.
         22    1    1    2    0    0 -0.77643758554E-02  0.28004898341E+00  0.36888417096E+01  0.36994649447E+01  0.00000000000E+00 0.  1.
</event>
<event>
 5    1  0.2111786E+001  0.1547385E+01  0.7818608E-02  0.3412527E+00
         11   -1    0    0    0    0  0.00000000000E+00  0.00000000000E+00  0.39999999674E+01  0.40000000000E+01  0.51100000000E-03 0. -1.
    9000002   -1    0    0    0    0 -0.00000000000E+00 -0.00000000000E+00  0.00000000000E+00  0.93800000000E+00  0.93800000000E+00 0.  1.
         11    1    1    2    0    0 -0.21935845098E+00 -0.10833668682E+00  0.22007109824E+01  0.22142682893E+01  0.51100000000E-03 0. -1.
    9000002    1    1    2    0    0 -0.51252236761E-01 -0.13301739167E-01  0.40788730743E-01  0.94037835396E+00  0.93800000000E+00 0.  1.
         22    1    1    2    0    0  0.27061068774E+00  0.12163842599E+00  0.17585002542E+01  0.17833533568E+01  0.00000000000E+00 0. -1.
</event>
<event>
 5    1  0.2111786E+001  0.1519357E+01  0.7818608E-02  0.3445827E+00
         11   -1    0    0    0    0  0.00000000000E+00  0.00000000000E+00  0.39999999674E+01  0.40000000000E+01  0.51100000000E-03 0.  1.
    9000002   -1    0    0    0    0 -0.00000000000E+00 -0.00000000000E+00  0.00000000000E+00  0.93800000000E+00  0.93800000000E+00 0.  1.
         11    1    1    2    0    0 -0.10740536825E+00 -0.31292044453E+00  0.17642800147E+01  0.17950318518E+01  0.51100000000E-03 0.  1.
    9000002    1    1    2    0    0 -0.16693195615E+00  0.59736023659E-01  0.83102183185E-01  0.95821951731E+00  0.93800000000E+00 0.  1.
         22    1    1    2    0    0  0.27433732439E+00  0.25318442087E+00  0.21526177695E+01  0.21847486309E+01  0.00000000000E+00 0.  1.
</event>
<event>
 5    1  0.2111786E+001  0.1463524E+01  0.7818608E-02  0.3516259E+00
         11   -1    0    0    0    0  0.00000000000E+00  0.00000000000E+00  0.39999999674E+01  0.40000000000E+01  0.51100000000E-03 0. -1.
    9000002   -1    0    0    0    0 -0.00000000000E+00 -0.00000000000E+00  0.00000000000E+00  0.93800000000E+00  0.93800000000E+00 0.  1.
         11    1    1    2    0    0  0.38925099224E+00  0.12656248941E+00  0.15739294056E+01  0.16262805520E+01  0.51100000000E-03 0. -1.
    9000002    1    1    2    0    0  0.95364452966E-01 -0.10441972223E+00  0.12115593700E+00  0.95630571385E+00  0.93800000000E+00 0.  1.
         22    1    1    2    0    0 -0.48461544521E+00 -0.22142767182E-01  0.23049146247E+01  0.23554137342E+01  0.00000000000E+00 0. -1.
</event>
<event>
 5    1  0.2111786E+001  0.1566145E+01  0.7818608E-02  0.3390949E+00
         11   -1    0    0    0    0  0.00000000000E+00  0.00000000000E+00  0.39999999674E+01  0.40000000000E+01  0.51100000000E-03 0. -1.
    9000002   -1    0    0    0    0 -0.00000000000E+00 -0.00000000000E+00  0.00000000000E+00  0.93800000000E+00  0.93800000000E+00 0. -1.
         11    1    1    2    0    0  0.78776227499E-01 -0.16230106012E+00  0.13921850895E+01  0.14038258128E+01  0.51100000000E-03 0. -1.
    9000002    1    1    2    0    0  0.11137702030E+00 -0.33921580502E-01  0.33909830647E-01  0.94580621212E+00  0.93800000000E+00 0. -1.
         22    1    1    2    0    0 -0.19015324780E+00  0.19622264063E+00  0.25739050473E+01  0.25883679751E+01  0.00000000000E+00 0.  1.
</event>
<event>
 5    1  0.2111786E+001  0.1573307E+01  0.7818608E-02  0.3382854E+00
         11   -1    0    0    0    0  0.00000000000E+00  0.00000000000E+00  0.39999999674E+01  0.40000000000E+01  0.51100000000E-03 0. -1.
    9000002   -1    0    0    0    0 -0.00000000000E+00 -0.00000000000E+00  0.00000000000E+00  0.93800000000E+00  0.93800000000E+00 0. -1.
         11    1    1    2    0    0  0.48592390855E-01 -0.18276530074E+00  0.17153633835E+01  0.17257566962E+01  0.51100000000E-03 0. -1.
    9000002    1    1    2    0    0  0.58508824344E-01  0.89496614045E-02  0.21700558350E-01  0.94011610623E+00  0.93800000000E+00 0. -1.
         22    1    1    2    0    0 -0.10710121520E+00  0.17381563934E+00  0.22629360255E+01  0.22721271976E+01  0.00000000000E+00 0. -1.
</event>
<event>
 5    1  0.2111786E+001  0.1513785E+01  0.7818608E-02  0.3452604E+00
         11   -1    0    0    0    0  0.00000000000E+00  0.00000000000E+00  0.39999999674E+01  0.40000000000E+01  0.51100000000E-03 0. -1.
    9000002   -1    0    0    0    0 -0.00000000000E+00 -0.00000000000E+00  0.00000000000E+00  0.93800000000E+00  0.93800000000E+00 0.  1.
         11    1    1    2    0    0 -0.61002394545E+00  0.46327019118E-01  0.30159805608E+01  0.30774038427E+01  0.51100000000E-03 0. -1.
    9000002    1    1    2    0    0  0.51300308478E+00  0.18577776562E+00  0.29122261199E+00  0.11235391194E+01  0.93800000000E+00 0.  1.
         22    1    1    2    0    0  0.97020860678E-01 -0.23210478474E+00  0.69279679457E+00  0.73705703787E+00  0.00000000000E+00 0.  1.
</event>
<event>
 5    1  0.2111786E+001  0.1519545E+01  0.7818608E-02  0.3445600E+00
         11   -1    0    0    0    0  0.00000000000E+00  0.00000000000E+00  0.39999999674E+01  0.40000000000E+01  0.51100000000E-03 0. -1.
    9000002   -1    0    0    0    0 -0.00000000000E+00 -0.00000000000E+00  0.00000000000E+00  0.93800000000E+00  0.93800000000E+00 0.  1.
         11    1    1    2    0    0  0.14268930931E+00 -0.26724068110E+00  0.15141070435E+01  0.15441172951E+01  0.51100000000E-03 0. -1.
    9000002    1    1    2    0    0 -0.32060955796E+00 -0.16552803447E+00  0.15548207913E+00  0.10169605183E+01  0.93800000000E+00 0.  1.
         22    1    1    2    0    0  0.17792024865E+00  0.43276871557E+00  0.23304108447E+01  0.23769221866E+01  0.00000000000E+00 0. -1.
</event>
<event>
 5    1  0.2111786E+001  0.1567012E+01  0.7818608E-02  0.3389965E+00
         11   -1    0    0    0    0  0.00000000000E+00  0.00000000000E+00  0.39999999674E+01  0.40000000000E+01  0.51100000000E-03 0. -1.
    9000002   -1    0    0    0    0 -0.00000000000E+00 -0.00000000000E+00  0.00000000000E+00  0.93800000000E+00  0.93800000000E+00 0. -1.
         11    1    1    2    0    0  0.16347859448E+00 -0.12906569282E+00  0.14330355386E+01  0.14480933396E+01  0.51100000000E-03 0. -1.
    9000002    1    1    2    0    0 -0.37178553942E-01 -0.45243622703E-01  0.26356083559E-01  0.94019565698E+00  0.93800000000E+00 0. -1.
         22    1    1    2    0    0 -0.12630004053E+00  0.17430931552E+00  0.25406083452E+01  0.25497110035E+01  0.00000000000E+00 0. -1.
</event>
<event>
 5    1  0.2111786E+001  0.1501449E+01  0.7818608E-02  0.3467803E+00
         11   -1    0    0    0    0  0.00000000000E+00  0.00000000000E+00  0.39999999674E+01  0.40000000000E+01  0.51100000000E-03 0.  1.
    9000002   -1    0    0    0    0 -0.00000000000E+00 -0.00000000000E+00  0.00000000000E+00  0.93800000000E+00  0.93800000000E+00 0.  1.
         11    1    1    2    0    0  0.54007202600E+00 -0.16832480183E+00  0.24403373137E+01  0.25050464063E+01  0.51100000000E-03 0.  1.
    9000002    1    1    2    0    0 -0.32923507799E+00  0.29640666212E-01  0.15590208524E+00  0.10066895082E+01  0.93800000000E+00 0.  1.
         22    1    1    2    0    0 -0.21083694800E+00  0.13868413561E+00  0.14037605685E+01  0.14262640855E+01  0.00000000000E+00 0.  1.
</event>
<event>
 5    1  0.2111786E+001  0.1523335E+01  0.7818608E-02  0.3441021E+00
         11   -1    0    0    0    0  0.00000000000E+00  0.00000000000E+00  0.39999999674E+01  0.40000000000E+01  0.51100000000E-03 0. -1.
    9000002   -1    0    0    0    0 -0.00000000000E+00 -0.00000000000E+00  0.00000000000E+00  0.93800000000E+00  0.93800000000E+00 0.  1.
         11    1    1    2    0    0 -0.16179282359E+00 -0.22665044482E+00  0.10683724792E+01  0.11040685474E+01  0.51100000000E-03 0. -1.
    9000002    1    1    2    0    0 -0.11112187674E+00  0.29312465128E-02  0.66227311191E-01  0.94688263288E+00  0.93800000000E+00 0.  1.
         22    1    1    2    0    0  0.27291470034E+00  0.22371919830E+00  0.28654001770E+01  0.28870488198E+01  0.00000000000E+00 0. -1.
</event>
<event>
 5    1  0.2111786E+001  0.1565133E+01  0.7818608E-02  0.3392098E+00
         11   -1    0    0    0    0  0.00000000000E+00  0.00000000000E+00  0.39999999674E+01  0.40000000000E+01  0.51100000000E-03 0. -1.
    9000002   -1    0    0    0    0 -0.00000000000E+00 -0.00000000000E+00  0.00000000000E+00  0.93800000000E+00  0.93800000000E+00 0.  1.
         11    1    1    2    0    0  0.99857532496E-01  0.13292906275E+00  0.77998046687E+00  0.79750326165E+00  0.51100000000E-03 0. -1.
    9000002    1    1    2    0    0 -0.17817267587E-01  0.86085538670E-01  0.30696897681E-01  0.94261045746E+00  0.93800000000E+00 0.  1.
         22    1    1    2    0    0 -0.82040264909E-01 -0.21901460142E+00  0.31893226028E+01  0.31978862809E+01  0.00000000000E+00 0. -1.
</event>
<event>
 5    1  0.2111786E+001  0.1572285E+01  0.7818608E-02  0.3384005E+00
         11   -1    0    0    0    0  0.00000000000E+00  0.00000000000E+00  0.39999999674E+01  0.40000000000E+01  0.51100000000E-03 0. -1.
    9000002   -1    0    0    0    0 -0.00000000000E+00 -0.00000000000E+00  0.00000000000E+00  0.93800000000E+00  0.93800000000E+00 0.  1.
         11    1    1    2    0    0  0.10336282618E+00 -0.16484829329E+00  0.12068080339E+01  0.12223930323E+01  0.51100000000E-03 0. -1.
    9000002    1    1    2    0    0 -0.23541713339E+00 -0.52894924351E-01  0.59803097568E-01  0.97038111595E+00  0.93800000000E+00 0.  1.
         22    1    1    2    0    0  0.13205430721E+00  0.21774321764E+00  0.27333888359E+01  0.27452258517E+01  0.00000000000E+00 0. -1.
</event>
<event>
 5    1  0.2111786E+001  0.1551472E+01  0.7818608E-02  0.3407779E+00
         11   -1    0    0    0    0  0.00000000000E+00  0.00000000000E+00  0.39999999674E+01  0.40000000000E+01  0.51100000000E-03 0.  1.
    9000002   -1    0    0    0    0 -0.00000000000E+00 -0.00000000000E+00  0.00000000000E+00  0.93800000000E+00  0.93800000000E+00 0.  1.
         11    1    1    2    0    0 -0.25263946033E+00  0.12953301169E+00  0.13971777732E+01  0.14257319134E+01  0.51100000000E-03 0.  1.
    9000002    1    1    2    0    0  0.13879191687E+00  0.59060362076E-01  0.51491449513E-01  0.95144452909E+00  0.93800000000E+00 0.  1.
         22    1    1    2    0    0  0.11384754347E+00 -0.18859337377E+00  0.25513307447E+01  0.25608235575E+01  0.00000000000E+00 0.  1.
</event>
<event>
 5    1  0.2111786E+001  0.1532823E+01  0.7818608E-02  0.3429666E+00
         11   -1    0    0    0    0  0.00000000000E+00  0.00000000000E+00  0.39999999674E+01  0.40000000000E+01  0.51100000000E-03 0.  1.
    9000002   -1    0    0    0    0 -0.00000000000E+00 -0.00000000000E+00  0.00000000000E+00  0.93800000000E+00  0.93800000000E+00 0.  1.
         11    1    1    2    0    0  0.11639191093E+00  0.13908414922E+00  0.35737513037E+00  0.40076018069E+00  0.51100000000E-03 0.  1.
    9000002    1    1    2    0    0 -0.10476197317E+00  0.10337988003E+00  0.65333497648E-01  0.95172208997E+00  0.93800000000E+00 0.  1.
         22    1    1    2    0    0 -0.11629937760E-01 -0.24246402926E+00  0.35772913393E+01  0.35855177293E+01  0.00000000000E+00 0.  1.
</event>
<event>
 5    1  0.2111786E+001  0.1585833E+01  0.7818608E-02  0.3368885E+00
         11   -1    0    0    0    0  0.00000000000E+00  0.00000000000E+00  0.39999999674E+01  0.40000000000E+01  0.51100000000E-03 0.  1.
    9000002   -1    0    0    0    0 -0.00000000000E+00 -0.00000000000E+00  0.00000000000E+00  0.93800000000E+00  0.93800000000E+00 0. -1.
         11    1    1    2    0    0 -0.11775942963E+00 -0.17180023267E+00  0.19915815738E+01  0.20024435146E+01  0.51100000000E-03 0.  1.
    9000002    1    1    2    0    0 -0.45539201006E-01  0.31111609072E+00  0.77047428329E-01  0.99229398212E+00  0.93800000000E+00 0. -1.
         22    1    1    2    0    0  0.16329863063E+00 -0.13931585804E+00  0.19313709653E+01  0.19432625032E+01  0.00000000000E+00 0.  1.
</event>
<event>
 5    1  0.2111786E+001  0.1560808E+01  0.7818608E-02  0.3397032E+00
         11   -1    0    0    0    0  0.00000000000E+00  0.00000000000E+00  0.39999999674E+01  0.40000000000E+01  0.51100000000E-03 0.  1.
    9000002   -1    0    0    0    0 -0.00000000000E+00 -0.00000000000E+00  0.00000000000E+00  0.93800000000E+00  0.93800000000E+00 0.  1.
         11    1    1    2    0    0 -0.24326001000E+00  0.51937149099E-01  0.16360039469E+01  0.16548057515E+01  0.51100000000E-03 0.  1.
    9000002    1    1    2    0    0  0.64951200379E-01  0.87493514515E-01  0.36808997253E-01  0.94502522495E+00  0.93800000000E+00 0.  1.
         22    1    1    2    0    0  0.17830880962E+00 -0.13943066361E+00  0.23271870232E+01  0.23381690235E+01  0.00000000000E+00 0.  1.
</event>
<event>
 5    1  0.2111786E+001  0.1532229E+01  0.7818608E-02  0.3430373E+00
         11   -1    0    0    0    0  0.00000000000E+00  0.00000000000E+00  0.39999999674E+01  0.40000000000E+01  0.51100000000E-03 0. -1.
    9000002   -1    0    0    0    0 -0.00000000000E+00 -0.00000000000E+00  0.00000000000E+00  0.93800000000E+00  0.93800000000E+00 0. -1.
         11    1    1    2    0    0 -0.29128344212E+00  0.65987291703E-01  0.94815630552E+00  0.99408299811E+00  0.51100000000E-03 0. -1.
    9000002    1    1    2    0    0  0.99526667262E-01 -0.13209010981E+00  0.69843195555E-01  0.95502640098E+00  0.93800000000E+00 0. -1.
         22    1    1    2    0    0  0.19175677485E+00  0.66102818107E-01  0.29820004663E+01  0.29888906009E+01  0.00000000000E+00 0. -1.
</event>
<event>
 5    1  0.2111786E+001  0.1546469E+01  0.7818608E-02  0.3413596E+00
         11   -1    0    0    0    0  0.00000000000E+00  0.00000000000E+00  0.39999999674E+01  0.40000000000E+01  0.51100000000E-03 0. -1.
    9000002   -1    0    0    0    0 -0.00000000000E+00 -0.00000000000E+00  0.00000000000E+00  0.93800000000E+00  0.93800000000E+00 0.  1.
         11    1    1    2    0    0  0.21723754207E+00 -0.29177839975E+00  0.22346829789E+01  0.22640969638E+01  0.51100000000E-03 0. -1.
    9000002    1    1    2    0    0 -0.93089900625E-01  0.12570884132E+00  0.56583334103E-01  0.95263535316E+00  0.93800000000E+00 0.  1.
         22    1    1    2    0    0 -0.12414764144E+00  0.16606955843E+00  0.17087336544E+01  0.17212676831E+01  0.00000000000E+00 0. -1.
</event>
<event>
 5    1  0.2111786E+001  0.1589975E+01  0.7818608E-02  0.3364317E+00
         11   -1    0    0    0    0  0.00000000000E+00  0.00000000000E+00  0.39999999674E+01  0.40000000000E+01  0.51100000000E-03 0.  1.
    9000002   -1    0    0    0    0 -0.00000000000E+00 -0.00000000000E+00  0.00000000000E+00  0.93800000000E+00  0.93800000000E+00 0.  1.
         11    1    1    2    0    0  0.38450617283E-01  0.37681725843E-01  0.14139721845E+01  0.14149968063E+01  0.51100000000E-03 0.  1.
    9000002    1    1    2    0    0  0.14183637665E+00  0.92411487024E-01  0.26173552393E-01  0.95351271387E+00  0.93800000000E+00 0.  1.
         22    1    1    2    0    0 -0.18028699393E+00 -0.13009321287E+00  0.25598542305E+01  0.25694904798E+01  0.00000000000E+00 0.  1.
</event>
<event>
 5    1  0.2111786E+001  0.1565105E+01  0.7818608E-02  0.3392130E+00
         11   -1    0    0    0    0  0.00000000000E+00  0.00000000000E+00  0.39999999674E+01  0.40000000000E+01  0.51100000000E-03 0. -1.
    9000002   -1    0    0    0    0 -0.00000000000E+00 -0.00000000000E+00  0.00000000000E+00  0.93800000000E+00  0.93800000000E+00 0.  1.
         11    1    1    2    0    0  0.15885308632E-01  0.22228509413E+00  0.17624537160E+01  0.17764870864E+01  0.51100000000E-03 0. -1.
    9000002    1    1    2    0    0 -0.15165893554E+00 -0.13438384844E-01  0.41287613420E-01  0.95117279710E+00  0.93800000000E+00 0.  1.
         22    1    1    2    0    0  0.13577362691E+00 -0.20884670928E+00  0.21962586379E+01  0.22103401165E+01  0.00000000000E+00 0.  1.
</event>
<event>
 5    1  0.2111786E+001  0.1564448E+01  0.7818608E-02  0.3392878E+00
         11   -1    0    0    0    0  0.00000000000E+00  0.00000000000E+00  0.39999999674E+01  0.40000000000E+01  0.51100000000E-03 0. -1.
    9000002   -1    0    0    0    0 -0.00000000000E+00 -0.00000000000E+00  0.00000000000E+00  0.93800000000E+00  0.93800000000E+00 0. -1.
         11    1    1    2    0    0  0.77537674495E-01  0.11652857593E+00  0.48523282703E+00  0.50501698736E+00  0.51100000000E-03 0. -1.
    9000002    1    1    2    0    0  0.23955039148E+00 -0.99929766500E-01  0.72330269560E-01  0.97593340766E+00  0.93800000000E+00 0. -1.
         22    1    1    2    0    0 -0.31708806597E+00 -0.16598809431E-01  0.34424368708E+01  0.34570496050E+01  0.00000000000E+00 0. -1.
</event>
<event>
 5    1  0.2111786E+001  0.1554890E+01  0.7818608E-02  0.3403828E+00
         11   -1    0    0    0    0  0.00000000000E+00  0.00000000000E+00  0.39999999674E+01  0.40000000000E+01  0.51100000000E-03 0.  1.
    9000002   -1    0    0    0    0 -0.00000000000E+00 -0.00000000000E+00  0.00000000000E+00  0.93800000000E+00  0.93800000000E+00 0.  1.
         11    1    1    2    0    0  0.15061830580E+00  0.11617681608E+00  0.65045155770E+00  0.67769492891E+00  0.51100000000E-03 0.  1.
    9000002    1    1    2    0    0 -0.76467441107E-01  0.87134690523E-01  0.42404140411E-01  0.94608764656E+00  0.93800000000E+00 0.  1.
         22    1    1    2    0    0 -0.74150864692E-01 -0.20331150660E+00  0.33071442692E+01  0.33142174245E+01  0.00000000000E+00 0.  1.
</event>
<event>
 5    1  0.2111786E+001  0.1589444E+01  0.7818608E-02  0.3364900E+00
         11   -1    0    0    0    0  0.00000000000E+00  0.00000000000E+00  0.39999999674E+01  0.40000000000E+01  0.51100000000E-03 0.  1.
    9000002   -1    0    0    0    0 -0.00000000000E+00 -0.00000000000E+00  0.00000000000E+00  0.93800000000E+00  0.93800000000E+00 0.  1.
         11    1    1    2    0    0 -0.85818388856E-01  0.10602268169E+00  0.17636269011E+01  0.17688939234E+01  0.51100000000E-03 0.  1.
    9000002    1    1    2    0    0 -0.69495632717E-01 -0.30564883698E+00  0.73739284700E-01  0.99173198830E+00  0.93800000000E+00 0.  1.
         22    1    1    2    0    0  0.15531402157E+00  0.19962615529E+00  0.21626337816E+01  0.21773740883E+01  0.00000000000E+00 0.  1.
</event>
<event>
 5    1  0.2111786E+001  0.1500368E+01  0.7818608E-02  0.3469147E+00
         11   -1    0    0    0    0  0.00000000000E+00  0.00000000000E+00  0.39999999674E+01  0.40000000000E+01  0.51100000000E-03 0.  1.
    9000002   -1    0    0    0    0 -0.00000000000E+00 -0.00000000000E+00  0.00000000000E+00  0.93800000000E+00  0.93800000000E+00 0. -1.
         11    1    1    2    0    0  0.22493707811E+00  0.17477354859E+00  0.74774081311E+00  0.80016190056E+00  0.51100000000E-03 0.  1.
    9000002    1    1    2    0    0  0.97815711611E-01  0.59354910188E-02  0.82651831458E-01  0.94671984702E+00  0.93800000000E+00 0. -1.
         22    1    1    2    0    0 -0.32275278972E+00 -0.18070903961E+00  0.31696073228E+01  0.31911182524E+01  0.00000000000E+00 0.  1.
</event>
<event>
 5    1  0.2111786E+001  0.1574841E+01  0.7818608E-02  0.3381131E+00
         11   -1    0    0    0    0  0.00000000000E+00  0.00000000000E+00  0.39999999674E+01  0.40000000000E+01  0.51100000000E-03 0. -1.
    9000002   -1    0    0    0    0 -0.00000000000E+00 -0.00000000000E+00  0.00000000000E+00  0.93800000000E+00  0.93800000000E+00 0. -1.
         11    1    1    2    0    0  0.10588112297E+00 -0.79067042394E-01  0.12904371164E+01  0.12971856544E+01  0.51100000000E-03 0. -1.
    9000002    1    1    2    0    0  0.83347959921E-01 -0.11910036988E+00  0.32487603140E-01  0.94975324421E+00  0.93800000000E+00 0. -1.
         22    1    1    2    0    0 -0.18922908289E+00  0.19816741227E+00  0.26770752478E+01  0.26910611014E+01  0.00000000000E+00 0. -1.
</event>
<event>
 5    1  0.2111786E+001  0.1525266E+01  0.7818608E-02  0.3438697E+00
         11   -1    0    0    0    0  0.00000000000E+00  0.00000000000E+00  0.39999999674E+01  0.40000000000E+01  0.51100000000E-03 0.  1.
    9000002   -1    0    0    0    0 -0.00000000000E+00 -0.00000000000E+00  0.00000000000E+00  0.93800000000E+00  0.93800000000E+00 0.  1.
         11    1    1    2    0    0  0.26475805093E+00 -0.44945813926E-01  0.20592343324E+01  0.20766711941E+01  0.51100000000E-03 0.  1.
    9000002    1    1    2    0    0  0.59876296758E-01 -0.18273708036E+00  0.82305551882E-01  0.96103913309E+00  0.93800000000E+00 0.  1.
         22    1    1    2    0    0 -0.32463434769E+00  0.22768289429E+00  0.18584600831E+01  0.19002896728E+01  0.00000000000E+00 0.  1.
</event>
<event>
 5    1  0.2111786E+001  0.1562607E+01  0.7818608E-02  0.3394976E+00
         11   -1    0    0    0    0  0.00000000000E+00  0.00000000000E+00  0.39999999674E+01  0.40000000000E+01  0.51100000000E-03 0. -1.
    9000002   -1    0    0    0    0 -0.00000000000E+00 -0.00000000000E+00  0.00000000000E+00  0.93800000000E+00  0.93800000000E+00 0. -1.
         11    1    1    2    0    0  0.61007296059E-01  0.18048843642E+00  0.94348576675E+00  0.96252980163E+00  0.51100000000E-03 0. -1.
    9000002    1    1    2    0    0 -0.10758391461E+00  0.58944205776E-01  0.37617463332E-01  0.94673533346E+00  0.93800000000E+00 0. -1.
         22    1    1    2    0    0  0.46576618548E-01 -0.23943264219E+00  0.30188967373E+01  0.30287348649E+01  0.00000000000E+00 0. -1.
</event>
<event>
 5    1  0.2111786E+001  0.1575207E+01  0.7818608E-02  0.3380720E+00
         11   -1    0    0    0    0  0.00000000000E+00  0.00000000000E+00  0.39999999674E+01  0.40000000000E+01  0.51100000000E-03 0.  1.
    9000002   -1    0    0    0    0 -0.00000000000E+00 -0.00000000000E+00  0.00000000000E+00  0.93800000000E+00  0.93800000000E+00 0.  1.
         11    1    1    2    0    0  0.15413840868E+00 -0.36707996931E-01  0.14609313883E+01  0.14694988630E+01  0.51100000000E-03 0.  1.
    9000002    1    1    2    0    0 -0.74541369154E-01 -0.25320146500E+00  0.65389759867E-01  0.97662030405E+00  0.93800000000E+00 0.  1.
         22    1    1    2    0    0 -0.79597039525E-01  0.28990946194E+00  0.24736788192E+01  0.24918808329E+01  0.00000000000E+00 0.  1.
</event>
<event>
 5    1  0.2111786E+001  0.1563669E+01  0.7818608E-02  0.3393765E+00
         11   -1    0    0    0    0  0.00000000000E+00  0.00000000000E+00  0.39999999674E+01  0.40000000000E+01  0.51100000000E-03 0.  1.
    9000002   -1    0    0    0    0 -0.00000000000E+00 -0.00000000000E+00  0.00000000000E+00  0.93800000000E+00  0.93800000000E+00 0.  1.
         11    1    1    2    0    0  0.27634004932E-01 -0.20725450594E+00  0.18967273594E+01  0.19082172323E+01  0.51100000000E-03 0.  1.
    9000002    1    1    2    0    0  0.72791233968E-01 -0.25407340085E-01  0.30583491967E-01  0.94165994215E+00  0.93800000000E+00 0.  1.
         22    1    1    2    0    0 -0.10042523890E+00  0.23266184603E+00  0.20726891160E+01  0.20881228256E+01  0.00000000000E+00 0.  1.
</event>
<event>
 5    1  0.2111786E+001  0.1580884E+01  0.7818608E-02  0.3374376E+00
         11   -1    0    0    0    0  0.00000000000E+00  0.00000000000E+00  0.39999999674E+01  0.40000000000E+01  0.51100000000E-03 0.  1.
    9000002   -1    0    0    0    0 -0.00000000000E+00 -0.00000000000E+00  0.00000000000E+00  0.93800000000E+00  0.93800000000E+00 0. -1.
         11    1    1    2    0    0  0.37926869889E-01  0.58146347107E-01  0.17071968356E+01  0.17086078374E+01  0.51100000000E-03 0.  1.
    9000002    1    1    2    0    0  0.24246019542E+00  0.50060288597E-01  0.55195320084E-01  0.97169105286E+00  0.93800000000E+00 0. -1.
         22    1    1    2    0    0 -0.28038706530E+00 -0.10820663570E+00  0.22376078116E+01  0.22577011098E+01  0.00000000000E+00 0.  1.
</event>
<event>
 5    1  0.2111786E+001  0.1558557E+01  0.7818608E-02  0.3399610E+00
         11   -1    0    0    0    0  0.00000000000E+00  0.00000000000E+00  0.39999999674E+01  0.40000000000E+01  0.51100000000E-03 0.  1.
    9000002   -1    0    0    0    0 -0.00000000000E+00 -0.00000000000E+00  0.00000000000E+00  0.93800000000E+00  0.93800000000E+00 0.  1.
         11    1    1    2    0    0 -0.12408950653E+00  0.20360074647E+00  0.13719516303E+01  0.13925167886E+01  0.51100000000E-03 0.  1.
    9000002    1    1    2    0    0  0.18737882468E-01 -0.94899116509E-02  0.30674513226E-01  0.93873643395E+00  0.93800000000E+00 0.  1.
         22    1    1    2    0    0  0.10535162406E+00 -0.19411083482E+00  0.25973738239E+01  0.26067467775E+01  0.00000000000E+00 0.  1.
</event>
<event>
 5    1  0.2111786E+001  0.1479623E+01  0.7818608E-02  0.3495360E+00
         11   -1    0    0    0    0  0.00000000000E+00  0.00000000000E+00  0.39999999674E+01  0.40000000000E+01  0.51100000000E-03 0. -1.
    9000002   -1    0    0    0    0 -0.00000000000E+00 -0.00000000000E+00  0.00000000000E+00  0.93800000000E+00  0.93800000000E+00 0.  1.
         11    1    1    2    0    0 -0.82324424862E-01  0.25242475827E+00  0.48953764111E+00  0.55690477885E+00  0.51100000000E-03 0. -1.
    9000002    1    1    2    0    0 -0.23211367200E+00  0.57924853397E-01  0.13564725176E+00  0.97748464043E+00  0.93800000000E+00 0.  1.
         22    1    1    2    0    0  0.31443809686E+00 -0.31034961167E+00  0.33748150745E+01  0.34036105807E+01  0.00000000000E+00 0. -1.
</event>
<event>
 5    1  0.2111786E+001  0.1554054E+01  0.7818608E-02  0.3404793E+00
         11   -1    0    0    0    0  0.00000000000E+00  0.00000000000E+00  0.39999999674E+01  0.40000000000E+01  0.51100000000E-03 0.  1.
    9000002   -1    0    0    0    0 -0.00000000000E+00 -0.00000000000E+00  0.00000000000E+00  0.93800000000E+00  0.93800000000E+00 0.  1.
         11    1    1    2    0    0 -0.35604359089E-01 -0.26786188285E+00  0.22564112324E+01  0.22725337334E+01  0.51100000000E-03 0.  1.
    9000002    1    1    2    0    0 -0.10016713987E+00  0.54137239588E-01  0.42716433669E-01  0.94585040589E+00  0.93800000000E+00 0.  1.
         22    1    1    2    0    0  0.13577149896E+00  0.21372464326E+00  0.17008723013E+01  0.17196158607E+01  0.00000000000E+00 0.  1.
</event>
<event>
 5    1  0.2111786E+001  0.1548420E+01  0.7818608E-02  0.3411322E+00
         11   -1    0    0    0    0  0.00000000000E+00  0.00000000000E+00  0.39999999674E+01  0.40000000000E+01  0.51100000000E-03 0. -1.
    9000002   -1    0    0    0    0 -0.00000000000E+00 -0.00000000000E+00  0.00000000000E+00  0.93800000000E+00  0.93800000000E+00 0. -1.
         11    1    1    2    0    0  0.40392724541E-01 -0.56137292181E+00  0.11930136465E+01  0.13191106669E+01  0.51100000000E-03 0. -1.
    9000002    1    1    2    0    0 -0.28600695136E+00  0.83255055091E+00  0.66923612856E+00  0.14500556513E+01  0.93800000000E+00 0. -1.
         22    1    1    2    0    0  0.24561422682E+00 -0.27117762910E+00  0.21377501923E+01  0.21688336818E+01  0.00000000000E+00 0. -1.
</event>
<event>
 5    1  0.2111786E+001  0.1560956E+01  0.7818608E-02  0.3396862E+00
         11   -1    0    0    0    0  0.00000000000E+00  0.00000000000E+00  0.39999999674E+01  0.40000000000E+01  0.51100000000E-03 0.  1.
    9000002   -1    0    0    0    0 -0.00000000000E+00 -0.00000000000E+00  0.00000000000E+00  0.93800000000E+00  0.93800000000E+00 0. -1.
         11    1    1    2    0    0 -0.54964186648E-01 -0.23767319963E+00  0.11895911355E+01  0.12143463025E+01  0.51100000000E-03 0.  1.
    9000002    1    1    2    0    0  0.16403210256E+00  0.66349725000E-01  0.50072178127E-01  0.95585565840E+00  0.93800000000E+00 0. -1.
         22    1    1    2    0    0 -0.10906791591E+00  0.17132347463E+00  0.27603366537E+01  0.27677980391E+01  0.00000000000E+00 0.  1.
</event>
<event>
 5    1  0.2111786E+001  0.1551151E+01  0.7818608E-02  0.3408151E+00
         11   -1    0    0    0    0  0.00000000000E+00  0.00000000000E+00  0.39999999674E+01  0.40000000000E+01  0.51100000000E-03 0. -1.
    9000002   -1    0    0    0    0 -0.00000000000E+00 -0.00000000000E+00  0.00000000000E+00  0.93800000000E+00  0.93800000000E+00 0. -1.
         11    1    1    2    0    0 -0.75800434800E-01  0.28048842194E+00  0.30496032589E+01  0.30634130898E+01  0.51100000000E-03 0. -1.
    9000002    1    1    2    0    0  0.98850861289E-01 -0.74374272986E-01  0.46567592136E-01  0.94726742048E+00  0.93800000000E+00 0. -1.
         22    1    1    2    0    0 -0.23050426489E-01 -0.20611414895E+00  0.90382911631E+00  0.92731948974E+00  0.00000000000E+00 0. -1.
</event>
<event>
 5    1  0.2111786E+001  0.1477805E+01  0.7818608E-02  0.3497696E+00
         11   -1    0    0    0    0  0.00000000000E+00  0.00000000000E+00  0.39999999674E+01  0.40000000000E+01  0.51100000000E-03 0. -1.
    9000002   -1    0    0    0    0 -0.00000000000E+00 -0.00000000000E+00  0.00000000000E+00  0.93800000000E+00  0.93800000000E+00 0. -1.
         11    1    1    2    0    0 -0.11735563309E-01 -0.14117202752E+00  0.29138750670E+01  0.29173164779E+01  0.51100000000E-03 0. -1.
    9000002    1    1    2    0    0  0.13432063012E+00 -0.28126811586E+00  0.16797144349E+00  0.10026027082E+01  0.93800000000E+00 0. -1.
         22    1    1    2    0    0 -0.12258506681E+00  0.42244014338E+00  0.91815345688E+00  0.10180808139E+01  0.00000000000E+00 0. -1.
</event>
<event>
 5    1  0.2111786E+001  0.1559869E+01  0.7818608E-02  0.3398107E+00
         11   -1    0    0    0    0  0.00000000000E+00  0.00000000000E+00  0.39999999674E+01  0.40000000000E+01  0.51100000000E-03 0. -1.
    9000002   -1    0    0    0    0 -0.00000000000E+00 -0.00000000000E+00  0.00000000000E+00  0.93800000000E+00  0.93800000000E+00 0. -1.
         11    1    1    2    0    0 -0.15077217590E+00 -0.15105975177E+00  0.28988456512E+01  0.29066918770E+01  0.51100000000E-03 0. -1.
    9000002    1    1    2    0    0 -0.48553219587E-01  0.64204560060E-01  0.33822136985E-01  0.94205497590E+00  0.93800000000E+00 0. -1.
         22    1    1    2    0    0  0.19932539549E+00  0.86855191710E-01  0.10673321792E+01  0.10892531471E+01  0.00000000000E+00 0.  1.
</event>
<event>
 5    1  0.2111786E+001  0.1584392E+01  0.7818608E-02  0.3370480E+00
         11   -1    0    0    0    0  0.00000000000E+00  0.00000000000E+00  0.39999999674E+01  0.40000000000E+01  0.51100000000E-03 0. -1.
    9000002   -1    0    0    0    0 -0.00000000000E+00 -0.00000000000E+00  0.00000000000E+00  0.93800000000E+00  0.93800000000E+00 0.  1.
         11    1    1    2    0    0  0.25283210502E-01 -0.64845600633E-01  0.30663734724E+00  0.31443746039E+00  0.51100000000E-03 0. -1.
    9000002    1    1    2    0    0  0.80678844059E-01 -0.10779828884E+00  0.23286906888E-01  0.94790074744E+00  0.93800000000E+00 0.  1.
         22    1    1    2    0    0 -0.10596205456E+00  0.17264388947E+00  0.36700757132E+01  0.36756617922E+01  0.00000000000E+00 0. -1.
</event>
<event>
 5    1  0.2111786E+001  0.1595249E+01  0.7818608E-02  0.3358536E+00
         11   -1    0    0    0    0  0.00000000000E+00  0.00000000000E+00  0.39999999674E+01  0.40000000000E+01  0.51100000000E-03 0. -1.
    9000002   -1    0    0    0    0 -0.00000000000E+00 -0.00000000000E+00  0.00000000000E+00  0.93800000000E+00  0.93800000000E+00 0.  1.
         11    1    1    2    0    0 -0.33322771361E+00  0.82575180595E-01  0.17412676946E+01  0.17747881042E+01  0.51100000000E-03 0. -1.
    9000002    1    1    2    0    0  0.54636405717E+00 -0.17471524445E+00  0.23261116818E+00  0.11238287482E+01  0.93800000000E+00 0.  1.
         22    1    1    2    0    0 -0.21313634356E+00  0.92140063851E-01  0.20261211046E+01  0.20393831477E+01  0.00000000000E+00 0.  1.
</event>
<event>
 5    1  0.2111786E+001  0.1497766E+01  0.7818608E-02  0.3472392E+00
         11   -1    0    0    0    0  0.00000000000E+00  0.00000000000E+00  0.39999999674E+01  0.40000000000E+01  0.51100000000E-03 0. -1.
    9000002   -1    0    0    0    0 -0.00000000000E+00 -0.00000000000E+00  0.00000000000E+00  0.93800000000E+00  0.93800000000E+00 0. -1.
         11    1    1    2    0    0 -0.37544836336E+00  0.19625996220E+00  0.20600728595E+01  0.21031832764E+01  0.51100000000E-03 0. -1.
    9000002    1    1    2    0    0  0.79170393902E-01 -0.13785780699E-01  0.82462230722E-01  0.94504074966E+00  0.93800000000E+00 0. -1.
         22    1    1    2    0    0  0.29627796946E+00 -0.18247418150E+00  0.18574648771E+01  0.18897759740E+01  0.00000000000E+00 0.  1.
</event>
<event>
 5    1  0.2111786E+001  0.1551677E+01  0.7818608E-02  0.3407541E+00
         11   -1    0    0    0    0  0.00000000000E+00  0.00000000000E+00  0.39999999674E+01  0.40000000000E+01  0.51100000000E-03 0.  1.
    9000002   -1    0    0    0    0 -0.00000000000E+00 -0.00000000000E+00  0.00000000000E+00  0.93800000000E+00  0.93800000000E+00 0.  1.
         11    1    1    2    0    0  0.19608860006E+00 -0.18702850157E+00  0.29332980832E+01  0.29457882316E+01  0.51100000000E-03 0.  1.
    9000002    1    1    2    0    0 -0.18412648139E+00 -0.48127350967E-01  0.60713831936E-01  0.95903543858E+00  0.93800000000E+00 0.  1.
         22    1    1    2    0    0 -0.11962118669E-01  0.23515585254E+00  0.10059880522E+01  0.10331763298E+01  0.00000000000E+00 0.  1.
</event>
<event>
 5    1  0.2111786E+001  0.1580874E+01  0.7818608E-02  0.3374388E+00
         11   -1    0    0    0    0  0.00000000000E+00  0.00000000000E+00  0.39999999674E+01  0.40000000000E+01  0.51100000000E-03 0.  1.
    9000002   -1    0    0    0    0 -0.00000000000E+00 -0.00000000000E+00  0.00000000000E+00  0.93800000000E+00  0.93800000000E+00 0. -1.
         11    1    1    2    0    0  0.21975969349E+00 -0.57431730476E-01  0.13332366808E+01  0.13524470543E+01  0.51100000000E-03 0.  1.
    9000002    1    1    2    0    0 -0.21221795594E+00  0.32783661304E+00  0.11845993559E+00  0.10229320906E+01  0.93800000000E+00 0. -1.
         22    1    1    2    0    0 -0.75417375510E-02 -0.27040488256E+00  0.25483033510E+01  0.25626208551E+01  0.00000000000E+00 0.  1.
</event>
<event>
 5    1  0.2111786E+001  0.1570013E+01  0.7818608E-02  0.3386568E+00
         11   -1    0    0    0    0  0.00000000000E+00  0.00000000000E+00  0.39999999674E+01  0.40000000000E+01  0.51100000000E-03 0.  1.
    9000002   -1    0    0    0    0 -0.00000000000E+00 -0.00000000000E+00  0.00000000000E+00  0.93800000000E+00  0.93800000000E+00 0. -1.
         11    1    1    2    0    0  0.15393076696E+00 -0.14199728387E-01  0.97638736825E+00  0.98854886945E+00  0.51100000000E-03 0.  1.
    9000002    1    1    2    0    0  0.96650498629E-01 -0.14751112937E-01  0.28269244986E-01  0.94350520106E+00  0.93800000000E+00 0. -1.
         22    1    1    2    0    0 -0.25058126559E+00  0.28950841325E-01  0.29953433541E+01  0.30059459295E+01  0.00000000000E+00 0.  1.
</event>
<event>
 5    1  0.2111786E+001  0.1581964E+01  0.7818608E-02  0.3373174E+00
         11   -1    0    0    0    0  0.00000000000E+00  0.00000000000E+00  0.39999999674E+01  0.40000000000E+01  0.51100000000E-03 0. -1.
    9000002   -1    0    0    0    0 -0.00000000000E+00 -0.00000000000E+00  0.00000000000E+00  0.93800000000E+00  0.93800000000E+00 0.  1.
         11    1    1    2    0    0  0.89015425749E-02 -0.16983825825E+00  0.15879940424E+01  0.15970753305E+01  0.51100000000E-03 0. -1.
    9000002    1    1    2    0    0  0.18085782677E+00  0.88851659021E-01  0.40283541342E-01  0.96024524707E+00  0.93800000000E+00 0.  1.
         22    1    1    2    0    0 -0.18975936934E+00  0.80986599229E-01  0.23717223836E+01  0.23806794225E+01  0.00000000000E+00 0. -1.
</event>
<event>
 5    1  0.2111786E+001  0.1551346E+01  0.7818608E-02  0.3407925E+00
         11   -1    0    0    0    0  0.00000000000E+00  0.00000000000E+00  0.39999999674E+01  0.40000000000E+01  0.51100000000E-03 0. -1.
    9000002   -1    0    0    0    0 -0.00000000000E+00 -0.00000000000E+00  0.00000000000E+00  0.93800000000E+00  0.93800000000E+00 0. -1.
         11    1    1    2    0    0  0.14311103687E+00 -0.21920504116E+00  0.15304187749E+01  0.15526472576E+01  0.51100000000E-03 0. -1.
    9000002    1    1    2    0    0  0.96999950238E-01  0.91090610365E-01  0.48084922023E-01  0.94861090515E+00  0.93800000000E+00 0. -1.
         22    1    1    2    0    0 -0.24011098711E+00  0.12811443080E+00  0.24214962704E+01  0.24367418372E+01  0.00000000000E+00 0. -1.
</event>
<event>
 5    1  0.2111786E+001  0.1482456E+01  0.7818608E-02  0.3491735E+00
         11   -1    0    0    0    0  0.00000000000E+00  0.00000000000E+00  0.39999999674E+01  0.40000000000E+01  0.51100000000E-03 0.  1.
    9000002   -1    0    0    0    0 -0.00000000000E+00 -0.00000000000E+00  0.00000000000E+00  0.93800000000E+00  0.93800000000E+00 0. -1.
         11    1    1    2    0    0 -0.20682645108E+00 -0.52502630755E+00  0.18522603222E+01  0.19363105037E+01  0.51100000000E-03 0.  1.
    9000002    1    1    2    0    0  0.18420370696E+00  0.26658967398E+00  0.16980717801E+00  0.10068165362E+01  0.93800000000E+00 0. -1.
         22    1    1    2    0    0  0.22622744116E-01  0.25843663357E+00  0.19779324672E+01  0.19948729601E+01  0.00000000000E+00 0.  1.
</event>
<event>
 5    1  0.2111786E+001  0.1568358E+01  0.7818608E-02  0.3388439E+00
         11   -1    0    0    0    0  0.00000000000E+00  0.00000000000E+00  0.39999999674E+01  0.40000000000E+01  0.51100000000E-03 0. -1.
    9000002   -1    0    0    0    0 -0.00000000000E+00 -0.00000000000E+00  0.00000000000E+00  0.93800000000E+00  0.93800000000E+00 0. -1.
         11    1    1    2    0    0 -0.35036495372E+00  0.21632921756E+00  0.17320668421E+01  0.17803397816E+01  0.51100000000E-03 0. -1.
    9000002    1    1    2    0    0  0.54635407175E+00 -0.59681584193E-01  0.23879979167E+00  0.11130741232E+01  0.93800000000E+00 0. -1.
         22    1    1    2    0    0 -0.19598911803E+00 -0.15664763337E+00  0.20291333336E+01  0.20445860953E+01  0.00000000000E+00 0. -1.
</event>
<event>
 5    1  0.2111786E+001  0.1460750E+01  0.7818608E-02  0.3519910E+00
         11   -1    0    0    0    0  0.00000000000E+00  0.00000000000E+00  0.39999999674E+01  0.40000000000E+01  0.51100000000E-03 0.  1.
    9000002   -1    0    0    0    0 -0.00000000000E+00 -0.00000000000E+00  0.00000000000E+00  0.93800000000E+00  0.93800000000E+00 0.  1.
         11    1    1    2    0    0  0.54956454059E+00  0.22319010958E+00  0.13965512715E+01  0.15172971773E+01  0.51100000000E-03 0.  1.
    9000002    1    1    2    0    0 -0.34511435297E+00 -0.25690845853E+00  0.25483133781E+00  0.10629623151E+01  0.93800000000E+00 0.  1.
         22    1    1    2    0    0 -0.20445018762E+00  0.33718348950E-01  0.23486173581E+01  0.23577405075E+01  0.00000000000E+00 0.  1.
</event>
<event>
 5    1  0.2111786E+001  0.1572625E+01  0.7818608E-02  0.3383622E+00
         11   -1    0    0    0    0  0.00000000000E+00  0.00000000000E+00  0.39999999674E+01  0.40000000000E+01  0.51100000000E-03 0.  1.
    9000002   -1    0    0    0    0 -0.00000000000E+00 -0.00000000000E+00  0.00000000000E+00  0.93800000000E+00  0.93800000000E+00 0. -1.
         11    1    1    2    0    0 -0.96590072642E-01  0.20488349622E+00  0.97713161283E+00  0.10030420425E+01  0.51100000000E-03 0.  1.
    9000002    1    1    2    0    0  0.33232908991E+00 -0.13120652511E+00  0.10787958136E+00  0.10095245318E+01  0.93800000000E+00 0. -1.
         22    1    1    2    0    0 -0.23573901727E+00 -0.73676971109E-01  0.29149887732E+01  0.29254334257E+01  0.00000000000E+00 0.  1.
</event>
<event>
 5    1  0.2111786E+001  0.1520211E+01  0.7818608E-02  0.3444793E+00
         11   -1    0    0    0    0  0.00000000000E+00  0.00000000000E+00  0.39999999674E+01  0.40000000000E+01  0.51100000000E-03 0. -1.
    9000002   -1    0    0    0    0 -0.00000000000E+00 -0.00000000000E+00  0.00000000000E+00  0.93800000000E+00  0.93800000000E+00 0.  1.
         11    1    1    2    0    0 -0.35614231511E+00  0.97746527462E-01  0.14402660587E+01  0.14868619012E+01  0.51100000000E-03 0. -1.
    9000002    1    1    2    0    0  0.12323637503E+00  0.16266661550E-01  0.70923738441E-01  0.94885509172E+00  0.93800000000E+00 0.  1.
         22    1    1    2    0    0  0.23290594007E+00 -0.11401318901E+00  0.24888101702E+01  0.25022830071E+01  0.00000000000E+00 0. -1.
</event>
<event>
 5    1  0.2111786E+001  0.1516482E+01  0.7818608E-02  0.3449318E+00
         11   -1    0    0    0    0  0.00000000000E+00  0.00000000000E+00  0.39999999674E+01  0.40000000000E+01  0.51100000000E-03 0. -1.
    9000002   -1    0    0    0    0 -0.00000000000E+00 -0.00000000000E+00  0.00000000000E+00  0.93800000000E+00  0.93800000000E+00 0. -1.
         11    1    1    2    0    0  0.23105383882E+00  0.41928429692E+00  0.15725515442E+01  0.16438077194E+01  0.51100000000E-03 0. -1.
    9000002    1    1    2    0    0 -0.25300340909E-01 -0.37990974251E+00  0.16935187373E+00  0.10263993262E+01  0.93800000000E+00 0. -1.
         22    1    1    2    0    0 -0.20575349791E+00 -0.39374554410E-01  0.22580965494E+01  0.22677929544E+01  0.00000000000E+00 0. -1.
</event>
<event>
 5    1  0.2111786E+001  0.1549966E+01  0.7818608E-02  0.3409526E+00
         11   -1    0    0    0    0  0.00000000000E+00  0.00000000000E+00  0.39999999674E+01  0.40000000000E+01  0.51100000000E-03 0. -1.
    9000002   -1    0    0    0    0 -0.00000000000E+00 -0.00000000000E+00  0.00000000000E+00  0.93800000000E+00  0.93800000000E+00 0.  1.
         11    1    1    2    0    0 -0.10212859119E+00  0.18421400435E+00  0.13338605380E+01  0.13503885532E+01  0.51100000000E-03 0. -1.
    9000002    1    1    2    0    0 -0.10682074913E+00  0.84743386256E-01  0.49766848022E-01  0.94916429195E+00  0.93800000000E+00 0.  1.
         22    1    1    2    0    0  0.20894934032E+00 -0.26895739060E+00  0.26163725813E+01  0.26384471549E+01  0.00000000000E+00 0. -1.
</event>
<event>
 5    1  0.2509602E+001  0.1565892E+01  0.7818608E-02  0.3391236E+00
         11   -1    0    0    0    0  0.00000000000E+00  0.00000000000E+00  0.39999999674E+01  0.40000000000E+01  0.51100000000E-03 0. -1.
    9000002   -1    0    0    0    0 -0.00000000000E+00 -0.00000000000E+00  0.00000000000E+00  0.93800000000E+00  0.93800000000E+00 0.  1.
         11    1    1    2    0    0  0.21364685570E+00  0.16361442388E-01  0.13342380531E+01  0.13513341996E+01  0.51100000000E-03 0. -1.
    9000002    1    1    2    0    0 -0.13786127374E-01 -0.35105608876E-01  0.25830297814E-01  0.93911323352E+00  0.93800000000E+00 0.  1.
         22    1    1    2    0    0 -0.19986072832E+00  0.18744166488E-01  0.26399316165E+01  0.26475525669E+01  0.00000000000E+00 0. -1.
</event>
<event>
 5    1  0.2111786E+001  0.1537493E+01  0.7818608E-02  0.3424131E+00
         11   -1    0    0    0    0  0.00000000000E+00  0.00000000000E+00  0.39999999674E+01  0.40000000000E+01  0.51100000000E-03 0. -1.
    9000002   -1    0    0    0    0 -0.00000000000E+00 -0.00000000000E+00  0.00000000000E+00  0.93800000000E+00  0.93800000000E+00 0. -1.
         11    1    1    2    0    0 -0.86300727403E-01  0.26586142870E+00  0.11754713657E+01  0.12082480323E+01  0.51100000000E-03 0. -1.
    9000002    1    1    2    0    0  0.81976498995E-01  0.71319125325E-02  0.51175588037E-01  0.94299202084E+00  0.93800000000E+00 0. -1.
         22    1    1    2    0    0  0.43242284081E-02 -0.27299334124E+00  0.27733530136E+01  0.27867599468E+01  0.00000000000E+00 0. -1.
</event>
<event>
 5    1  0.2111786E+001  0.1546466E+01  0.7818608E-02  0.3413599E+00
         11   -1    0    0    0    0  0.00000000000E+00  0.00000000000E+00  0.39999999674E+01  0.40000000000E+01  0.51100000000E-03 0. -1.
    9000002   -1    0    0    0    0 -0.00000000000E+00 -0.00000000000E+00  0.00000000000E+00  0.93800000000E+00  0.93800000000E+00 0. -1.
         11    1    1    2    0    0 -0.45239352405E-01  0.32112323078E+00  0.17776495943E+01  0.18069878443E+01  0.51100000000E-03 0. -1.
    9000002    1    1    2    0    0  0.13428546465E+00 -0.10006682396E+00  0.59088831218E-01  0.95466300088E+00  0.93800000000E+00 0. -1.
         22    1    1    2    0    0 -0.89046112247E-01 -0.22105640682E+00  0.21632615419E+01  0.21763491548E+01  0.00000000000E+00 0. -1.
</event>
