<event>
 5    1  0.2804411E-003  0.1685963E+03  0.7818608E-02  0.1188067E+00
         11   -1    0    0    0    0  0.00000000000E+00  0.00000000000E+00  0.10002251389E+04  0.10002251389E+04  0.51100000000E-03 0. -1.
          2   -1    0    0  501    0 -0.00000000000E+00 -0.00000000000E+00 -0.27082702924E+02  0.27082703044E+02  0.25500000000E-02 0. -1.
         11    1    1    2    0    0  0.83920271929E+02 -0.11847807018E+03  0.41748104205E+03  0.44200688414E+03  0.51100000000E-03 0. -1.
         22    1    1    2    0    0  0.22644920434E+02 -0.16181543821E+01  0.86342077366E+02  0.89276901654E+02  0.00000000000E+00 0. -1.
          2    1    1    2  501    0 -0.10656519236E+03  0.12009622456E+03  0.46931931654E+03  0.49602405613E+03  0.25500000000E-02 0. -1.
<mgrwt>
<rscale>  0 0.16055916E+03</rscale>
<asrwt>0</asrwt>
<pdfrwt beam="1">  1       11 0.10000000E+01 0.16859634E+03</pdfrwt>
<pdfrwt beam="2">  1        2 0.41675076E-02 0.16055916E+03</pdfrwt>
<totfact> 0.23623130E+03</totfact>
</mgrwt>
</event>
<event>
 5    1  0.2804411E-003  0.4552840E+02  0.7818608E-02  0.1471070E+00
         11   -1    0    0    0    0  0.00000000000E+00  0.00000000000E+00  0.10002169726E+04  0.10002169726E+04  0.51100000000E-03 0. -1.
          2   -1    0    0  501    0 -0.00000000000E+00 -0.00000000000E+00 -0.91296829160E+01  0.91296832721E+01  0.25500000000E-02 0. -1.
         11    1    1    2    0    0  0.29589104238E+02  0.33347978010E+02  0.58204682841E+02  0.73317036436E+02  0.51100000000E-03 0. -1.
         22    1    1    2    0    0  0.11107060180E+02  0.78689963100E+01  0.77358873870E+02  0.78547331306E+02  0.00000000000E+00 0. -1.
          2    1    1    2  501    0 -0.40696164417E+02 -0.41216974320E+02  0.85552373301E+03  0.85748228817E+03  0.25500000000E-02 0. -1.
<mgrwt>
<rscale>  0 0.45528395E+02</rscale>
<asrwt>0</asrwt>
<pdfrwt beam="1">  1       11 0.10000000E+01 0.13612049E+02</pdfrwt>
<pdfrwt beam="2">  1        2 0.14048713E-02 0.45528395E+02</pdfrwt>
<totfact> 0.86097714E+03</totfact>
</mgrwt>
</event>
<event>
 5    1  0.2804411E-003  0.1734321E+03  0.7818608E-02  0.1176034E+00
         11   -1    0    0    0    0  0.00000000000E+00  0.00000000000E+00  0.10002292155E+04  0.10002292155E+04  0.51100000000E-03 0. -1.
          2   -1    0    0  501    0 -0.00000000000E+00 -0.00000000000E+00 -0.12008314283E+03  0.12008314285E+03  0.25500000000E-02 0. -1.
         11    1    1    2    0    0 -0.15137516055E+03  0.36393604264E+01  0.82104149413E+03  0.83488730931E+03  0.51100000000E-03 0. -1.
         22    1    1    2    0    0 -0.20316866887E+02 -0.81274433839E+01  0.10531669311E+03  0.10756596239E+03  0.00000000000E+00 0.  1.
          2    1    1    2  501    0  0.17169202743E+03  0.44880829575E+01 -0.46212114550E+02  0.17785908667E+03  0.25500000000E-02 0. -1.
<mgrwt>
<rscale>  0 0.17175068E+03</rscale>
<asrwt>0</asrwt>
<pdfrwt beam="1">  1       11 0.10000000E+01 0.17343206E+03</pdfrwt>
<pdfrwt beam="2">  1        2 0.18478564E-01 0.17175068E+03</pdfrwt>
<totfact> 0.37053254E+02</totfact>
</mgrwt>
</event>
<event>
 5    1  0.2804411E-003  0.1238468E+03  0.7818608E-02  0.1236883E+00
         11   -1    0    0    0    0  0.00000000000E+00  0.00000000000E+00  0.10001852378E+04  0.10001852378E+04  0.51100000000E-03 0.  1.
         -2   -1    0    0    0  501 -0.00000000000E+00 -0.00000000000E+00 -0.45344263059E+02  0.45344263131E+02  0.25500000000E-02 0. -1.
         11    1    1    2    0    0 -0.11627368591E+03  0.22132352906E+02  0.61413875219E+03  0.62544049919E+03  0.51100000000E-03 0.  1.
         22    1    1    2    0    0  0.10018581350E+02  0.45619409743E+02  0.27313615131E+03  0.27710081138E+03  0.00000000000E+00 0.  1.
         -2    1    1    2    0  501  0.10625510456E+03 -0.67751762649E+02  0.67566071199E+02  0.14298819032E+03  0.25500000000E-02 0. -1.
<mgrwt>
<rscale>  0 0.12384678E+03</rscale>
<asrwt>0</asrwt>
<pdfrwt beam="1">  1       11 0.10000000E+01 0.46706558E+02</pdfrwt>
<pdfrwt beam="2">  1       -2 0.69773325E-02 0.12384678E+03</pdfrwt>
<totfact> 0.88544722E+02</totfact>
</mgrwt>
</event>
<event>
 5    1  0.2804411E-003  0.4427388E+02  0.7818608E-02  0.1487821E+00
         11   -1    0    0    0    0  0.00000000000E+00  0.00000000000E+00  0.10001005409E+04  0.10001005409E+04  0.51100000000E-03 0. -1.
          2   -1    0    0  501    0 -0.00000000000E+00 -0.00000000000E+00 -0.27742889200E+01  0.27742900919E+01  0.25500000000E-02 0. -1.
         11    1    1    2    0    0  0.11629544030E+02 -0.45581547006E+01  0.49370571444E+02  0.50926185736E+02  0.51100000000E-03 0. -1.
         22    1    1    2    0    0  0.21384601134E+02 -0.22853867737E+02  0.17317903530E+03  0.17598459792E+03  0.00000000000E+00 0. -1.
          2    1    1    2  501    0 -0.33014145164E+02  0.27412022438E+02  0.77477664521E+03  0.77596404732E+03  0.25500000000E-02 0. -1.
<mgrwt>
<rscale>  0 0.42910986E+02</rscale>
<asrwt>0</asrwt>
<pdfrwt beam="1">  1       11 0.10000000E+01 0.44273878E+02</pdfrwt>
<pdfrwt beam="2">  1        2 0.42685667E-03 0.42910986E+02</pdfrwt>
<totfact> 0.41988344E+04</totfact>
</mgrwt>
</event>
<event>
 5    1  0.2804411E-003  0.2106306E+03  0.7818608E-02  0.1142333E+00
         11   -1    0    0    0    0  0.00000000000E+00  0.00000000000E+00  0.10003121460E+04  0.10003121460E+04  0.51100000000E-03 0. -1.
          2   -1    0    0  501    0 -0.00000000000E+00 -0.00000000000E+00 -0.67331762548E+02  0.67331762597E+02  0.25500000000E-02 0. -1.
         11    1    1    2    0    0  0.15540102878E+03  0.12000401028E+03  0.72167995966E+03  0.74791203120E+03  0.51100000000E-03 0. -1.
         22    1    1    2    0    0  0.60078668782E+01  0.12821447062E+02  0.60100112812E+02  0.61745506146E+02  0.00000000000E+00 0. -1.
          2    1    1    2  501    0 -0.16140889566E+03 -0.13282545734E+03  0.15120031102E+03  0.25798637130E+03  0.25500000000E-02 0. -1.
<mgrwt>
<rscale>  0 0.20903453E+03</rscale>
<asrwt>0</asrwt>
<pdfrwt beam="1">  1       11 0.10000000E+01 0.21063059E+03</pdfrwt>
<pdfrwt beam="2">  1        2 0.10361966E-01 0.20903453E+03</pdfrwt>
<totfact> 0.74488482E+02</totfact>
</mgrwt>
</event>
<event>
 5    1  0.2804411E-003  0.2369893E+03  0.7818608E-02  0.1123920E+00
         11   -1    0    0    0    0  0.00000000000E+00  0.00000000000E+00  0.10003032996E+04  0.10003032996E+04  0.51100000000E-03 0. -1.
          2   -1    0    0  501    0 -0.00000000000E+00 -0.00000000000E+00 -0.14935173759E+03  0.14935173761E+03  0.25500000000E-02 0. -1.
         11    1    1    2    0    0  0.20904272037E+03  0.71053284894E+02  0.81960970866E+03  0.84882713362E+03  0.51100000000E-03 0. -1.
         22    1    1    2    0    0  0.15368238334E+02 -0.50852185638E+01  0.62766500517E+02  0.64820334653E+02  0.00000000000E+00 0. -1.
          2    1    1    2  501    0 -0.22441095871E+03 -0.65968066330E+02 -0.31424647120E+02  0.23600756898E+03  0.25500000000E-02 0. -1.
<mgrwt>
<rscale>  0 0.23390610E+03</rscale>
<asrwt>0</asrwt>
<pdfrwt beam="1">  1       11 0.10000000E+01 0.23698929E+03</pdfrwt>
<pdfrwt beam="2">  1        2 0.22984159E-01 0.23390610E+03</pdfrwt>
<totfact> 0.29150408E+02</totfact>
</mgrwt>
</event>
<event>
 5    1  0.2804411E-003  0.3079815E+03  0.7818608E-02  0.1084652E+00
         11   -1    0    0    0    0  0.00000000000E+00  0.00000000000E+00  0.10000379491E+04  0.10000379491E+04  0.51100000000E-03 0. -1.
          2   -1    0    0  501    0 -0.00000000000E+00 -0.00000000000E+00 -0.36345465246E+03  0.36345465247E+03  0.25500000000E-02 0. -1.
         11    1    1    2    0    0 -0.13661957124E+03 -0.22939818051E+03  0.72545515303E+03  0.77302885555E+03  0.51100000000E-03 0. -1.
         22    1    1    2    0    0 -0.12484027343E+02 -0.32284473073E+02  0.18207991334E+03  0.18534085622E+03  0.00000000000E+00 0.  1.
          2    1    1    2  501    0  0.14910359858E+03  0.26168265358E+03 -0.27095176974E+03  0.40512288978E+03  0.25500000000E-02 0. -1.
<mgrwt>
<rscale>  0 0.30118050E+03</rscale>
<asrwt>0</asrwt>
<pdfrwt beam="1">  1       11 0.10000000E+01 0.30798151E+03</pdfrwt>
<pdfrwt beam="2">  1        2 0.55918221E-01 0.30118050E+03</pdfrwt>
<totfact> 0.11015327E+02</totfact>
</mgrwt>
</event>
<event>
 5    1  0.2804411E-003  0.4792151E+03  0.7818608E-02  0.1020396E+00
         11   -1    0    0    0    0  0.00000000000E+00  0.00000000000E+00  0.10006103243E+04  0.10006103243E+04  0.51100000000E-03 0.  1.
          2   -1    0    0  501    0 -0.00000000000E+00 -0.00000000000E+00 -0.15190385055E+04  0.15190385055E+04  0.25500000000E-02 0.  1.
         11    1    1    2    0    0 -0.16803482664E+03 -0.40003647599E+03  0.78905457521E+03  0.90048431844E+03  0.51100000000E-03 0.  1.
         22    1    1    2    0    0 -0.27226669610E+02 -0.33456689587E+02  0.11314589354E+03  0.12108936717E+03  0.00000000000E+00 0.  1.
          2    1    1    2  501    0  0.19526149625E+03  0.43349316558E+03 -0.14206286499E+04  0.14980751442E+04  0.25500000000E-02 0.  1.
<mgrwt>
<rscale>  0 0.47544019E+03</rscale>
<asrwt>0</asrwt>
<pdfrwt beam="1">  1       11 0.10000000E+01 0.47921510E+03</pdfrwt>
<pdfrwt beam="2">  1        2 0.23384086E+00 0.47544019E+03</pdfrwt>
<totfact> 0.16017938E+01</totfact>
</mgrwt>
</event>
<event>
 5    1  0.2804411E-003  0.8170950E+02  0.7818608E-02  0.1338259E+00
         11   -1    0    0    0    0  0.00000000000E+00  0.00000000000E+00  0.10002905857E+04  0.10002905857E+04  0.51100000000E-03 0.  1.
         -2   -1    0    0    0  501 -0.00000000000E+00 -0.00000000000E+00 -0.12783991177E+02  0.12783991431E+02  0.25500000000E-02 0.  1.
         11    1    1    2    0    0 -0.52984512867E+02 -0.36388505725E+02  0.10910608100E+03  0.12663182406E+03  0.51100000000E-03 0.  1.
         22    1    1    2    0    0 -0.16866603088E+02  0.43643094673E+01  0.30958768069E+02  0.35524284893E+02  0.00000000000E+00 0. -1.
         -2    1    1    2    0  501  0.69851115955E+02  0.32024196258E+02  0.84744174550E+03  0.85091846823E+03  0.25500000000E-02 0.  1.
<mgrwt>
<rscale>  0 0.76842225E+02</rscale>
<asrwt>0</asrwt>
<pdfrwt beam="1">  1       11 0.10000000E+01 0.81709496E+02</pdfrwt>
<pdfrwt beam="2">  1       -2 0.19673394E-02 0.76842225E+02</pdfrwt>
<totfact> 0.54190042E+03</totfact>
</mgrwt>
</event>
<event>
 5    1  0.2804411E-003  0.1859757E+03  0.7818608E-02  0.1176470E+00
         11   -1    0    0    0    0  0.00000000000E+00  0.00000000000E+00  0.99990231573E+03  0.99990231573E+03  0.51100000000E-03 0.  1.
          2   -1    0    0  501    0 -0.00000000000E+00 -0.00000000000E+00 -0.39413842680E+03  0.39413842681E+03  0.25500000000E-02 0.  1.
         11    1    1    2    0    0 -0.23262828752E+02  0.26220502901E+02  0.16159087245E+03  0.16534897651E+03  0.51100000000E-03 0.  1.
         22    1    1    2    0    0  0.44956917168E+02  0.14372854855E+03  0.81045134049E+03  0.82432420526E+03  0.00000000000E+00 0.  1.
          2    1    1    2  501    0 -0.21694088417E+02 -0.16994905145E+03 -0.36627832401E+03  0.40436756078E+03  0.25500000000E-02 0.  1.
<mgrwt>
<rscale>  0 0.17132809E+03</rscale>
<asrwt>0</asrwt>
<pdfrwt beam="1">  1       11 0.10000000E+01 0.18597565E+03</pdfrwt>
<pdfrwt beam="2">  1        2 0.60630756E-01 0.17132809E+03</pdfrwt>
<totfact> 0.10122511E+02</totfact>
</mgrwt>
</event>
<event>
 5    1  0.2804411E-003  0.2320978E+03  0.7818608E-02  0.1130274E+00
         11   -1    0    0    0    0  0.00000000000E+00  0.00000000000E+00  0.10002508369E+04  0.10002508369E+04  0.51100000000E-03 0. -1.
          2   -1    0    0  501    0 -0.00000000000E+00 -0.00000000000E+00 -0.49918000178E+03  0.49918000179E+03  0.25500000000E-02 0.  1.
         11    1    1    2    0    0 -0.75165379287E+02 -0.96367929726E+01  0.35660014136E+03  0.36456324944E+03  0.51100000000E-03 0. -1.
         22    1    1    2    0    0 -0.14482492733E+03  0.56424724470E+02  0.60377108348E+03  0.62345611742E+03  0.00000000000E+00 0. -1.
          2    1    1    2  501    0  0.21999030661E+03 -0.46787931497E+02 -0.45930038971E+03  0.51141147184E+03  0.25500000000E-02 0.  1.
<mgrwt>
<rscale>  0 0.22491075E+03</rscale>
<asrwt>0</asrwt>
<pdfrwt beam="1">  1       11 0.10000000E+01 0.23209778E+03</pdfrwt>
<pdfrwt beam="2">  1        2 0.76816185E-01 0.22491075E+03</pdfrwt>
<totfact> 0.77887389E+01</totfact>
</mgrwt>
</event>
<event>
 5    1  0.2804411E-003  0.2821262E+03  0.7818608E-02  0.1098799E+00
         11   -1    0    0    0    0  0.00000000000E+00  0.00000000000E+00  0.10000672411E+04  0.10000672411E+04  0.51100000000E-03 0. -1.
          2   -1    0    0  501    0 -0.00000000000E+00 -0.00000000000E+00 -0.11077234148E+03  0.11077234151E+03  0.25500000000E-02 0. -1.
         11    1    1    2    0    0  0.17684541107E+03 -0.11067071659E+03  0.54876728941E+03  0.58708418890E+03  0.51100000000E-03 0. -1.
         22    1    1    2    0    0  0.33755602635E+02 -0.65202138203E+02  0.20495588438E+03  0.21771006884E+03  0.00000000000E+00 0.  1.
          2    1    1    2  501    0 -0.21060101371E+03  0.17587285480E+03  0.13557172586E+03  0.30604532489E+03  0.25500000000E-02 0. -1.
<mgrwt>
<rscale>  0 0.27437939E+03</rscale>
<asrwt>0</asrwt>
<pdfrwt beam="1">  1       11 0.10000000E+01 0.28212617E+03</pdfrwt>
<pdfrwt beam="2">  1        2 0.17043044E-01 0.27437939E+03</pdfrwt>
<totfact> 0.41318598E+02</totfact>
</mgrwt>
</event>
<event>
 5    1  0.2804411E-003  0.1220403E+03  0.7818608E-02  0.1243152E+00
         11   -1    0    0    0    0  0.00000000000E+00  0.00000000000E+00  0.10000922072E+04  0.10000922072E+04  0.51100000000E-03 0. -1.
          2   -1    0    0  501    0 -0.00000000000E+00 -0.00000000000E+00 -0.15503691509E+02  0.15503691719E+02  0.25500000000E-02 0. -1.
         11    1    1    2    0    0  0.92935343445E+02 -0.49314319968E+02  0.30216958858E+03  0.31996146718E+03  0.51100000000E-03 0. -1.
         22    1    1    2    0    0  0.11719914961E+02 -0.93310949093E+01  0.74292019314E+02  0.75787399168E+02  0.00000000000E+00 0. -1.
          2    1    1    2  501    0 -0.10465525841E+03  0.58645414877E+02  0.60812690780E+03  0.61984703257E+03  0.25500000000E-02 0. -1.
<mgrwt>
<rscale>  0 0.11996669E+03</rscale>
<asrwt>0</asrwt>
<pdfrwt beam="1">  1       11 0.10000000E+01 0.12204025E+03</pdfrwt>
<pdfrwt beam="2">  1        2 0.23854032E-02 0.11996669E+03</pdfrwt>
<totfact> 0.48492604E+03</totfact>
</mgrwt>
</event>
<event>
 5    1  0.2804411E-003  0.2001743E+03  0.7818608E-02  0.1152114E+00
         11   -1    0    0    0    0  0.00000000000E+00  0.00000000000E+00  0.10002281303E+04  0.10002281303E+04  0.51100000000E-03 0. -1.
          2   -1    0    0  501    0 -0.00000000000E+00 -0.00000000000E+00 -0.45255756964E+02  0.45255757036E+02  0.25500000000E-02 0. -1.
         11    1    1    2    0    0  0.16105069165E+02 -0.15347803692E+03  0.47465292380E+03  0.49910948613E+03  0.51100000000E-03 0. -1.
         22    1    1    2    0    0  0.14447280009E+02 -0.41352090485E+02  0.19284655937E+03  0.19775872863E+03  0.00000000000E+00 0.  1.
          2    1    1    2  501    0 -0.30552349174E+02  0.19483012740E+03  0.28747289016E+03  0.34861567258E+03  0.25500000000E-02 0. -1.
<mgrwt>
<rscale>  0 0.19721112E+03</rscale>
<asrwt>0</asrwt>
<pdfrwt beam="1">  1       11 0.10000000E+01 0.20017430E+03</pdfrwt>
<pdfrwt beam="2">  1        2 0.69640123E-02 0.19721112E+03</pdfrwt>
<totfact> 0.12257261E+03</totfact>
</mgrwt>
</event>
<event>
 5    1  0.2804411E-003  0.9969383E+02  0.7818608E-02  0.1280941E+00
         11   -1    0    0    0    0  0.00000000000E+00  0.00000000000E+00  0.10002377085E+04  0.10002377085E+04  0.51100000000E-03 0. -1.
         -2   -1    0    0    0  501 -0.00000000000E+00 -0.00000000000E+00 -0.15901784360E+02  0.15901784564E+02  0.25500000000E-02 0.  1.
         11    1    1    2    0    0  0.26104256359E+01  0.43347068420E+02  0.25696692840E+03  0.26061040837E+03  0.51100000000E-03 0. -1.
         22    1    1    2    0    0  0.91760516338E+02  0.15429851595E+02  0.34444191028E+03  0.35678887628E+03  0.00000000000E+00 0. -1.
         -2    1    1    2    0  501 -0.94370941974E+02 -0.58776920015E+02  0.38292708544E+03  0.39874020839E+03  0.25500000000E-02 0.  1.
<mgrwt>
<rscale>  0 0.99693834E+02</rscale>
<asrwt>0</asrwt>
<pdfrwt beam="1">  1       11 0.10000000E+01 0.43425599E+02</pdfrwt>
<pdfrwt beam="2">  1       -2 0.24470098E-02 0.99693834E+02</pdfrwt>
<totfact> 0.40972847E+03</totfact>
</mgrwt>
</event>
<event>
 5    1  0.2804411E-003  0.1294702E+03  0.7818608E-02  0.1228244E+00
         11   -1    0    0    0    0  0.00000000000E+00  0.00000000000E+00  0.10003402540E+04  0.10003402540E+04  0.51100000000E-03 0.  1.
          2   -1    0    0  501    0 -0.00000000000E+00 -0.00000000000E+00 -0.19297594011E+03  0.19297594013E+03  0.25500000000E-02 0.  1.
         11    1    1    2    0    0  0.21027730221E+02  0.58755880703E+02  0.85012131529E+02  0.10545843476E+03  0.51100000000E-03 0.  1.
         22    1    1    2    0    0  0.86808535247E+02 -0.12969062840E+03  0.87451073765E+03  0.88832674797E+03  0.00000000000E+00 0.  1.
          2    1    1    2  501    0 -0.10783626547E+03  0.70934747698E+02 -0.15215855525E+03  0.19953101143E+03  0.25500000000E-02 0.  1.
<mgrwt>
<rscale>  0 0.12947020E+03</rscale>
<asrwt>0</asrwt>
<pdfrwt beam="1">  1       11 0.10000000E+01 0.62405280E+02</pdfrwt>
<pdfrwt beam="2">  1        2 0.29698707E-01 0.12947020E+03</pdfrwt>
<totfact> 0.21673882E+02</totfact>
</mgrwt>
</event>
<event>
 5    1  0.2804411E-003  0.3004631E+03  0.7818608E-02  0.1085009E+00
         11   -1    0    0    0    0  0.00000000000E+00  0.00000000000E+00  0.10004788084E+04  0.10004788084E+04  0.51100000000E-03 0.  1.
          2   -1    0    0  501    0 -0.00000000000E+00 -0.00000000000E+00 -0.41595524928E+03  0.41595524928E+03  0.25500000000E-02 0. -1.
         11    1    1    2    0    0 -0.27929176202E+03 -0.12944029066E+03  0.87708326629E+03  0.92953414848E+03  0.51100000000E-03 0.  1.
         22    1    1    2    0    0  0.14869394234E+02 -0.12310334954E+02  0.36690232036E+02  0.41458610184E+02  0.00000000000E+00 0.  1.
          2    1    1    2  501    0  0.26442236779E+03  0.14175062561E+03 -0.32924993917E+03  0.44544129905E+03  0.25500000000E-02 0. -1.
<mgrwt>
<rscale>  0 0.30046310E+03</rscale>
<asrwt>0</asrwt>
<pdfrwt beam="1">  1       11 0.10000000E+01 0.19303969E+02</pdfrwt>
<pdfrwt beam="2">  1        2 0.64023754E-01 0.30046310E+03</pdfrwt>
<totfact> 0.94973207E+01</totfact>
</mgrwt>
</event>
<event>
 5    1  0.2804411E-003  0.1887322E+03  0.7818608E-02  0.1164421E+00
         11   -1    0    0    0    0  0.00000000000E+00  0.00000000000E+00  0.10003231520E+04  0.10003231520E+04  0.51100000000E-03 0.  1.
          2   -1    0    0  501    0 -0.00000000000E+00 -0.00000000000E+00 -0.24530393294E+03  0.24530393295E+03  0.25500000000E-02 0. -1.
         11    1    1    2    0    0 -0.61021722618E+02  0.47484039778E+02  0.46621114265E+03  0.47257932053E+03  0.51100000000E-03 0.  1.
         22    1    1    2    0    0 -0.10509975471E+03  0.30555728719E+02  0.48920678947E+03  0.50130120073E+03  0.00000000000E+00 0.  1.
          2    1    1    2  501    0  0.16612147732E+03 -0.78039768497E+02 -0.20039871303E+03  0.27174656370E+03  0.25500000000E-02 0. -1.
<mgrwt>
<rscale>  0 0.18353896E+03</rscale>
<asrwt>0</asrwt>
<pdfrwt beam="1">  1       11 0.10000000E+01 0.18873220E+03</pdfrwt>
<pdfrwt beam="2">  1        2 0.37751261E-01 0.18353896E+03</pdfrwt>
<totfact> 0.16818120E+02</totfact>
</mgrwt>
</event>
<event>
 5    1  0.2804411E-003  0.1115265E+03  0.7818608E-02  0.1257769E+00
         11   -1    0    0    0    0  0.00000000000E+00  0.00000000000E+00  0.10003160585E+04  0.10003160585E+04  0.51100000000E-03 0.  1.
          2   -1    0    0  501    0 -0.00000000000E+00 -0.00000000000E+00 -0.34727358962E+03  0.34727358963E+03  0.25500000000E-02 0.  1.
         11    1    1    2    0    0 -0.23558458112E+02  0.37361290152E+02  0.19986292951E+03  0.20468526460E+03  0.51100000000E-03 0.  1.
         22    1    1    2    0    0  0.13326076024E+03 -0.18377856184E+02  0.78316998715E+03  0.79463916629E+03  0.00000000000E+00 0.  1.
          2    1    1    2  501    0 -0.10970230213E+03 -0.18983433967E+02 -0.32999044782E+03  0.34826521721E+03  0.25500000000E-02 0.  1.
<mgrwt>
<rscale>  0 0.11152654E+03</rscale>
<asrwt>0</asrwt>
<pdfrwt beam="1">  1       11 0.10000000E+01 0.44168620E+02</pdfrwt>
<pdfrwt beam="2">  1        2 0.53443591E-01 0.11152654E+03</pdfrwt>
<totfact> 0.11593467E+02</totfact>
</mgrwt>
</event>
<event>
 5    1  0.2804411E-003  0.1742744E+03  0.7818608E-02  0.1174740E+00
         11   -1    0    0    0    0  0.00000000000E+00  0.00000000000E+00  0.10003162506E+04  0.10003162506E+04  0.51100000000E-03 0. -1.
         -2   -1    0    0    0  501 -0.00000000000E+00 -0.00000000000E+00 -0.38387149731E+02  0.38387149816E+02  0.25500000000E-02 0.  1.
         11    1    1    2    0    0  0.15999055514E+03 -0.18268152473E+02  0.66447188274E+03  0.68370577450E+03  0.51100000000E-03 0. -1.
         22    1    1    2    0    0  0.11157030703E+02 -0.70823540553E+01  0.58543035743E+02  0.60016048746E+02  0.00000000000E+00 0.  1.
         -2    1    1    2    0  501 -0.17114758584E+03  0.25350506529E+02  0.23891418239E+03  0.29498157717E+03  0.25500000000E-02 0.  1.
<mgrwt>
<rscale>  0 0.17301487E+03</rscale>
<asrwt>0</asrwt>
<pdfrwt beam="1">  1       11 0.10000000E+01 0.17427443E+03</pdfrwt>
<pdfrwt beam="2">  1       -2 0.59075829E-02 0.17301487E+03</pdfrwt>
<totfact> 0.11707874E+03</totfact>
</mgrwt>
</event>
<event>
 5    1  0.2804411E-003  0.3541068E+03  0.7818608E-02  0.1065354E+00
         11   -1    0    0    0    0  0.00000000000E+00  0.00000000000E+00  0.10005038444E+04  0.10005038444E+04  0.51100000000E-03 0. -1.
          2   -1    0    0  501    0 -0.00000000000E+00 -0.00000000000E+00 -0.74097176507E+03  0.74097176507E+03  0.25500000000E-02 0. -1.
         11    1    1    2    0    0  0.11843969624E+02 -0.25601888995E+03  0.59490681101E+03  0.64776544012E+03  0.51100000000E-03 0. -1.
         22    1    1    2    0    0 -0.30056248908E+02 -0.86905968770E+02  0.33127957103E+03  0.34380543871E+03  0.00000000000E+00 0. -1.
          2    1    1    2  501    0  0.18212279284E+02  0.34292485872E+03 -0.66665430266E+03  0.74990473069E+03  0.25500000000E-02 0. -1.
<mgrwt>
<rscale>  0 0.34340813E+03</rscale>
<asrwt>0</asrwt>
<pdfrwt beam="1">  1       11 0.10000000E+01 0.35410675E+03</pdfrwt>
<pdfrwt beam="2">  1        2 0.11405309E+00 0.34340813E+03</pdfrwt>
<totfact> 0.48412939E+01</totfact>
</mgrwt>
</event>
<event>
 5    1  0.2804411E-003  0.1072525E+03  0.7818608E-02  0.1265744E+00
         11   -1    0    0    0    0  0.00000000000E+00  0.00000000000E+00  0.99997051980E+03  0.99997051980E+03  0.51100000000E-03 0. -1.
          2   -1    0    0  501    0 -0.00000000000E+00 -0.00000000000E+00 -0.52356213206E+02  0.52356213268E+02  0.25500000000E-02 0. -1.
         11    1    1    2    0    0 -0.54900244907E+02  0.10899908317E+00  0.20391661913E+03  0.21117773635E+03  0.51100000000E-03 0. -1.
         22    1    1    2    0    0  0.83739531239E+02  0.10182376104E+03  0.72081491960E+03  0.73277181696E+03  0.00000000000E+00 0. -1.
          2    1    1    2  501    0 -0.28839286332E+02 -0.10193276012E+03  0.22882767867E+02  0.10837717977E+03  0.25500000000E-02 0. -1.
<mgrwt>
<rscale>  0 0.10725247E+03</rscale>
<asrwt>0</asrwt>
<pdfrwt beam="1">  1       11 0.10000000E+01 0.54900353E+02</pdfrwt>
<pdfrwt beam="2">  1        2 0.80545643E-02 0.10725247E+03</pdfrwt>
<totfact> 0.97946782E+02</totfact>
</mgrwt>
</event>
<event>
 5    1  0.2804411E-003  0.2427521E+03  0.7818608E-02  0.1125419E+00
         11   -1    0    0    0    0  0.00000000000E+00  0.00000000000E+00  0.10001119077E+04  0.10001119077E+04  0.51100000000E-03 0. -1.
          2   -1    0    0  501    0 -0.00000000000E+00 -0.00000000000E+00 -0.57121847971E+02  0.57121848028E+02  0.25500000000E-02 0. -1.
         11    1    1    2    0    0  0.14818688910E+03 -0.65765609622E+02  0.31377316149E+03  0.35318276626E+03  0.51100000000E-03 0. -1.
         22    1    1    2    0    0  0.75720060408E+02  0.60113671968E+01  0.23265133057E+03  0.24473721765E+03  0.00000000000E+00 0. -1.
          2    1    1    2  501    0 -0.22390694951E+03  0.59754242426E+02  0.39656556768E+03  0.45931377184E+03  0.25500000000E-02 0. -1.
<mgrwt>
<rscale>  0 0.23174316E+03</rscale>
<asrwt>0</asrwt>
<pdfrwt beam="1">  1       11 0.10000000E+01 0.24275210E+03</pdfrwt>
<pdfrwt beam="2">  1        2 0.87889598E-02 0.23174316E+03</pdfrwt>
<totfact> 0.91991129E+02</totfact>
</mgrwt>
</event>
<event>
 5    1  0.2804411E-003  0.7463589E+02  0.7818608E-02  0.1475420E+00
         11   -1    0    0    0    0  0.00000000000E+00  0.00000000000E+00  0.10000116810E+04  0.10000116810E+04  0.51100000000E-03 0. -1.
          2   -1    0    0  501    0 -0.00000000000E+00 -0.00000000000E+00 -0.82011604765E+01  0.82011608729E+01  0.25500000000E-02 0. -1.
         11    1    1    2    0    0 -0.50360866382E+02  0.44334385956E+02  0.37794975912E+03  0.38385905624E+03  0.51100000000E-03 0. -1.
         22    1    1    2    0    0  0.35353430827E+01  0.26691235372E+02  0.10315000242E+03  0.10660602092E+03  0.00000000000E+00 0. -1.
          2    1    1    2  501    0  0.46825523299E+02 -0.71025621329E+02  0.51071075896E+03  0.51774776469E+03  0.25500000000E-02 0. -1.
<mgrwt>
<rscale>  0 0.44827702E+02</rscale>
<asrwt>0</asrwt>
<pdfrwt beam="1">  1       11 0.10000000E+01 0.74635888E+02</pdfrwt>
<pdfrwt beam="2">  1        2 0.12617317E-02 0.44827702E+02</pdfrwt>
<totfact> 0.99066766E+03</totfact>
</mgrwt>
</event>
<event>
 5    1  0.2804411E-003  0.6328291E+02  0.7818608E-02  0.1391442E+00
         11   -1    0    0    0    0  0.00000000000E+00  0.00000000000E+00  0.10004390861E+04  0.10004390861E+04  0.51100000000E-03 0. -1.
          2   -1    0    0  501    0 -0.00000000000E+00 -0.00000000000E+00 -0.11061380082E+02  0.11061380376E+02  0.25500000000E-02 0. -1.
         11    1    1    2    0    0 -0.32430109487E+02 -0.30480089054E+02  0.55399688744E+02  0.71062460858E+02  0.51100000000E-03 0. -1.
         22    1    1    2    0    0 -0.16583019325E+02 -0.67495137491E+01  0.34613372559E+02  0.38969706513E+02  0.00000000000E+00 0. -1.
          2    1    1    2  501    0  0.49013128812E+02  0.37229602803E+02  0.89936464472E+03  0.90146829911E+03  0.25500000000E-02 0. -1.
<mgrwt>
<rscale>  0 0.61549412E+02</rscale>
<asrwt>0</asrwt>
<pdfrwt beam="1">  1       11 0.10000000E+01 0.63282910E+02</pdfrwt>
<pdfrwt beam="2">  1        2 0.17024980E-02 0.61549412E+02</pdfrwt>
<totfact> 0.69938798E+03</totfact>
</mgrwt>
</event>
<event>
 5    1  0.2804411E-003  0.1738955E+03  0.7818608E-02  0.1664560E+00
         11   -1    0    0    0    0  0.00000000000E+00  0.00000000000E+00  0.10008439424E+04  0.10008439424E+04  0.51100000000E-03 0.  1.
          2   -1    0    0  501    0 -0.00000000000E+00 -0.00000000000E+00 -0.13510357152E+04  0.13510357152E+04  0.25500000000E-02 0.  1.
         11    1    1    2    0    0 -0.53556755294E+02 -0.17032231558E+03  0.31983979877E+03  0.36629975989E+03  0.51100000000E-03 0.  1.
         22    1    1    2    0    0  0.28809308754E+02  0.16974993355E+03  0.64638863941E+03  0.66892696864E+03  0.00000000000E+00 0.  1.
          2    1    1    2  501    0  0.24747446540E+02  0.57238202528E+00 -0.13164202110E+04  0.13166529291E+04  0.25500000000E-02 0.  1.
<mgrwt>
<rscale>  0 0.24754065E+02</rscale>
<asrwt>0</asrwt>
<pdfrwt beam="1">  1       11 0.10000000E+01 0.17389551E+03</pdfrwt>
<pdfrwt beam="2">  1        2 0.20802706E+00 0.24754065E+02</pdfrwt>
<totfact> 0.24567358E+01</totfact>
</mgrwt>
</event>
<event>
 5    1  0.2804411E-003  0.2461679E+03  0.7818608E-02  0.1115751E+00
         11   -1    0    0    0    0  0.00000000000E+00  0.00000000000E+00  0.99989596373E+03  0.99989596373E+03  0.51100000000E-03 0. -1.
          2   -1    0    0  501    0 -0.00000000000E+00 -0.00000000000E+00 -0.32616927159E+03  0.32616927160E+03  0.25500000000E-02 0. -1.
         11    1    1    2    0    0  0.38252469550E+02 -0.10755299020E+02  0.17433476063E+03  0.17880586302E+03  0.51100000000E-03 0. -1.
         22    1    1    2    0    0 -0.27615235636E+03  0.63907105197E+02  0.74750077978E+03  0.79943833896E+03  0.00000000000E+00 0. -1.
          2    1    1    2  501    0  0.23789988681E+03 -0.53151806177E+02 -0.24810884827E+03  0.34782103335E+03  0.25500000000E-02 0. -1.
<mgrwt>
<rscale>  0 0.24616793E+03</rscale>
<asrwt>0</asrwt>
<pdfrwt beam="1">  1       11 0.10000000E+01 0.39735726E+02</pdfrwt>
<pdfrwt beam="2">  1        2 0.50174666E-01 0.24616793E+03</pdfrwt>
<totfact> 0.12398707E+02</totfact>
</mgrwt>
</event>
<event>
 5    1  0.2804411E-003  0.1130357E+03  0.7818608E-02  0.1545221E+00
         11   -1    0    0    0    0  0.00000000000E+00  0.00000000000E+00  0.10002363262E+04  0.10002363262E+04  0.51100000000E-03 0.  1.
          2   -1    0    0  501    0 -0.00000000000E+00 -0.00000000000E+00 -0.17397844054E+02  0.17397844241E+02  0.25500000000E-02 0.  1.
         11    1    1    2    0    0  0.47286220302E+02 -0.10048566675E+03  0.66789196602E+03  0.67706206076E+03  0.51100000000E-03 0.  1.
         22    1    1    2    0    0 -0.47652735107E+01 -0.99985715328E+01  0.31790672261E+02  0.33664909136E+02  0.00000000000E+00 0. -1.
          2    1    1    2  501    0 -0.42520946791E+02  0.11048423828E+03  0.28315584389E+03  0.30690720057E+03  0.25500000000E-02 0.  1.
<mgrwt>
<rscale>  0 0.35383478E+02</rscale>
<asrwt>0</asrwt>
<pdfrwt beam="1">  1       11 0.10000000E+01 0.11303565E+03</pdfrwt>
<pdfrwt beam="2">  1        2 0.26772239E-02 0.35383478E+02</pdfrwt>
<totfact> 0.35495946E+03</totfact>
</mgrwt>
</event>
<event>
 5    1  0.2804411E-003  0.3840345E+02  0.7818608E-02  0.1549102E+00
         11   -1    0    0    0    0  0.00000000000E+00  0.00000000000E+00  0.10003374996E+04  0.10003374996E+04  0.51100000000E-03 0. -1.
          2   -1    0    0  501    0 -0.00000000000E+00 -0.00000000000E+00 -0.21262161617E+01  0.21262176908E+01  0.25500000000E-02 0. -1.
         11    1    1    2    0    0  0.11780005908E+02 -0.95741714906E+01  0.81595195735E+02  0.82995236407E+02  0.51100000000E-03 0. -1.
         22    1    1    2    0    0  0.29351640650E+00 -0.23217394479E+02  0.12869026609E+03  0.13076818476E+03  0.00000000000E+00 0.  1.
          2    1    1    2  501    0 -0.12073522315E+02  0.32791565970E+02  0.78792582159E+03  0.78870029611E+03  0.25500000000E-02 0. -1.
<mgrwt>
<rscale>  0 0.34943622E+02</rscale>
<asrwt>0</asrwt>
<pdfrwt beam="1">  1       11 0.10000000E+01 0.38403447E+02</pdfrwt>
<pdfrwt beam="2">  1        2 0.32722069E-03 0.34943622E+02</pdfrwt>
<totfact> 0.57035942E+04</totfact>
</mgrwt>
</event>
<event>
 5    1  0.2804411E-003  0.1577459E+03  0.7818608E-02  0.1191265E+00
         11   -1    0    0    0    0  0.00000000000E+00  0.00000000000E+00  0.10003974585E+04  0.10003974585E+04  0.51100000000E-03 0. -1.
          2   -1    0    0  501    0 -0.00000000000E+00 -0.00000000000E+00 -0.49896563862E+02  0.49896563927E+02  0.25500000000E-02 0. -1.
         11    1    1    2    0    0  0.10114598187E+03 -0.14235805127E+02  0.16882617853E+03  0.19732066884E+03  0.51100000000E-03 0. -1.
         22    1    1    2    0    0 -0.14307627693E+03  0.14489832975E+03  0.49011463703E+03  0.53073411838E+03  0.00000000000E+00 0. -1.
          2    1    1    2  501    0  0.41930295061E+02 -0.13066252462E+03  0.29156007909E+03  0.32223923521E+03  0.25500000000E-02 0. -1.
<mgrwt>
<rscale>  0 0.15774593E+03</rscale>
<asrwt>0</asrwt>
<pdfrwt beam="1">  1       11 0.10000000E+01 0.10214293E+03</pdfrwt>
<pdfrwt beam="2">  1        2 0.76794453E-02 0.15774593E+03</pdfrwt>
<totfact> 0.10667639E+03</totfact>
</mgrwt>
</event>
<event>
 5    1  0.2804411E-003  0.2439190E+03  0.7818608E-02  0.1121840E+00
         11   -1    0    0    0    0  0.00000000000E+00  0.00000000000E+00  0.10006590009E+04  0.10006590009E+04  0.51100000000E-03 0.  1.
          2   -1    0    0  501    0 -0.00000000000E+00 -0.00000000000E+00 -0.81824520911E+02  0.81824520951E+02  0.25500000000E-02 0.  1.
         11    1    1    2    0    0  0.11677691510E+03  0.87740385345E+02  0.37194346157E+03  0.39959624839E+03  0.51100000000E-03 0.  1.
         22    1    1    2    0    0  0.66321610677E+02  0.62664056159E+02  0.38560235182E+03  0.39625056934E+03  0.00000000000E+00 0.  1.
          2    1    1    2  501    0 -0.18309852577E+03 -0.15040444150E+03  0.16128866659E+03  0.28663670411E+03  0.25500000000E-02 0.  1.
<mgrwt>
<rscale>  0 0.23695267E+03</rscale>
<asrwt>0</asrwt>
<pdfrwt beam="1">  1       11 0.10000000E+01 0.24391904E+03</pdfrwt>
<pdfrwt beam="2">  1        2 0.12596683E-01 0.23695267E+03</pdfrwt>
<totfact> 0.58971603E+02</totfact>
</mgrwt>
</event>
<event>
 5    1  0.2804411E-003  0.3578857E+03  0.7818608E-02  0.1067729E+00
         11   -1    0    0    0    0  0.00000000000E+00  0.00000000000E+00  0.10004435772E+04  0.10004435772E+04  0.51100000000E-03 0. -1.
          2   -1    0    0  501    0 -0.00000000000E+00 -0.00000000000E+00 -0.27526997834E+04  0.27526997834E+04  0.25500000000E-02 0. -1.
         11    1    1    2    0    0 -0.27663881220E+03 -0.30508371518E+02  0.65008327841E+03  0.70715490666E+03  0.51100000000E-03 0. -1.
         22    1    1    2    0    0 -0.52812098928E+02 -0.44217237809E+02  0.30752710632E+03  0.31514632004E+03  0.00000000000E+00 0.  1.
          2    1    1    2  501    0  0.32945091113E+03  0.74725609327E+02 -0.27098665909E+04  0.27308421339E+04  0.25500000000E-02 0. -1.
<mgrwt>
<rscale>  0 0.33781921E+03</rscale>
<asrwt>0</asrwt>
<pdfrwt beam="1">  1       11 0.10000000E+01 0.35788566E+03</pdfrwt>
<pdfrwt beam="2">  1        2 0.42368011E+00 0.33781921E+03</pdfrwt>
<totfact> 0.35269508E+00</totfact>
</mgrwt>
</event>
<event>
 5    1  0.2804411E-003  0.2384177E+03  0.7818608E-02  0.1698217E+00
         11   -1    0    0    0    0  0.00000000000E+00  0.00000000000E+00  0.99984350378E+03  0.99984350378E+03  0.51100000000E-03 0. -1.
          2   -1    0    0  501    0 -0.00000000000E+00 -0.00000000000E+00 -0.36002925524E+03  0.36002925525E+03  0.25500000000E-02 0. -1.
         11    1    1    2    0    0  0.21808002899E+03  0.36742313715E+02 -0.10058102026E+02  0.22138216297E+03  0.51100000000E-03 0. -1.
         22    1    1    2    0    0 -0.23916353154E+03 -0.28626545100E+02  0.87739071364E+03  0.90985336087E+03  0.00000000000E+00 0. -1.
          2    1    1    2  501    0  0.21083502546E+02 -0.81157686147E+01 -0.22751836307E+03  0.22863723520E+03  0.25500000000E-02 0. -1.
<mgrwt>
<rscale>  0 0.22591587E+02</rscale>
<asrwt>0</asrwt>
<pdfrwt beam="1">  1       11 0.10000000E+01 0.23841775E+03</pdfrwt>
<pdfrwt beam="2">  1        2 0.55380446E-01 0.22591587E+02</pdfrwt>
<totfact> 0.11092661E+02</totfact>
</mgrwt>
</event>
<event>
 5    1  0.2804411E-003  0.2852086E+03  0.7818608E-02  0.1094306E+00
         11   -1    0    0    0    0  0.00000000000E+00  0.00000000000E+00  0.10001374824E+04  0.10001374824E+04  0.51100000000E-03 0. -1.
          2   -1    0    0  501    0 -0.00000000000E+00 -0.00000000000E+00 -0.89791902208E+02  0.89791902244E+02  0.25500000000E-02 0. -1.
         11    1    1    2    0    0  0.13625471972E+03 -0.23531946973E+03  0.61970007687E+03  0.67673391134E+03  0.51100000000E-03 0. -1.
         22    1    1    2    0    0  0.24133769594E+01 -0.10859656304E+02  0.11978766781E+02  0.16347702499E+02  0.00000000000E+00 0. -1.
          2    1    1    2  501    0 -0.13866809668E+03  0.24617912603E+03  0.27866673651E+03  0.39684777078E+03  0.25500000000E-02 0. -1.
<mgrwt>
<rscale>  0 0.28254735E+03</rscale>
<asrwt>0</asrwt>
<pdfrwt beam="1">  1       11 0.10000000E+01 0.28520863E+03</pdfrwt>
<pdfrwt beam="2">  1        2 0.13816038E-01 0.28254735E+03</pdfrwt>
<totfact> 0.53100614E+02</totfact>
</mgrwt>
</event>
<event>
 5    1  0.2804411E-003  0.1216374E+03  0.7818608E-02  0.1240420E+00
         11   -1    0    0    0    0  0.00000000000E+00  0.00000000000E+00  0.99977327342E+03  0.99977327342E+03  0.51100000000E-03 0. -1.
         -2   -1    0    0    0  501 -0.00000000000E+00 -0.00000000000E+00 -0.36046160887E+02  0.36046160978E+02  0.25500000000E-02 0.  1.
         11    1    1    2    0    0 -0.83630178392E+02 -0.11117949884E+03  0.81236347812E+03  0.82419009232E+03  0.51100000000E-03 0. -1.
         22    1    1    2    0    0  0.14722460170E+02  0.14196740617E+02  0.54506647059E+02  0.58217461738E+02  0.00000000000E+00 0. -1.
         -2    1    1    2    0  501  0.68907718222E+02  0.96982758224E+02  0.96856987360E+02  0.15341188034E+03  0.25500000000E-02 0.  1.
<mgrwt>
<rscale>  0 0.12163742E+03</rscale>
<asrwt>0</asrwt>
<pdfrwt beam="1">  1       11 0.10000000E+01 0.20452342E+02</pdfrwt>
<pdfrwt beam="2">  1       -2 0.55443057E-02 0.12163742E+03</pdfrwt>
<totfact> 0.12527247E+03</totfact>
</mgrwt>
</event>
<event>
 5    1  0.2804411E-003  0.4726825E+03  0.7818608E-02  0.1021626E+00
         11   -1    0    0    0    0  0.00000000000E+00  0.00000000000E+00  0.10001456530E+04  0.10001456530E+04  0.51100000000E-03 0.  1.
          2   -1    0    0  501    0 -0.00000000000E+00 -0.00000000000E+00 -0.23454074263E+03  0.23454074264E+03  0.25500000000E-02 0.  1.
         11    1    1    2    0    0  0.36600448562E+03  0.27301836254E+03  0.50563856096E+03  0.68129924710E+03  0.51100000000E-03 0.  1.
         22    1    1    2    0    0  0.72413466471E+01  0.14331368708E+02  0.16957984362E+02  0.23353767660E+02  0.00000000000E+00 0.  1.
          2    1    1    2  501    0 -0.37324583226E+03 -0.28734973124E+03  0.24300836503E+03  0.53003338087E+03  0.25500000000E-02 0.  1.
<mgrwt>
<rscale>  0 0.47104386E+03</rscale>
<asrwt>0</asrwt>
<pdfrwt beam="1">  1       11 0.10000000E+01 0.47268247E+03</pdfrwt>
<pdfrwt beam="2">  1        2 0.36088446E-01 0.47104386E+03</pdfrwt>
<totfact> 0.17798599E+02</totfact>
</mgrwt>
</event>
<event>
 5    1  0.2804411E-003  0.1364974E+03  0.7818608E-02  0.1218121E+00
         11   -1    0    0    0    0  0.00000000000E+00  0.00000000000E+00  0.10003595335E+04  0.10003595335E+04  0.51100000000E-03 0. -1.
          2   -1    0    0  501    0 -0.00000000000E+00 -0.00000000000E+00 -0.30630303013E+03  0.30630303014E+03  0.25500000000E-02 0. -1.
         11    1    1    2    0    0  0.57004429530E+02  0.24393006183E+02  0.20333839618E+02  0.65253266360E+02  0.51100000000E-03 0. -1.
         22    1    1    2    0    0 -0.17408867256E+03 -0.92436041191E+02  0.93048034621E+03  0.95112825754E+03  0.00000000000E+00 0. -1.
          2    1    1    2  501    0  0.11708424303E+03  0.68043035007E+02 -0.25675768241E+03  0.29028103979E+03  0.25500000000E-02 0. -1.
<mgrwt>
<rscale>  0 0.13649736E+03</rscale>
<asrwt>0</asrwt>
<pdfrwt beam="1">  1       11 0.10000000E+01 0.62004255E+02</pdfrwt>
<pdfrwt beam="2">  1        2 0.47140484E-01 0.13649736E+03</pdfrwt>
<totfact> 0.13243505E+02</totfact>
</mgrwt>
</event>
<event>
 5    1  0.2804411E-003  0.1472978E+03  0.7818608E-02  0.1203833E+00
         11   -1    0    0    0    0  0.00000000000E+00  0.00000000000E+00  0.10000645443E+04  0.10000645443E+04  0.51100000000E-03 0.  1.
          2   -1    0    0  501    0 -0.00000000000E+00 -0.00000000000E+00 -0.36969576257E+02  0.36969576345E+02  0.25500000000E-02 0.  1.
         11    1    1    2    0    0  0.12379067327E+03  0.39561590351E+02  0.47962936287E+03  0.49692411488E+03  0.51100000000E-03 0.  1.
         22    1    1    2    0    0  0.35757863364E+02 -0.49804441974E+02  0.24821103762E+03  0.25567132500E+03  0.00000000000E+00 0. -1.
          2    1    1    2  501    0 -0.15954853664E+03  0.10242851622E+02  0.23525456754E+03  0.28443868075E+03  0.25500000000E-02 0.  1.
<mgrwt>
<rscale>  0 0.14729780E+03</rscale>
<asrwt>0</asrwt>
<pdfrwt beam="1">  1       11 0.10000000E+01 0.61311559E+02</pdfrwt>
<pdfrwt beam="2">  1        2 0.56879941E-02 0.14729780E+03</pdfrwt>
<totfact> 0.15596438E+03</totfact>
</mgrwt>
</event>
<event>
 5    1  0.2804411E-003  0.1813892E+03  0.7818608E-02  0.1170771E+00
         11   -1    0    0    0    0  0.00000000000E+00  0.00000000000E+00  0.10001400835E+04  0.10001400835E+04  0.51100000000E-03 0. -1.
         -2   -1    0    0    0  501 -0.00000000000E+00 -0.00000000000E+00 -0.33469214568E+02  0.33469214666E+02  0.25500000000E-02 0. -1.
         11    1    1    2    0    0  0.37155006042E+02 -0.31961437049E+01  0.18692637223E+03  0.19061001664E+03  0.51100000000E-03 0. -1.
         22    1    1    2    0    0  0.13640860792E+03 -0.31344942938E+02  0.40663836992E+03  0.43005183135E+03  0.00000000000E+00 0. -1.
         -2    1    1    2    0  501 -0.17356361396E+03  0.34541086643E+02  0.37310612683E+03  0.41294745022E+03  0.25500000000E-02 0. -1.
<mgrwt>
<rscale>  0 0.17696727E+03</rscale>
<asrwt>0</asrwt>
<pdfrwt beam="1">  1       11 0.10000000E+01 0.18138916E+03</pdfrwt>
<pdfrwt beam="2">  1       -2 0.51498311E-02 0.17696727E+03</pdfrwt>
<totfact> 0.14447018E+03</totfact>
</mgrwt>
</event>
<event>
 5    1  0.2804411E-003  0.4064712E+02  0.7818608E-02  0.1626474E+00
         11   -1    0    0    0    0  0.00000000000E+00  0.00000000000E+00  0.99975441767E+03  0.99975441767E+03  0.51100000000E-03 0. -1.
          2   -1    0    0  501    0 -0.00000000000E+00 -0.00000000000E+00 -0.55891287610E+01  0.55891293427E+01  0.25500000000E-02 0. -1.
         11    1    1    2    0    0 -0.22432016263E+02 -0.18689740637E+02  0.45750613386E+02  0.54273569849E+02  0.51100000000E-03 0. -1.
         22    1    1    2    0    0  0.23523470559E+01 -0.18566970030E+02  0.10946144029E+03  0.11104986638E+03  0.00000000000E+00 0.  1.
          2    1    1    2  501    0  0.20079669207E+02  0.37256710668E+02  0.83895323524E+03  0.84002011079E+03  0.25500000000E-02 0. -1.
<mgrwt>
<rscale>  0 0.27581268E+02</rscale>
<asrwt>0</asrwt>
<pdfrwt beam="1">  1       11 0.10000000E+01 0.40647116E+02</pdfrwt>
<pdfrwt beam="2">  1        2 0.85965482E-03 0.27581268E+02</pdfrwt>
<totfact> 0.14947488E+04</totfact>
</mgrwt>
</event>
<event>
 5    1  0.4613950E-003  0.2442802E+03  0.7818608E-02  0.1118107E+00
         11   -1    0    0    0    0  0.00000000000E+00  0.00000000000E+00  0.10004138663E+04  0.10004138663E+04  0.51100000000E-03 0. -1.
          2   -1    0    0  501    0 -0.00000000000E+00 -0.00000000000E+00 -0.54633932485E+03  0.54633932485E+03  0.25500000000E-02 0. -1.
         11    1    1    2    0    0  0.22817888783E+03  0.81928171257E+01  0.88464214467E+03  0.91363255810E+03  0.51100000000E-03 0. -1.
         22    1    1    2    0    0  0.14362674807E+02 -0.64314157528E+01  0.72737704868E+02  0.74420583481E+02  0.00000000000E+00 0. -1.
          2    1    1    2  501    0 -0.24254156263E+03 -0.17614013730E+01 -0.50330530813E+03  0.55870004952E+03  0.25500000000E-02 0. -1.
<mgrwt>
<rscale>  0 0.24254796E+03</rscale>
<asrwt>0</asrwt>
<pdfrwt beam="1">  1       11 0.10000000E+01 0.24428024E+03</pdfrwt>
<pdfrwt beam="2">  1        2 0.84086988E-01 0.24254796E+03</pdfrwt>
<totfact> 0.70237407E+01</totfact>
</mgrwt>
</event>
<event>
 5    1  0.2804411E-003  0.1697703E+03  0.7818608E-02  0.1180643E+00
         11   -1    0    0    0    0  0.00000000000E+00  0.00000000000E+00  0.10002329309E+04  0.10002329309E+04  0.51100000000E-03 0.  1.
          2   -1    0    0  501    0 -0.00000000000E+00 -0.00000000000E+00 -0.11082358187E+03  0.11082358190E+03  0.25500000000E-02 0.  1.
         11    1    1    2    0    0 -0.11734124861E+03 -0.93035846487E+02  0.84907235802E+03  0.86217660981E+03  0.51100000000E-03 0.  1.
         22    1    1    2    0    0 -0.18354490523E+02 -0.49016153703E+01  0.75521198587E+02  0.77874030277E+02  0.00000000000E+00 0.  1.
          2    1    1    2  501    0  0.13569573913E+03  0.97937461857E+02 -0.35184207528E+02  0.17100587276E+03  0.25500000000E-02 0.  1.
<mgrwt>
<rscale>  0 0.16734718E+03</rscale>
<asrwt>0</asrwt>
<pdfrwt beam="1">  1       11 0.10000000E+01 0.16977032E+03</pdfrwt>
<pdfrwt beam="2">  1        2 0.17053753E-01 0.16734718E+03</pdfrwt>
<totfact> 0.40614388E+02</totfact>
</mgrwt>
</event>
<event>
 5    1  0.2804411E-003  0.2849535E+03  0.7818608E-02  0.1641901E+00
         11   -1    0    0    0    0  0.00000000000E+00  0.00000000000E+00  0.10003825257E+04  0.10003825257E+04  0.51100000000E-03 0.  1.
          2   -1    0    0  501    0 -0.00000000000E+00 -0.00000000000E+00 -0.94067111202E+03  0.94067111202E+03  0.25500000000E-02 0.  1.
         11    1    1    2    0    0  0.24131456507E+03 -0.15676407214E+03  0.17800109922E+03  0.33836679056E+03  0.51100000000E-03 0.  1.
         22    1    1    2    0    0 -0.22326880068E+03  0.17600978114E+03  0.71475608219E+03  0.76922341192E+03  0.00000000000E+00 0.  1.
          2    1    1    2  501    0 -0.18045764383E+02 -0.19245708994E+02 -0.83304576767E+03  0.83346343529E+03  0.25500000000E-02 0.  1.
<mgrwt>
<rscale>  0 0.26382701E+02</rscale>
<asrwt>0</asrwt>
<pdfrwt beam="1">  1       11 0.10000000E+01 0.28495348E+03</pdfrwt>
<pdfrwt beam="2">  1        2 0.14477399E+00 0.26382701E+02</pdfrwt>
<totfact> 0.39919742E+01</totfact>
</mgrwt>
</event>
<event>
 5    1  0.2804411E-003  0.1148779E+03  0.7818608E-02  0.1269754E+00
         11   -1    0    0    0    0  0.00000000000E+00  0.00000000000E+00  0.10002084031E+04  0.10002084031E+04  0.51100000000E-03 0. -1.
          2   -1    0    0  501    0 -0.00000000000E+00 -0.00000000000E+00 -0.12480030006E+02  0.12480030266E+02  0.25500000000E-02 0. -1.
         11    1    1    2    0    0  0.72214519514E+02  0.42148417535E+02  0.27683878315E+03  0.28919048702E+03  0.51100000000E-03 0. -1.
         22    1    1    2    0    0  0.27737191923E+02 -0.93803229235E+01  0.15037054997E+03  0.15319479290E+03  0.00000000000E+00 0. -1.
          2    1    1    2  501    0 -0.99951711437E+02 -0.32768094611E+02  0.56051904000E+03  0.57030315347E+03  0.25500000000E-02 0. -1.
<mgrwt>
<rscale>  0 0.10518599E+03</rscale>
<asrwt>0</asrwt>
<pdfrwt beam="1">  1       11 0.10000000E+01 0.11487786E+03</pdfrwt>
<pdfrwt beam="2">  1        2 0.19204047E-02 0.10518599E+03</pdfrwt>
<totfact> 0.64023121E+03</totfact>
</mgrwt>
</event>
<event>
 5    1  0.2804411E-003  0.1188753E+03  0.7818608E-02  0.1354773E+00
         11   -1    0    0    0    0  0.00000000000E+00  0.00000000000E+00  0.10002613757E+04  0.10002613757E+04  0.51100000000E-03 0. -1.
          2   -1    0    0  501    0 -0.00000000000E+00 -0.00000000000E+00 -0.12950600515E+03  0.12950600518E+03  0.25500000000E-02 0. -1.
         11    1    1    2    0    0  0.11129704183E+03 -0.13373361279E+03  0.37308883839E+03  0.41166368803E+03  0.51100000000E-03 0. -1.
         22    1    1    2    0    0 -0.53719403652E+02  0.91192498063E+02  0.59104198440E+03  0.60044356384E+03  0.00000000000E+00 0. -1.
          2    1    1    2  501    0 -0.57577638176E+02  0.42541114728E+02 -0.93375452266E+02  0.11766012898E+03  0.25500000000E-02 0. -1.
<mgrwt>
<rscale>  0 0.71588622E+02</rscale>
<asrwt>0</asrwt>
<pdfrwt beam="1">  1       11 0.10000000E+01 0.11887529E+03</pdfrwt>
<pdfrwt beam="2">  1        2 0.19929208E-01 0.71588622E+02</pdfrwt>
<totfact> 0.32951749E+02</totfact>
</mgrwt>
</event>
<event>
 5    1  0.2804411E-003  0.8968261E+02  0.7818608E-02  0.1509943E+00
         11   -1    0    0    0    0  0.00000000000E+00  0.00000000000E+00  0.10004840720E+04  0.10004840720E+04  0.51100000000E-03 0. -1.
          2   -1    0    0  501    0 -0.00000000000E+00 -0.00000000000E+00 -0.98321964735E+01  0.98321968042E+01  0.25500000000E-02 0.  1.
         11    1    1    2    0    0 -0.93865929902E+02 -0.25080550110E+01  0.48691955635E+03  0.49589087256E+03  0.51100000000E-03 0. -1.
         22    1    1    2    0    0  0.84798275065E+01  0.15459262836E+02  0.70743521439E+02  0.72907764385E+02  0.00000000000E+00 0.  1.
          2    1    1    2  501    0  0.85386102396E+02 -0.12951207825E+02  0.43298879774E+03  0.44151763186E+03  0.25500000000E-02 0.  1.
<mgrwt>
<rscale>  0 0.39765631E+02</rscale>
<asrwt>0</asrwt>
<pdfrwt beam="1">  1       11 0.10000000E+01 0.89682606E+02</pdfrwt>
<pdfrwt beam="2">  1        2 0.15133778E-02 0.39765631E+02</pdfrwt>
<totfact> 0.76211959E+03</totfact>
</mgrwt>
</event>
<event>
 5    1  0.2804411E-003  0.2295986E+03  0.7818608E-02  0.1126923E+00
         11   -1    0    0    0    0  0.00000000000E+00  0.00000000000E+00  0.99995875406E+03  0.99995875406E+03  0.51100000000E-03 0.  1.
          2   -1    0    0  501    0 -0.00000000000E+00 -0.00000000000E+00 -0.12280743447E+03  0.12280743450E+03  0.25500000000E-02 0.  1.
         11    1    1    2    0    0 -0.25148069996E+02  0.22937308337E+03  0.81557093789E+03  0.84758503498E+03  0.51100000000E-03 0.  1.
         22    1    1    2    0    0 -0.17625734688E+02 -0.38762685916E+01  0.40935089580E+02  0.44736713563E+02  0.00000000000E+00 0. -1.
          2    1    1    2  501    0  0.42773804684E+02 -0.22549681478E+03  0.20645292123E+02  0.23044444002E+03  0.25500000000E-02 0.  1.
<mgrwt>
<rscale>  0 0.22959865E+03</rscale>
<asrwt>0</asrwt>
<pdfrwt beam="1">  1       11 0.10000000E+01 0.18046938E+02</pdfrwt>
<pdfrwt beam="2">  1        2 0.18892672E-01 0.22959865E+03</pdfrwt>
<totfact> 0.36447910E+02</totfact>
</mgrwt>
</event>
<event>
 5    1  0.2804411E-003  0.1833377E+03  0.7818608E-02  0.1167909E+00
         11   -1    0    0    0    0  0.00000000000E+00  0.00000000000E+00  0.10001916883E+04  0.10001916883E+04  0.51100000000E-03 0. -1.
          2   -1    0    0  501    0 -0.00000000000E+00 -0.00000000000E+00 -0.33513891721E+02  0.33513891818E+02  0.25500000000E-02 0. -1.
         11    1    1    2    0    0  0.16224687674E+03 -0.45788573600E+02  0.37652021429E+03  0.41253862153E+03  0.51100000000E-03 0. -1.
         22    1    1    2    0    0  0.12951250434E+02  0.49681248316E+01  0.45942284039E+02  0.47990734677E+02  0.00000000000E+00 0.  1.
          2    1    1    2  501    0 -0.17519812717E+03  0.40820448768E+02  0.54421529825E+03  0.57317622391E+03  0.25500000000E-02 0. -1.
<mgrwt>
<rscale>  0 0.17989078E+03</rscale>
<asrwt>0</asrwt>
<pdfrwt beam="1">  1       11 0.10000000E+01 0.18333774E+03</pdfrwt>
<pdfrwt beam="2">  1        2 0.51569715E-02 0.17989078E+03</pdfrwt>
<totfact> 0.17994065E+03</totfact>
</mgrwt>
</event>
<event>
 5    1  0.2804411E-003  0.1924640E+03  0.7818608E-02  0.1164456E+00
         11   -1    0    0    0    0  0.00000000000E+00  0.00000000000E+00  0.10001745872E+04  0.10001745872E+04  0.51100000000E-03 0. -1.
         -2   -1    0    0    0  501 -0.00000000000E+00 -0.00000000000E+00 -0.62811276990E+02  0.62811277042E+02  0.25500000000E-02 0.  1.
         11    1    1    2    0    0  0.40404000074E+02  0.11124592730E+03  0.64150083602E+03  0.65232772606E+03  0.51100000000E-03 0. -1.
         22    1    1    2    0    0  0.31125612279E+02  0.57741129268E+02  0.18495722329E+03  0.19624478642E+03  0.00000000000E+00 0. -1.
         -2    1    1    2    0  501 -0.71529612353E+02 -0.16898705657E+03  0.11090525089E+03  0.21441335176E+03  0.25500000000E-02 0.  1.
<mgrwt>
<rscale>  0 0.18350235E+03</rscale>
<asrwt>0</asrwt>
<pdfrwt beam="1">  1       11 0.10000000E+01 0.19246398E+03</pdfrwt>
<pdfrwt beam="2">  1       -2 0.96649602E-02 0.18350235E+03</pdfrwt>
<totfact> 0.54822359E+02</totfact>
</mgrwt>
</event>
<event>
 5    1  0.2804411E-003  0.3448624E+02  0.7818608E-02  0.1757920E+00
         11   -1    0    0    0    0  0.00000000000E+00  0.00000000000E+00  0.99994633335E+03  0.99994633335E+03  0.51100000000E-03 0. -1.
          2   -1    0    0  501    0 -0.00000000000E+00 -0.00000000000E+00 -0.33779668196E+01  0.33779677821E+01  0.25500000000E-02 0. -1.
         11    1    1    2    0    0 -0.26930112031E+02  0.30366894810E+02  0.17072520070E+03  0.17548354165E+03  0.51100000000E-03 0. -1.
         22    1    1    2    0    0 -0.55075917666E+00 -0.10878337713E+02  0.46068414556E+02  0.47338571871E+02  0.00000000000E+00 0.  1.
          2    1    1    2  501    0  0.27480871208E+02 -0.19488557097E+02  0.77977475127E+03  0.78050218761E+03  0.25500000000E-02 0. -1.
<mgrwt>
<rscale>  0 0.19381260E+02</rscale>
<asrwt>0</asrwt>
<pdfrwt beam="1">  1       11 0.10000000E+01 0.34486235E+02</pdfrwt>
<pdfrwt beam="2">  1        2 0.51965937E-03 0.19381260E+02</pdfrwt>
<totfact> 0.26477163E+04</totfact>
</mgrwt>
</event>
<event>
 5    1  0.2804411E-003  0.9953555E+02  0.7818608E-02  0.1577466E+00
         11   -1    0    0    0    0  0.00000000000E+00  0.00000000000E+00  0.10000502396E+04  0.10000502396E+04  0.51100000000E-03 0. -1.
          2   -1    0    0  501    0 -0.00000000000E+00 -0.00000000000E+00 -0.13710939720E+02  0.13710939957E+02  0.25500000000E-02 0. -1.
         11    1    1    2    0    0 -0.71652016603E+02 -0.76387244981E+02  0.35366918779E+03  0.36885080598E+03  0.51100000000E-03 0. -1.
         22    1    1    2    0    0  0.10173869876E+02  0.13011384547E+01  0.87312090078E+01  0.13469766155E+02  0.00000000000E+00 0. -1.
          2    1    1    2  501    0  0.61478146726E+02  0.75086106526E+02  0.62393890312E+03  0.63144060746E+03  0.25500000000E-02 0. -1.
<mgrwt>
<rscale>  0 0.31951669E+02</rscale>
<asrwt>0</asrwt>
<pdfrwt beam="1">  1       11 0.10000000E+01 0.99535553E+02</pdfrwt>
<pdfrwt beam="2">  1        2 0.21094813E-02 0.31951669E+02</pdfrwt>
<totfact> 0.47538618E+03</totfact>
</mgrwt>
</event>
<event>
 5    1  0.2804411E-003  0.1870545E+03  0.7818608E-02  0.1161145E+00
         11   -1    0    0    0    0  0.00000000000E+00  0.00000000000E+00  0.10000332992E+04  0.10000332992E+04  0.51100000000E-03 0.  1.
          2   -1    0    0  501    0 -0.00000000000E+00 -0.00000000000E+00 -0.47629900230E+02  0.47629900298E+02  0.25500000000E-02 0.  1.
         11    1    1    2    0    0 -0.17743135089E+03 -0.42823856374E+02  0.67633557129E+03  0.70053234896E+03  0.51100000000E-03 0.  1.
         22    1    1    2    0    0 -0.36265818561E+01 -0.10665540685E+02  0.56251111825E+02  0.57368052395E+02  0.00000000000E+00 0. -1.
          2    1    1    2  501    0  0.18105793274E+03  0.53489397059E+02  0.21981671584E+03  0.28976279812E+03  0.25500000000E-02 0.  1.
<mgrwt>
<rscale>  0 0.18705453E+03</rscale>
<asrwt>0</asrwt>
<pdfrwt beam="1">  1       11 0.10000000E+01 0.11265250E+02</pdfrwt>
<pdfrwt beam="2">  1        2 0.73279208E-02 0.18705453E+03</pdfrwt>
<totfact> 0.11444710E+03</totfact>
</mgrwt>
</event>
<event>
 5    1  0.2804411E-003  0.4182240E+03  0.7818608E-02  0.1037646E+00
         11   -1    0    0    0    0  0.00000000000E+00  0.00000000000E+00  0.99979963524E+03  0.99979963524E+03  0.51100000000E-03 0. -1.
          2   -1    0    0  501    0 -0.00000000000E+00 -0.00000000000E+00 -0.87388658693E+03  0.87388658694E+03  0.25500000000E-02 0. -1.
         11    1    1    2    0    0 -0.43786897381E+03 -0.72641035747E+02  0.78635499397E+03  0.90297294248E+03  0.51100000000E-03 0. -1.
         22    1    1    2    0    0  0.24264116951E+02  0.13169522543E+03  0.52935221930E+02  0.14399485231E+03  0.00000000000E+00 0. -1.
          2    1    1    2  501    0  0.41360485686E+03 -0.59054189683E+02 -0.71337716759E+03  0.82671842739E+03  0.25500000000E-02 0. -1.
<mgrwt>
<rscale>  0 0.41822396E+03</rscale>
<asrwt>0</asrwt>
<pdfrwt beam="1">  1       11 0.10000000E+01 0.13391184E+03</pdfrwt>
<pdfrwt beam="2">  1        2 0.13441715E+00 0.41822396E+03</pdfrwt>
<totfact> 0.38832259E+01</totfact>
</mgrwt>
</event>
<event>
 5    1  0.2804411E-003  0.1287457E+03  0.7818608E-02  0.1234658E+00
         11   -1    0    0    0    0  0.00000000000E+00  0.00000000000E+00  0.99982086877E+03  0.99982086877E+03  0.51100000000E-03 0. -1.
         -2   -1    0    0    0  501 -0.00000000000E+00 -0.00000000000E+00 -0.17820474823E+02  0.17820475006E+02  0.25500000000E-02 0.  1.
         11    1    1    2    0    0  0.98527084464E+01 -0.16262526996E+02  0.55603912022E+02  0.58765131501E+02  0.51100000000E-03 0. -1.
         22    1    1    2    0    0  0.40754113383E+02 -0.98323069198E+02  0.59805041085E+03  0.60744762541E+03  0.00000000000E+00 0. -1.
         -2    1    1    2    0  501 -0.50606821829E+02  0.11458559619E+03  0.32834607108E+03  0.35142858687E+03  0.25500000000E-02 0.  1.
<mgrwt>
<rscale>  0 0.12526336E+03</rscale>
<asrwt>0</asrwt>
<pdfrwt beam="1">  1       11 0.10000000E+01 0.12874573E+03</pdfrwt>
<pdfrwt beam="2">  1       -2 0.27411203E-02 0.12526336E+03</pdfrwt>
<totfact> 0.35680837E+03</totfact>
</mgrwt>
</event>
<event>
 5    1  0.2804411E-003  0.1311584E+03  0.7818608E-02  0.1229385E+00
         11   -1    0    0    0    0  0.00000000000E+00  0.00000000000E+00  0.10004579193E+04  0.10004579193E+04  0.51100000000E-03 0.  1.
         -2   -1    0    0    0  501 -0.00000000000E+00 -0.00000000000E+00 -0.17409889708E+02  0.17409889895E+02  0.25500000000E-02 0.  1.
         11    1    1    2    0    0 -0.10286908107E+03  0.13324524514E+02  0.51110745351E+03  0.52152700777E+03  0.51100000000E-03 0.  1.
         22    1    1    2    0    0 -0.24836656507E+02  0.27099580544E+01  0.74113181113E+02  0.78211041380E+02  0.00000000000E+00 0. -1.
         -2    1    1    2    0  501  0.12770573758E+03 -0.16034482569E+02  0.39782739492E+03  0.41812976000E+03  0.25500000000E-02 0.  1.
<mgrwt>
<rscale>  0 0.12870843E+03</rscale>
<asrwt>0</asrwt>
<pdfrwt beam="1">  1       11 0.10000000E+01 0.13115844E+03</pdfrwt>
<pdfrwt beam="2">  1       -2 0.26796710E-02 0.12870843E+03</pdfrwt>
<totfact> 0.36996734E+03</totfact>
</mgrwt>
</event>
<event>
 5    1  0.2804411E-003  0.1113455E+03  0.7818608E-02  0.1551308E+00
         11   -1    0    0    0    0  0.00000000000E+00  0.00000000000E+00  0.99978084125E+03  0.99978084125E+03  0.51100000000E-03 0. -1.
          2   -1    0    0  501    0 -0.00000000000E+00 -0.00000000000E+00 -0.17462520566E+02  0.17462520753E+02  0.25500000000E-02 0. -1.
         11    1    1    2    0    0 -0.88811736223E+02 -0.58895220234E+02  0.24003971619E+03  0.26263137057E+03  0.51100000000E-03 0. -1.
         22    1    1    2    0    0 -0.50345423812E+00 -0.10800381739E+02  0.14601806737E+02  0.18169052585E+02  0.00000000000E+00 0. -1.
          2    1    1    2  501    0  0.89315190461E+02  0.69695601973E+02  0.72767679776E+03  0.73644293885E+03  0.25500000000E-02 0. -1.
<mgrwt>
<rscale>  0 0.34696967E+02</rscale>
<asrwt>0</asrwt>
<pdfrwt beam="1">  1       11 0.10000000E+01 0.11134553E+03</pdfrwt>
<pdfrwt beam="2">  1        2 0.26859528E-02 0.34696967E+02</pdfrwt>
<totfact> 0.35242487E+03</totfact>
</mgrwt>
</event>
<event>
 5    1  0.2804411E-003  0.2060820E+03  0.7818608E-02  0.1147782E+00
         11   -1    0    0    0    0  0.00000000000E+00  0.00000000000E+00  0.10001294049E+04  0.10001294049E+04  0.51100000000E-03 0. -1.
         -2   -1    0    0    0  501 -0.00000000000E+00 -0.00000000000E+00 -0.43741380193E+02  0.43741380267E+02  0.25500000000E-02 0. -1.
         11    1    1    2    0    0 -0.10325717594E+03  0.13779635257E+03  0.32766318514E+03  0.37015272802E+03  0.51100000000E-03 0. -1.
         22    1    1    2    0    0 -0.28189134300E+02  0.16028749579E+02  0.41854211670E+02  0.52946417633E+02  0.00000000000E+00 0. -1.
         -2    1    1    2    0  501  0.13144631024E+03 -0.15382510215E+03  0.58687062785E+03  0.62077163947E+03  0.25500000000E-02 0. -1.
<mgrwt>
<rscale>  0 0.20233708E+03</rscale>
<asrwt>0</asrwt>
<pdfrwt beam="1">  1       11 0.10000000E+01 0.20608198E+03</pdfrwt>
<pdfrwt beam="2">  1       -2 0.67303137E-02 0.20233708E+03</pdfrwt>
<totfact> 0.96963123E+02</totfact>
</mgrwt>
</event>
<event>
 5    1  0.2804411E-003  0.1016298E+03  0.7818608E-02  0.1284668E+00
         11   -1    0    0    0    0  0.00000000000E+00  0.00000000000E+00  0.10001877335E+04  0.10001877335E+04  0.51100000000E-03 0. -1.
          2   -1    0    0  501    0 -0.00000000000E+00 -0.00000000000E+00 -0.10023419714E+02  0.10023420039E+02  0.25500000000E-02 0. -1.
         11    1    1    2    0    0  0.57733237785E+02  0.68989767105E+02  0.39788677288E+03  0.40792964925E+03  0.51100000000E-03 0. -1.
         22    1    1    2    0    0 -0.15502916418E+01  0.11244455237E+02  0.64869382684E+02  0.65854976938E+02  0.00000000000E+00 0.  1.
          2    1    1    2  501    0 -0.56182946143E+02 -0.80234222342E+02  0.52740815827E+03  0.53642652739E+03  0.25500000000E-02 0. -1.
<mgrwt>
<rscale>  0 0.97949241E+02</rscale>
<asrwt>0</asrwt>
<pdfrwt beam="1">  1       11 0.10000000E+01 0.10162978E+03</pdfrwt>
<pdfrwt beam="2">  1        2 0.15423540E-02 0.97949241E+02</pdfrwt>
<totfact> 0.85428494E+03</totfact>
</mgrwt>
</event>
<event>
 5    1  0.2804411E-003  0.6140499E+02  0.7818608E-02  0.1561331E+00
         11   -1    0    0    0    0  0.00000000000E+00  0.00000000000E+00  0.10003586250E+04  0.10003586250E+04  0.51100000000E-03 0.  1.
          2   -1    0    0  501    0 -0.00000000000E+00 -0.00000000000E+00 -0.17998465817E+02  0.17998465998E+02  0.25500000000E-02 0.  1.
         11    1    1    2    0    0 -0.40926484674E+02 -0.37081543007E+02  0.48823552913E+02  0.73714023760E+02  0.51100000000E-03 0.  1.
         22    1    1    2    0    0  0.88680540777E+01 -0.16114022505E+02  0.14266976377E+02  0.23277687156E+02  0.00000000000E+00 0. -1.
          2    1    1    2  501    0  0.32058430596E+02  0.53195565512E+02  0.91926962988E+03  0.92136538007E+03  0.25500000000E-02 0.  1.
<mgrwt>
<rscale>  0 0.33606906E+02</rscale>
<asrwt>0</asrwt>
<pdfrwt beam="1">  1       11 0.10000000E+01 0.61404989E+02</pdfrwt>
<pdfrwt beam="2">  1        2 0.27699877E-02 0.33606906E+02</pdfrwt>
<totfact> 0.33709049E+03</totfact>
</mgrwt>
</event>
<event>
 5    1  0.2804411E-003  0.1877361E+03  0.7818608E-02  0.1160519E+00
         11   -1    0    0    0    0  0.00000000000E+00  0.00000000000E+00  0.99979489624E+03  0.99979489624E+03  0.51100000000E-03 0. -1.
          2   -1    0    0  501    0 -0.00000000000E+00 -0.00000000000E+00 -0.11810048490E+03  0.11810048492E+03  0.25500000000E-02 0. -1.
         11    1    1    2    0    0 -0.24223166130E+01 -0.10960327638E+02  0.41020525194E+02  0.42528577300E+02  0.51100000000E-03 0. -1.
         22    1    1    2    0    0  0.16517065962E+03 -0.83200585997E+02  0.86610449195E+03  0.88563010071E+03  0.00000000000E+00 0. -1.
          2    1    1    2  501    0 -0.16274834301E+03  0.94160913635E+02 -0.25430605793E+02  0.18973670316E+03  0.25500000000E-02 0. -1.
<mgrwt>
<rscale>  0 0.18773614E+03</rscale>
<asrwt>0</asrwt>
<pdfrwt beam="1">  1       11 0.10000000E+01 0.11224812E+02</pdfrwt>
<pdfrwt beam="2">  1        2 0.18165578E-01 0.18773614E+03</pdfrwt>
<totfact> 0.37900674E+02</totfact>
</mgrwt>
</event>
<event>
 5    1  0.2804411E-003  0.1527642E+03  0.7818608E-02  0.1201628E+00
         11   -1    0    0    0    0  0.00000000000E+00  0.00000000000E+00  0.99997628055E+03  0.99997628055E+03  0.51100000000E-03 0. -1.
         -2   -1    0    0    0  501 -0.00000000000E+00 -0.00000000000E+00 -0.33574891817E+02  0.33574891914E+02  0.25500000000E-02 0.  1.
         11    1    1    2    0    0  0.95432670044E+02  0.84940303197E+02  0.64742479651E+03  0.65990993079E+03  0.51100000000E-03 0. -1.
         22    1    1    2    0    0  0.60592114097E+01  0.24236238905E+02  0.13286288369E+03  0.13519118012E+03  0.00000000000E+00 0.  1.
         -2    1    1    2    0  501 -0.10149188145E+03 -0.10917654210E+03  0.18611370854E+03  0.23845006156E+03  0.25500000000E-02 0.  1.
<mgrwt>
<rscale>  0 0.14906415E+03</rscale>
<asrwt>0</asrwt>
<pdfrwt beam="1">  1       11 0.10000000E+01 0.15276424E+03</pdfrwt>
<pdfrwt beam="2">  1       -2 0.51652453E-02 0.14906415E+03</pdfrwt>
<totfact> 0.14180287E+03</totfact>
</mgrwt>
</event>
<event>
 5    1  0.2804411E-003  0.3737133E+02  0.7818608E-02  0.1534248E+00
         11   -1    0    0    0    0  0.00000000000E+00  0.00000000000E+00  0.10000583312E+04  0.10000583312E+04  0.51100000000E-03 0. -1.
         -2   -1    0    0    0  501 -0.00000000000E+00 -0.00000000000E+00 -0.24715094577E+01  0.24715107732E+01  0.25500000000E-02 0. -1.
         11    1    1    2    0    0  0.13283140105E+02 -0.19848014406E+02  0.93068723177E+02  0.96084196000E+02  0.51100000000E-03 0. -1.
         22    1    1    2    0    0  0.87979793857E+01 -0.94289885325E+01  0.73779980435E+02  0.74898569940E+02  0.00000000000E+00 0.  1.
         -2    1    1    2    0  501 -0.22081119491E+02  0.29277002939E+02  0.83073811816E+03  0.83154707606E+03  0.25500000000E-02 0. -1.
<mgrwt>
<rscale>  0 0.36670407E+02</rscale>
<asrwt>0</asrwt>
<pdfrwt beam="1">  1       11 0.10000000E+01 0.37371331E+02</pdfrwt>
<pdfrwt beam="2">  1       -2 0.38025449E-03 0.36670407E+02</pdfrwt>
<totfact> 0.46236252E+04</totfact>
</mgrwt>
</event>
<event>
 5    1  0.2804411E-003  0.9994784E+02  0.7818608E-02  0.1683897E+00
         11   -1    0    0    0    0  0.00000000000E+00  0.00000000000E+00  0.10001817214E+04  0.10001817214E+04  0.51100000000E-03 0.  1.
          2   -1    0    0  501    0 -0.00000000000E+00 -0.00000000000E+00 -0.26458490531E+02  0.26458490654E+02  0.25500000000E-02 0.  1.
         11    1    1    2    0    0  0.36058329450E+02 -0.82828373522E+02  0.46770906558E+03  0.47635334848E+03  0.51100000000E-03 0.  1.
         22    1    1    2    0    0 -0.44960978204E+02  0.10455165926E+03  0.51325280015E+03  0.52571948401E+03  0.00000000000E+00 0.  1.
          2    1    1    2  501    0  0.89026487535E+01 -0.21723285736E+02 -0.72386348452E+01  0.24567379570E+02  0.25500000000E-02 0.  1.
<mgrwt>
<rscale>  0 0.23476761E+02</rscale>
<asrwt>0</asrwt>
<pdfrwt beam="1">  1       11 0.10000000E+01 0.99947844E+02</pdfrwt>
<pdfrwt beam="2">  1        2 0.40712766E-02 0.23476761E+02</pdfrwt>
<totfact> 0.19650801E+03</totfact>
</mgrwt>
</event>
<event>
 5    1  0.2804411E-003  0.9653286E+02  0.7818608E-02  0.1565852E+00
         11   -1    0    0    0    0  0.00000000000E+00  0.00000000000E+00  0.10004867670E+04  0.10004867670E+04  0.51100000000E-03 0. -1.
          2   -1    0    0  501    0 -0.00000000000E+00 -0.00000000000E+00 -0.16628780059E+04  0.16628780059E+04  0.25500000000E-02 0. -1.
         11    1    1    2    0    0  0.37369220878E+02 -0.10376676346E+03  0.63960350609E+03  0.64904286828E+03  0.51100000000E-03 0. -1.
         22    1    1    2    0    0 -0.12027608410E+02  0.82425046939E+02  0.35112498595E+03  0.36087020864E+03  0.00000000000E+00 0. -1.
          2    1    1    2  501    0 -0.25341612468E+02  0.21341716517E+02 -0.16531197309E+04  0.16534516960E+04  0.25500000000E-02 0. -1.
<mgrwt>
<rscale>  0 0.33131046E+02</rscale>
<asrwt>0</asrwt>
<pdfrwt beam="1">  1       11 0.10000000E+01 0.96532860E+02</pdfrwt>
<pdfrwt beam="2">  1        2 0.25595191E+00 0.33131046E+02</pdfrwt>
<totfact> 0.16957135E+01</totfact>
</mgrwt>
</event>
<event>
 5    1  0.2804411E-003  0.1308810E+03  0.7818608E-02  0.1660711E+00
         11   -1    0    0    0    0  0.00000000000E+00  0.00000000000E+00  0.10001399595E+04  0.10001399595E+04  0.51100000000E-03 0.  1.
          2   -1    0    0  501    0 -0.00000000000E+00 -0.00000000000E+00 -0.14557545475E+03  0.14557545477E+03  0.25500000000E-02 0.  1.
         11    1    1    2    0    0 -0.15266631875E+02  0.13774136896E+03  0.33110005492E+03  0.35893314300E+03  0.51100000000E-03 0.  1.
         22    1    1    2    0    0  0.35486537301E+02 -0.12300476402E+03  0.64760897491E+03  0.66014153837E+03  0.00000000000E+00 0.  1.
          2    1    1    2  501    0 -0.20219905426E+02 -0.14736604944E+02 -0.12414452511E+03  0.12664073287E+03  0.25500000000E-02 0.  1.
<mgrwt>
<rscale>  0 0.25020234E+02</rscale>
<asrwt>0</asrwt>
<pdfrwt beam="1">  1       11 0.10000000E+01 0.13088101E+03</pdfrwt>
<pdfrwt beam="2">  1        2 0.22399358E-01 0.25020234E+02</pdfrwt>
<totfact> 0.27658772E+02</totfact>
</mgrwt>
</event>
<event>
 5    1  0.2804411E-003  0.1353927E+03  0.7818608E-02  0.1219666E+00
         11   -1    0    0    0    0  0.00000000000E+00  0.00000000000E+00  0.10002443954E+04  0.10002443954E+04  0.51100000000E-03 0. -1.
         -2   -1    0    0    0  501 -0.00000000000E+00 -0.00000000000E+00 -0.18261873365E+02  0.18261873543E+02  0.25500000000E-02 0.  1.
         11    1    1    2    0    0 -0.69474373424E+02 -0.10895292002E+03  0.58396845877E+03  0.59809412986E+03  0.51100000000E-03 0. -1.
         22    1    1    2    0    0  0.15297445176E+02  0.21308215951E+01  0.52609720213E+02  0.54830054628E+02  0.00000000000E+00 0. -1.
         -2    1    1    2    0  501  0.54176928248E+02  0.10682209842E+03  0.34540434309E+03  0.36558208449E+03  0.25500000000E-02 0.  1.
<mgrwt>
<rscale>  0 0.13539266E+03</rscale>
<asrwt>0</asrwt>
<pdfrwt beam="1">  1       11 0.10000000E+01 0.12921853E+03</pdfrwt>
<pdfrwt beam="2">  1       -2 0.28102055E-02 0.13539266E+03</pdfrwt>
<totfact> 0.34702182E+03</totfact>
</mgrwt>
</event>
<event>
 5    1  0.2804411E-003  0.1184325E+03  0.7818608E-02  0.1253335E+00
         11   -1    0    0    0    0  0.00000000000E+00  0.00000000000E+00  0.10001193953E+04  0.10001193953E+04  0.51100000000E-03 0.  1.
          2   -1    0    0  501    0 -0.00000000000E+00 -0.00000000000E+00 -0.13884526472E+02  0.13884526707E+02  0.25500000000E-02 0.  1.
         11    1    1    2    0    0  0.42571069225E+02 -0.32618626789E+01  0.19638872848E+03  0.20097628804E+03  0.51100000000E-03 0.  1.
         22    1    1    2    0    0  0.60718781695E+02 -0.44981551244E+02  0.38971283294E+03  0.39697128682E+03  0.00000000000E+00 0.  1.
          2    1    1    2  501    0 -0.10328985092E+03  0.48243413923E+02  0.40013330741E+03  0.41605634714E+03  0.25500000000E-02 0.  1.
<mgrwt>
<rscale>  0 0.11400097E+03</rscale>
<asrwt>0</asrwt>
<pdfrwt beam="1">  1       11 0.10000000E+01 0.11843252E+03</pdfrwt>
<pdfrwt beam="2">  1        2 0.21363360E-02 0.11400097E+03</pdfrwt>
<totfact> 0.55964648E+03</totfact>
</mgrwt>
</event>
<event>
 5    1  0.2804411E-003  0.2337936E+03  0.7818608E-02  0.1132524E+00
         11   -1    0    0    0    0  0.00000000000E+00  0.00000000000E+00  0.10008340152E+04  0.10008340152E+04  0.51100000000E-03 0. -1.
         -2   -1    0    0    0  501 -0.00000000000E+00 -0.00000000000E+00 -0.17938576263E+04  0.17938576263E+04  0.25500000000E-02 0.  1.
         11    1    1    2    0    0 -0.46429211501E+01  0.13347969971E+03  0.72300455170E+03  0.73523735537E+03  0.51100000000E-03 0. -1.
         22    1    1    2    0    0  0.18945152192E+02  0.87891824462E+02  0.25716996636E+03  0.27243399788E+03  0.00000000000E+00 0. -1.
         -2    1    1    2    0  501 -0.14302231042E+02 -0.22137152417E+03 -0.17731981292E+04  0.17870202883E+04  0.25500000000E-02 0.  1.
<mgrwt>
<rscale>  0 0.22183306E+03</rscale>
<asrwt>0</asrwt>
<pdfrwt beam="1">  1       11 0.10000000E+01 0.23379365E+03</pdfrwt>
<pdfrwt beam="2">  1       -2 0.27620826E+00 0.22183306E+03</pdfrwt>
<totfact> 0.41732589E-01</totfact>
</mgrwt>
</event>
<event>
 5    1  0.2804411E-003  0.8663390E+02  0.7818608E-02  0.1576638E+00
         11   -1    0    0    0    0  0.00000000000E+00  0.00000000000E+00  0.99979305725E+03  0.99979305725E+03  0.51100000000E-03 0. -1.
          2   -1    0    0  501    0 -0.00000000000E+00 -0.00000000000E+00 -0.19151469381E+02  0.19151469550E+02  0.25500000000E-02 0. -1.
         11    1    1    2    0    0  0.55787879975E+02 -0.65093078612E+02  0.16317046597E+03  0.18432036621E+03  0.51100000000E-03 0. -1.
         22    1    1    2    0    0  0.92716169935E+01  0.73712960475E+01 -0.67885023894E+00  0.11864220360E+02  0.00000000000E+00 0. -1.
          2    1    1    2  501    0 -0.65059496969E+02  0.57721782565E+02  0.81814997214E+03  0.82275994023E+03  0.25500000000E-02 0. -1.
<mgrwt>
<rscale>  0 0.32033721E+02</rscale>
<asrwt>0</asrwt>
<pdfrwt beam="1">  1       11 0.10000000E+01 0.86633902E+02</pdfrwt>
<pdfrwt beam="2">  1        2 0.29457701E-02 0.32033721E+02</pdfrwt>
<totfact> 0.30928274E+03</totfact>
</mgrwt>
</event>
<event>
 5    1  0.2804411E-003  0.1839147E+03  0.7818608E-02  0.1164067E+00
         11   -1    0    0    0    0  0.00000000000E+00  0.00000000000E+00  0.99999623398E+03  0.99999623398E+03  0.51100000000E-03 0. -1.
          2   -1    0    0  501    0 -0.00000000000E+00 -0.00000000000E+00 -0.14256805422E+03  0.14256805424E+03  0.25500000000E-02 0. -1.
         11    1    1    2    0    0 -0.19190914960E+03 -0.50811836160E+01  0.68147486655E+03  0.70799924708E+03  0.51100000000E-03 0. -1.
         22    1    1    2    0    0  0.15442366795E+02  0.57031709321E+02  0.23425559208E+03  0.24159214595E+03  0.00000000000E+00 0.  1.
          2    1    1    2  501    0  0.17646678280E+03 -0.51950525705E+02 -0.58302278872E+02  0.19297289520E+03  0.25500000000E-02 0. -1.
<mgrwt>
<rscale>  0 0.18391471E+03</rscale>
<asrwt>0</asrwt>
<pdfrwt beam="1">  1       11 0.10000000E+01 0.59085384E+02</pdfrwt>
<pdfrwt beam="2">  1        2 0.21933464E-01 0.18391471E+03</pdfrwt>
<totfact> 0.30546728E+02</totfact>
</mgrwt>
</event>
<event>
 5    1  0.2804411E-003  0.3555268E+02  0.7818608E-02  0.1549926E+00
         11   -1    0    0    0    0  0.00000000000E+00  0.00000000000E+00  0.10002609811E+04  0.10002609811E+04  0.51100000000E-03 0. -1.
          2   -1    0    0  501    0 -0.00000000000E+00 -0.00000000000E+00 -0.31205693282E+01  0.31205703701E+01  0.25500000000E-02 0. -1.
         11    1    1    2    0    0 -0.13763469353E+02 -0.18608613109E+02  0.62564949411E+02  0.66708968404E+02  0.51100000000E-03 0. -1.
         22    1    1    2    0    0 -0.56632496536E+01 -0.10325962504E+02  0.48405416666E+02  0.49817489508E+02  0.00000000000E+00 0.  1.
          2    1    1    2  501    0  0.19426719007E+02  0.28934575612E+02  0.88617004572E+03  0.88685509358E+03  0.25500000000E-02 0. -1.
<mgrwt>
<rscale>  0 0.34851214E+02</rscale>
<asrwt>0</asrwt>
<pdfrwt beam="1">  1       11 0.10000000E+01 0.35552683E+02</pdfrwt>
<pdfrwt beam="2">  1        2 0.48021295E-03 0.34851214E+02</pdfrwt>
<totfact> 0.34145333E+04</totfact>
</mgrwt>
</event>
<event>
 5    1  0.2804411E-003  0.4930311E+02  0.7818608E-02  0.1453366E+00
         11   -1    0    0    0    0  0.00000000000E+00  0.00000000000E+00  0.99991756611E+03  0.99991756611E+03  0.51100000000E-03 0. -1.
          2   -1    0    0  501    0 -0.00000000000E+00 -0.00000000000E+00 -0.56252151434E+01  0.56252157214E+01  0.25500000000E-02 0. -1.
         11    1    1    2    0    0  0.14809526891E+02 -0.34901078747E+02  0.82250320859E+02  0.90567779403E+02  0.51100000000E-03 0. -1.
         22    1    1    2    0    0  0.57342273987E+01 -0.90797612690E+01  0.35472063193E+02  0.37061984509E+02  0.00000000000E+00 0. -1.
          2    1    1    2  501    0 -0.20543754289E+02  0.43980840016E+02  0.87656996691E+03  0.87791301791E+03  0.25500000000E-02 0. -1.
<mgrwt>
<rscale>  0 0.48542354E+02</rscale>
<asrwt>0</asrwt>
<pdfrwt beam="1">  1       11 0.10000000E+01 0.49303113E+02</pdfrwt>
<pdfrwt beam="2">  1        2 0.86534639E-03 0.48542354E+02</pdfrwt>
<totfact> 0.16652782E+04</totfact>
</mgrwt>
</event>
<event>
 5    1  0.2804411E-003  0.3966239E+02  0.7818608E-02  0.1720506E+00
         11   -1    0    0    0    0  0.00000000000E+00  0.00000000000E+00  0.10000283372E+04  0.10000283372E+04  0.51100000000E-03 0. -1.
          2   -1    0    0  501    0 -0.00000000000E+00 -0.00000000000E+00 -0.10699189327E+02  0.10699189631E+02  0.25500000000E-02 0. -1.
         11    1    1    2    0    0  0.70576842916E+01 -0.32024672881E+02  0.34944114990E+02  0.47921620939E+02  0.51100000000E-03 0. -1.
         22    1    1    2    0    0  0.10727373977E+02 -0.39950517021E+01  0.48675704550E+01  0.12439060764E+02  0.00000000000E+00 0. -1.
          2    1    1    2  501    0 -0.17785058269E+02  0.36019724583E+02  0.94951746239E+03  0.95036684509E+03  0.25500000000E-02 0. -1.
<mgrwt>
<rscale>  0 0.21307761E+02</rscale>
<asrwt>0</asrwt>
<pdfrwt beam="1">  1       11 0.10000000E+01 0.39662392E+02</pdfrwt>
<pdfrwt beam="2">  1        2 0.16460757E-02 0.21307761E+02</pdfrwt>
<totfact> 0.60787015E+03</totfact>
</mgrwt>
</event>
<event>
 5    1  0.2804411E-003  0.5427526E+03  0.7818608E-02  0.1003867E+00
         11   -1    0    0    0    0  0.00000000000E+00  0.00000000000E+00  0.10004881647E+04  0.10004881647E+04  0.51100000000E-03 0. -1.
         -2   -1    0    0    0  501 -0.00000000000E+00 -0.00000000000E+00 -0.29337986280E+03  0.29337986281E+03  0.25500000000E-02 0.  1.
         11    1    1    2    0    0  0.17933287406E+03 -0.47524965893E+03  0.32209709478E+03  0.60147240709E+03  0.51100000000E-03 0. -1.
         22    1    1    2    0    0  0.13817066029E+02 -0.28881885002E+02  0.55060607836E+01  0.32486786549E+02  0.00000000000E+00 0. -1.
         -2    1    1    2    0  501 -0.19314994009E+03  0.50413154393E+03  0.37950514639E+03  0.65990883392E+03  0.25500000000E-02 0.  1.
<mgrwt>
<rscale>  0 0.53986620E+03</rscale>
<asrwt>0</asrwt>
<pdfrwt beam="1">  1       11 0.10000000E+01 0.54275264E+03</pdfrwt>
<pdfrwt beam="2">  1       -2 0.45157396E-01 0.53986620E+03</pdfrwt>
<totfact> 0.37953300E+01</totfact>
</mgrwt>
</event>
<event>
 5    1  0.2804411E-003  0.1231439E+03  0.7818608E-02  0.1237999E+00
         11   -1    0    0    0    0  0.00000000000E+00  0.00000000000E+00  0.10000818797E+04  0.10000818797E+04  0.51100000000E-03 0. -1.
          2   -1    0    0  501    0 -0.00000000000E+00 -0.00000000000E+00 -0.44999309946E+02  0.44999310018E+02  0.25500000000E-02 0. -1.
         11    1    1    2    0    0 -0.33754539384E+02 -0.96433129333E+02  0.11423639946E+03  0.15326014590E+03  0.51100000000E-03 0. -1.
         22    1    1    2    0    0 -0.40735902275E+02 -0.71791540490E+02  0.47716856166E+03  0.48425538227E+03  0.00000000000E+00 0. -1.
          2    1    1    2  501    0  0.74490441659E+02  0.16822466982E+03  0.36367760861E+03  0.40756566151E+03  0.25500000000E-02 0. -1.
<mgrwt>
<rscale>  0 0.12314391E+03</rscale>
<asrwt>0</asrwt>
<pdfrwt beam="1">  1       11 0.10000000E+01 0.82543558E+02</pdfrwt>
<pdfrwt beam="2">  1        2 0.69235374E-02 0.12314391E+03</pdfrwt>
<totfact> 0.11961920E+03</totfact>
</mgrwt>
</event>
<event>
 5    1  0.2804411E-003  0.1456153E+03  0.7818608E-02  0.1205967E+00
         11   -1    0    0    0    0  0.00000000000E+00  0.00000000000E+00  0.10002449916E+04  0.10002449916E+04  0.51100000000E-03 0. -1.
         -2   -1    0    0    0  501 -0.00000000000E+00 -0.00000000000E+00 -0.95248318989E+02  0.95248319023E+02  0.25500000000E-02 0.  1.
         11    1    1    2    0    0 -0.61327715084E+02 -0.14223143526E+03  0.91407263845E+03  0.92710283042E+03  0.51100000000E-03 0. -1.
         22    1    1    2    0    0  0.85090501501E+01  0.71797976675E+01  0.17715417023E+02  0.20923418203E+02  0.00000000000E+00 0.  1.
         -2    1    1    2    0  501  0.52818664934E+02  0.13505163759E+03 -0.26791382835E+02  0.14746706202E+03  0.25500000000E-02 0.  1.
<mgrwt>
<rscale>  0 0.14561526E+03</rscale>
<asrwt>0</asrwt>
<pdfrwt beam="1">  1       11 0.10000000E+01 0.11133437E+02</pdfrwt>
<pdfrwt beam="2">  1       -2 0.14657177E-01 0.14561526E+03</pdfrwt>
<totfact> 0.27785833E+02</totfact>
</mgrwt>
</event>
<event>
 5    1  0.2804411E-003  0.7815896E+02  0.7818608E-02  0.1353021E+00
         11   -1    0    0    0    0  0.00000000000E+00  0.00000000000E+00  0.99986057365E+03  0.99986057365E+03  0.51100000000E-03 0.  1.
          2   -1    0    0  501    0 -0.00000000000E+00 -0.00000000000E+00 -0.57249554843E+01  0.57249560522E+01  0.25500000000E-02 0.  1.
         11    1    1    2    0    0  0.42860871986E+01 -0.29184481022E+02  0.17005441188E+03  0.17259376431E+03  0.51100000000E-03 0.  1.
         22    1    1    2    0    0  0.39940562196E+02 -0.27786208637E+02  0.28805146604E+03  0.29213176648E+03  0.00000000000E+00 0.  1.
          2    1    1    2  501    0 -0.44226649395E+02  0.56970689659E+02  0.53602974024E+03  0.54085999891E+03  0.25500000000E-02 0.  1.
<mgrwt>
<rscale>  0 0.72122507E+02</rscale>
<asrwt>0</asrwt>
<pdfrwt beam="1">  1       11 0.10000000E+01 0.78158964E+02</pdfrwt>
<pdfrwt beam="2">  1        2 0.88063960E-03 0.72122507E+02</pdfrwt>
<totfact> 0.17478635E+04</totfact>
</mgrwt>
</event>
<event>
 5    1  0.2804411E-003  0.7491240E+02  0.7818608E-02  0.1344143E+00
         11   -1    0    0    0    0  0.00000000000E+00  0.00000000000E+00  0.10000507704E+04  0.10000507704E+04  0.51100000000E-03 0.  1.
          2   -1    0    0  501    0 -0.00000000000E+00 -0.00000000000E+00 -0.10896739682E+02  0.10896739980E+02  0.25500000000E-02 0.  1.
         11    1    1    2    0    0 -0.46429680325E+02  0.50869148921E+02  0.38444972443E+03  0.39057006560E+03  0.51100000000E-03 0.  1.
         22    1    1    2    0    0  0.35498631964E+02  0.35471983539E+02  0.26442415159E+03  0.26914409976E+03  0.00000000000E+00 0.  1.
          2    1    1    2  501    0  0.10931048361E+02 -0.86341132460E+02  0.34028015470E+03  0.35123334504E+03  0.25500000000E-02 0.  1.
<mgrwt>
<rscale>  0 0.74912398E+02</rscale>
<asrwt>0</asrwt>
<pdfrwt beam="1">  1       11 0.10000000E+01 0.50183807E+02</pdfrwt>
<pdfrwt beam="2">  1        2 0.16765066E-02 0.74912398E+02</pdfrwt>
<totfact> 0.73486242E+03</totfact>
</mgrwt>
</event>
<event>
 5    1  0.2804411E-003  0.2650021E+03  0.7818608E-02  0.1105609E+00
         11   -1    0    0    0    0  0.00000000000E+00  0.00000000000E+00  0.10001933494E+04  0.10001933494E+04  0.51100000000E-03 0. -1.
         -2   -1    0    0    0  501 -0.00000000000E+00 -0.00000000000E+00 -0.79698186055E+02  0.79698186096E+02  0.25500000000E-02 0.  1.
         11    1    1    2    0    0 -0.13499038983E+03 -0.20156809025E+03  0.61094566604E+03  0.65734823891E+03  0.51100000000E-03 0. -1.
         22    1    1    2    0    0 -0.31781700188E+01 -0.21708382812E+02  0.43638893264E+02  0.48843706394E+02  0.00000000000E+00 0. -1.
         -2    1    1    2    0  501  0.13816855985E+03  0.22327647307E+03  0.26591060404E+03  0.37369959019E+03  0.25500000000E-02 0.  1.
<mgrwt>
<rscale>  0 0.26256987E+03</rscale>
<asrwt>0</asrwt>
<pdfrwt beam="1">  1       11 0.10000000E+01 0.26500211E+03</pdfrwt>
<pdfrwt beam="2">  1       -2 0.12263630E-01 0.26256987E+03</pdfrwt>
<totfact> 0.38124658E+02</totfact>
</mgrwt>
</event>
<event>
 5    1  0.2804411E-003  0.1351754E+03  0.7818608E-02  0.1236942E+00
         11   -1    0    0    0    0  0.00000000000E+00  0.00000000000E+00  0.10003001377E+04  0.10003001377E+04  0.51100000000E-03 0. -1.
          2   -1    0    0  501    0 -0.00000000000E+00 -0.00000000000E+00 -0.17548606832E+02  0.17548607018E+02  0.25500000000E-02 0. -1.
         11    1    1    2    0    0 -0.46089830734E+02  0.50983131413E+02  0.28829040583E+03  0.29636955019E+03  0.51100000000E-03 0. -1.
         22    1    1    2    0    0 -0.65898398744E+02  0.18120522421E+01  0.33125198958E+03  0.33774807637E+03  0.00000000000E+00 0. -1.
          2    1    1    2  501    0  0.11198822948E+03 -0.52795183655E+02  0.36320913549E+03  0.38373111819E+03  0.25500000000E-02 0. -1.
<mgrwt>
<rscale>  0 0.12380911E+03</rscale>
<asrwt>0</asrwt>
<pdfrwt beam="1">  1       11 0.10000000E+01 0.13517538E+03</pdfrwt>
<pdfrwt beam="2">  1        2 0.27005959E-02 0.12380911E+03</pdfrwt>
<totfact> 0.41160444E+03</totfact>
</mgrwt>
</event>
<event>
 5    1  0.2804411E-003  0.2703116E+03  0.7818608E-02  0.1101728E+00
         11   -1    0    0    0    0  0.00000000000E+00  0.00000000000E+00  0.10001946506E+04  0.10001946506E+04  0.51100000000E-03 0. -1.
          2   -1    0    0  501    0 -0.00000000000E+00 -0.00000000000E+00 -0.21144160032E+03  0.21144160034E+03  0.25500000000E-02 0. -1.
         11    1    1    2    0    0 -0.20239124442E+03 -0.15988184864E+03  0.83228106950E+03  0.87133013260E+03  0.51100000000E-03 0. -1.
         22    1    1    2    0    0 -0.66582564416E+01 -0.97535880145E+01  0.53005454622E+02  0.54305092557E+02  0.00000000000E+00 0. -1.
          2    1    1    2  501    0  0.20904950086E+03  0.16963543666E+03 -0.96533473817E+02  0.28600102579E+03  0.25500000000E-02 0. -1.
<mgrwt>
<rscale>  0 0.26921715E+03</rscale>
<asrwt>0</asrwt>
<pdfrwt beam="1">  1       11 0.10000000E+01 0.27031156E+03</pdfrwt>
<pdfrwt beam="2">  1        2 0.32535808E-01 0.26921715E+03</pdfrwt>
<totfact> 0.19851289E+02</totfact>
</mgrwt>
</event>
<event>
 5    1  0.2804411E-003  0.2589808E+03  0.7818608E-02  0.1109869E+00
         11   -1    0    0    0    0  0.00000000000E+00  0.00000000000E+00  0.99998900337E+03  0.99998900337E+03  0.51100000000E-03 0.  1.
          2   -1    0    0  501    0 -0.00000000000E+00 -0.00000000000E+00 -0.44948698777E+03  0.44948698777E+03  0.25500000000E-02 0.  1.
         11    1    1    2    0    0  0.64383330863E+02 -0.21946501903E+03  0.78577536191E+03  0.81838440067E+03  0.51100000000E-03 0.  1.
         22    1    1    2    0    0  0.81158354789E+01 -0.25546915249E+02  0.15901087196E+03  0.16125436139E+03  0.00000000000E+00 0.  1.
          2    1    1    2  501    0 -0.72499166342E+02  0.24501193428E+03 -0.39428421827E+03  0.46983722909E+03  0.25500000000E-02 0.  1.
<mgrwt>
<rscale>  0 0.25551316E+03</rscale>
<asrwt>0</asrwt>
<pdfrwt beam="1">  1       11 0.10000000E+01 0.25898084E+03</pdfrwt>
<pdfrwt beam="2">  1        2 0.69151082E-01 0.25551316E+03</pdfrwt>
<totfact> 0.87386490E+01</totfact>
</mgrwt>
</event>
<event>
 5    1  0.2804411E-003  0.1904394E+03  0.7818608E-02  0.1158066E+00
         11   -1    0    0    0    0  0.00000000000E+00  0.00000000000E+00  0.10000037645E+04  0.10000037645E+04  0.51100000000E-03 0.  1.
          2   -1    0    0  501    0 -0.00000000000E+00 -0.00000000000E+00 -0.75309881026E+03  0.75309881026E+03  0.25500000000E-02 0.  1.
         11    1    1    2    0    0  0.42521011403E+02 -0.37842165365E+01  0.10008793416E+03  0.10881154015E+03  0.51100000000E-03 0.  1.
         22    1    1    2    0    0  0.11976622151E+03 -0.96860968744E+02  0.87655239251E+03  0.88998319753E+03  0.00000000000E+00 0.  1.
          2    1    1    2  501    0 -0.16228723291E+03  0.10064518528E+03 -0.72973537243E+03  0.75430783707E+03  0.25500000000E-02 0.  1.
<mgrwt>
<rscale>  0 0.19043941E+03</rscale>
<asrwt>0</asrwt>
<pdfrwt beam="1">  1       11 0.10000000E+01 0.42689070E+02</pdfrwt>
<pdfrwt beam="2">  1        2 0.11586179E+00 0.19043941E+03</pdfrwt>
<totfact> 0.48406158E+01</totfact>
</mgrwt>
</event>
<event>
 5    1  0.2804411E-003  0.3406774E+03  0.7818608E-02  0.1198015E+00
         11   -1    0    0    0    0  0.00000000000E+00  0.00000000000E+00  0.10002732232E+04  0.10002732232E+04  0.51100000000E-03 0.  1.
          2   -1    0    0  501    0 -0.00000000000E+00 -0.00000000000E+00 -0.26664742000E+03  0.26664742001E+03  0.25500000000E-02 0.  1.
         11    1    1    2    0    0  0.13497411239E+03  0.22995591320E+03  0.20306289013E+03  0.33516006680E+03  0.51100000000E-03 0.  1.
         22    1    1    2    0    0 -0.25702000359E+03 -0.32058869160E+03  0.62851984856E+03  0.75091516928E+03  0.00000000000E+00 0.  1.
          2    1    1    2  501    0  0.12204589121E+03  0.90632778402E+02 -0.97956935457E+02  0.18084540716E+03  0.25500000000E-02 0.  1.
<mgrwt>
<rscale>  0 0.15201809E+03</rscale>
<asrwt>0</asrwt>
<pdfrwt beam="1">  1       11 0.10000000E+01 0.34067741E+03</pdfrwt>
<pdfrwt beam="2">  1        2 0.41033887E-01 0.15201809E+03</pdfrwt>
<totfact> 0.15355588E+02</totfact>
</mgrwt>
</event>
<event>
 5    1  0.2804411E-003  0.2328647E+02  0.7818608E-02  0.1725850E+00
         11   -1    0    0    0    0  0.00000000000E+00  0.00000000000E+00  0.10003216913E+04  0.10003216913E+04  0.51100000000E-03 0. -1.
         -2   -1    0    0    0  501 -0.00000000000E+00 -0.00000000000E+00 -0.28411300999E+01  0.28411312442E+01  0.25500000000E-02 0. -1.
         11    1    1    2    0    0 -0.16908209927E+02  0.30780104351E+02  0.19344936277E+03  0.19661118571E+03  0.51100000000E-03 0. -1.
         22    1    1    2    0    0 -0.20583995066E+01 -0.18854617591E+02  0.81683964161E+02  0.83857042723E+02  0.00000000000E+00 0.  1.
         -2    1    1    2    0  501  0.18966609434E+02 -0.11925486760E+02  0.72234723428E+03  0.72269459413E+03  0.25500000000E-02 0. -1.
<mgrwt>
<rscale>  0 0.21015853E+02</rscale>
<asrwt>0</asrwt>
<pdfrwt beam="1">  1       11 0.10000000E+01 0.23286474E+02</pdfrwt>
<pdfrwt beam="2">  1       -2 0.43723762E-03 0.21015853E+02</pdfrwt>
<totfact> 0.33054671E+04</totfact>
</mgrwt>
</event>
<event>
 5    1  0.2804411E-003  0.4895742E+03  0.7818608E-02  0.1024797E+00
         11   -1    0    0    0    0  0.00000000000E+00  0.00000000000E+00  0.10004300136E+04  0.10004300136E+04  0.51100000000E-03 0. -1.
          2   -1    0    0  501    0 -0.00000000000E+00 -0.00000000000E+00 -0.30223878784E+03  0.30223878785E+03  0.25500000000E-02 0. -1.
         11    1    1    2    0    0  0.26123691735E+03 -0.25014286368E+03  0.50514016030E+03  0.62127510878E+03  0.51100000000E-03 0. -1.
         22    1    1    2    0    0  0.12779598606E+03  0.47763709182E+01  0.18058000100E+03  0.22127757350E+03  0.00000000000E+00 0.  1.
          2    1    1    2  501    0 -0.38903290341E+03  0.24536649277E+03  0.12471064511E+02  0.46011611922E+03  0.25500000000E-02 0. -1.
<mgrwt>
<rscale>  0 0.45994708E+03</rscale>
<asrwt>0</asrwt>
<pdfrwt beam="1">  1       11 0.10000000E+01 0.48957419E+03</pdfrwt>
<pdfrwt beam="2">  1        2 0.46518269E-01 0.45994708E+03</pdfrwt>
<totfact> 0.13457023E+02</totfact>
</mgrwt>
</event>
<event>
 5    1  0.2804411E-003  0.6302725E+02  0.7818608E-02  0.1406208E+00
         11   -1    0    0    0    0  0.00000000000E+00  0.00000000000E+00  0.10000899587E+04  0.10000899587E+04  0.51100000000E-03 0. -1.
          2   -1    0    0  501    0 -0.00000000000E+00 -0.00000000000E+00 -0.57542767101E+01  0.57542772751E+01  0.25500000000E-02 0. -1.
         11    1    1    2    0    0 -0.23629553248E+02  0.19322909627E+02  0.81651998883E+02  0.87170978801E+02  0.51100000000E-03 0. -1.
         22    1    1    2    0    0 -0.31338977619E+02 -0.66513631279E+00  0.12562052044E+03  0.12947234871E+03  0.00000000000E+00 0.  1.
          2    1    1    2  501    0  0.54968530867E+02 -0.18657773314E+02  0.78706316263E+03  0.78920090843E+03  0.25500000000E-02 0. -1.
<mgrwt>
<rscale>  0 0.58048703E+02</rscale>
<asrwt>0</asrwt>
<pdfrwt beam="1">  1       11 0.10000000E+01 0.63027249E+02</pdfrwt>
<pdfrwt beam="2">  1        2 0.88535300E-03 0.58048703E+02</pdfrwt>
<totfact> 0.16696355E+04</totfact>
</mgrwt>
</event>
<event>
 5    1  0.2804411E-003  0.9864820E+02  0.7818608E-02  0.1364182E+00
         11   -1    0    0    0    0  0.00000000000E+00  0.00000000000E+00  0.10002801315E+04  0.10002801315E+04  0.51100000000E-03 0. -1.
          2   -1    0    0  501    0 -0.00000000000E+00 -0.00000000000E+00 -0.16200506001E+02  0.16200506201E+02  0.25500000000E-02 0. -1.
         11    1    1    2    0    0  0.37498623519E+02  0.89199423206E+02  0.34214357919E+03  0.35556281111E+03  0.51100000000E-03 0. -1.
         22    1    1    2    0    0 -0.45369530176E+02  0.15668841762E+02  0.13752155537E+03  0.14565742365E+03  0.00000000000E+00 0. -1.
          2    1    1    2  501    0  0.78709066574E+01 -0.10486826497E+03  0.50441449097E+03  0.51526040298E+03  0.25500000000E-02 0. -1.
<mgrwt>
<rscale>  0 0.68811451E+02</rscale>
<asrwt>0</asrwt>
<pdfrwt beam="1">  1       11 0.10000000E+01 0.98648204E+02</pdfrwt>
<pdfrwt beam="2">  1        2 0.24930837E-02 0.68811451E+02</pdfrwt>
<totfact> 0.42731199E+03</totfact>
</mgrwt>
</event>
<event>
 5    1  0.2804411E-003  0.2068146E+03  0.7818608E-02  0.1144114E+00
         11   -1    0    0    0    0  0.00000000000E+00  0.00000000000E+00  0.10000602043E+04  0.10000602043E+04  0.51100000000E-03 0. -1.
          2   -1    0    0  501    0 -0.00000000000E+00 -0.00000000000E+00 -0.43422120505E+03  0.43422120506E+03  0.25500000000E-02 0. -1.
         11    1    1    2    0    0 -0.84384998866E+02  0.15487297147E+03  0.61106983481E+03  0.63601321397E+03  0.51100000000E-03 0. -1.
         22    1    1    2    0    0  0.60699094294E+02  0.52388440522E+02  0.34585242576E+03  0.35502511060E+03  0.00000000000E+00 0.  1.
          2    1    1    2  501    0  0.23685904572E+02 -0.20726141199E+03 -0.39108326129E+03  0.44324308483E+03  0.25500000000E-02 0. -1.
<mgrwt>
<rscale>  0 0.20681462E+03</rscale>
<asrwt>0</asrwt>
<pdfrwt beam="1">  1       11 0.10000000E+01 0.80180601E+02</pdfrwt>
<pdfrwt beam="2">  1        2 0.66807282E-01 0.20681462E+03</pdfrwt>
<totfact> 0.90977020E+01</totfact>
</mgrwt>
</event>
<event>
 5    1  0.2804411E-003  0.7106184E+02  0.7818608E-02  0.1398088E+00
         11   -1    0    0    0    0  0.00000000000E+00  0.00000000000E+00  0.10001352752E+04  0.10001352752E+04  0.51100000000E-03 0.  1.
          2   -1    0    0  501    0 -0.00000000000E+00 -0.00000000000E+00 -0.11772146757E+03  0.11772146760E+03  0.25500000000E-02 0.  1.
         11    1    1    2    0    0 -0.78570411023E+02  0.89467044887E+02 -0.35439435175E+02  0.12423210203E+03  0.51100000000E-03 0.  1.
         22    1    1    2    0    0  0.40328132904E+02 -0.30490291712E+02 -0.19095435621E+02  0.54043055556E+02  0.00000000000E+00 0.  1.
          2    1    1    2  501    0  0.38242278118E+02 -0.58976753175E+02  0.93694867848E+03  0.93958158526E+03  0.25500000000E-02 0.  1.
<mgrwt>
<rscale>  0 0.59938934E+02</rscale>
<asrwt>0</asrwt>
<pdfrwt beam="1">  1       11 0.10000000E+01 0.71061839E+02</pdfrwt>
<pdfrwt beam="2">  1        2 0.18113444E-01 0.59938934E+02</pdfrwt>
<totfact> 0.36359152E+02</totfact>
</mgrwt>
</event>
<event>
 5    1  0.2804411E-003  0.1778443E+03  0.7818608E-02  0.1173870E+00
         11   -1    0    0    0    0  0.00000000000E+00  0.00000000000E+00  0.10002373800E+04  0.10002373800E+04  0.51100000000E-03 0. -1.
         -2   -1    0    0    0  501 -0.00000000000E+00 -0.00000000000E+00 -0.11308726712E+03  0.11308726715E+03  0.25500000000E-02 0.  1.
         11    1    1    2    0    0 -0.11669448574E+03 -0.53842896769E+02  0.66564744827E+03  0.67794039998E+03  0.51100000000E-03 0. -1.
         22    1    1    2    0    0 -0.49283786018E+02  0.20498760588E+01  0.25379105933E+03  0.25854012330E+03  0.00000000000E+00 0.  1.
         -2    1    1    2    0  501  0.16597827175E+03  0.51793020710E+02 -0.32288394766E+02  0.17684412383E+03  0.25500000000E-02 0.  1.
<mgrwt>
<rscale>  0 0.17387151E+03</rscale>
<asrwt>0</asrwt>
<pdfrwt beam="1">  1       11 0.10000000E+01 0.17784432E+03</pdfrwt>
<pdfrwt beam="2">  1       -2 0.17402171E-01 0.17387151E+03</pdfrwt>
<totfact> 0.21077180E+02</totfact>
</mgrwt>
</event>
<event>
 5    1  0.2804411E-003  0.4702347E+02  0.7818608E-02  0.1570627E+00
         11   -1    0    0    0    0  0.00000000000E+00  0.00000000000E+00  0.99988124272E+03  0.99988124272E+03  0.51100000000E-03 0. -1.
          2   -1    0    0  501    0 -0.00000000000E+00 -0.00000000000E+00 -0.68555163270E+01  0.68555168013E+01  0.25500000000E-02 0. -1.
         11    1    1    2    0    0 -0.32250661516E+02 -0.37333593723E+02  0.15209996740E+03  0.15990091454E+03  0.51100000000E-03 0. -1.
         22    1    1    2    0    0 -0.11668859447E+02  0.19418094181E+02  0.55040182916E+02  0.59520134390E+02  0.00000000000E+00 0. -1.
          2    1    1    2  501    0  0.43919520964E+02  0.17915499542E+02  0.78588557608E+03  0.78731571059E+03  0.25500000000E-02 0. -1.
<mgrwt>
<rscale>  0 0.32638794E+02</rscale>
<asrwt>0</asrwt>
<pdfrwt beam="1">  1       11 0.10000000E+01 0.47023469E+02</pdfrwt>
<pdfrwt beam="2">  1        2 0.10545696E-02 0.32638794E+02</pdfrwt>
<totfact> 0.11833366E+04</totfact>
</mgrwt>
</event>
<event>
 5    1  0.2804411E-003  0.8009691E+02  0.7818608E-02  0.1328777E+00
         11   -1    0    0    0    0  0.00000000000E+00  0.00000000000E+00  0.10004705722E+04  0.10004705722E+04  0.51100000000E-03 0. -1.
          2   -1    0    0  501    0 -0.00000000000E+00 -0.00000000000E+00 -0.10009615518E+02  0.10009615843E+02  0.25500000000E-02 0. -1.
         11    1    1    2    0    0 -0.27909393111E+02 -0.59510091437E+01  0.67612439473E+02  0.73387946595E+02  0.51100000000E-03 0. -1.
         22    1    1    2    0    0  0.26541003851E+02  0.81946531734E+02  0.44925887231E+03  0.45744201086E+03  0.00000000000E+00 0. -1.
          2    1    1    2  501    0  0.13683892602E+01 -0.75995522590E+02  0.47358964492E+03  0.47965023061E+03  0.25500000000E-02 0. -1.
<mgrwt>
<rscale>  0 0.80096907E+02</rscale>
<asrwt>0</asrwt>
<pdfrwt beam="1">  1       11 0.10000000E+01 0.28536810E+02</pdfrwt>
<pdfrwt beam="2">  1        2 0.15406655E-02 0.80096907E+02</pdfrwt>
<totfact> 0.83158617E+03</totfact>
</mgrwt>
</event>
<event>
 5    1  0.2804411E-003  0.4729804E+03  0.7818608E-02  0.1025404E+00
         11   -1    0    0    0    0  0.00000000000E+00  0.00000000000E+00  0.99987747505E+03  0.99987747505E+03  0.51100000000E-03 0.  1.
          2   -1    0    0  501    0 -0.00000000000E+00 -0.00000000000E+00 -0.42793589894E+03  0.42793589895E+03  0.25500000000E-02 0.  1.
         11    1    1    2    0    0  0.20660228296E+03 -0.36811736085E+03  0.64132389774E+03  0.76778332653E+03  0.51100000000E-03 0.  1.
         22    1    1    2    0    0  0.12917689450E+02 -0.33684191036E+02  0.14861010658E+03  0.15292630645E+03  0.00000000000E+00 0. -1.
          2    1    1    2  501    0 -0.21951997241E+03  0.40180155189E+03 -0.21799242821E+03  0.50710374102E+03  0.25500000000E-02 0.  1.
<mgrwt>
<rscale>  0 0.45785752E+03</rscale>
<asrwt>0</asrwt>
<pdfrwt beam="1">  1       11 0.10000000E+01 0.47298044E+03</pdfrwt>
<pdfrwt beam="2">  1        2 0.65828224E-01 0.45785752E+03</pdfrwt>
<totfact> 0.91676218E+01</totfact>
</mgrwt>
</event>
<event>
 5    1  0.2804411E-003  0.3719146E+03  0.7818608E-02  0.1059367E+00
         11   -1    0    0    0    0  0.00000000000E+00  0.00000000000E+00  0.10001155613E+04  0.10001155613E+04  0.51100000000E-03 0. -1.
          2   -1    0    0  501    0 -0.00000000000E+00 -0.00000000000E+00 -0.65447677786E+03  0.65447677786E+03  0.25500000000E-02 0. -1.
         11    1    1    2    0    0  0.64990610826E+02  0.25095291392E+03  0.53776589524E+03  0.59698685294E+03  0.51100000000E-03 0. -1.
         22    1    1    2    0    0  0.54192059248E+02  0.86655483420E+02  0.37402932068E+03  0.38774203386E+03  0.00000000000E+00 0.  1.
          2    1    1    2  501    0 -0.11918267007E+03 -0.33760839734E+03 -0.56615643247E+03  0.66986345238E+03  0.25500000000E-02 0. -1.
<mgrwt>
<rscale>  0 0.35802785E+03</rscale>
<asrwt>0</asrwt>
<pdfrwt beam="1">  1       11 0.10000000E+01 0.37191459E+03</pdfrwt>
<pdfrwt beam="2">  1        2 0.10070037E+00 0.35802785E+03</pdfrwt>
<totfact> 0.56353661E+01</totfact>
</mgrwt>
</event>
<event>
 5    1  0.2804411E-003  0.1451077E+03  0.7818608E-02  0.1209517E+00
         11   -1    0    0    0    0  0.00000000000E+00  0.00000000000E+00  0.99987410250E+03  0.99987410250E+03  0.51100000000E-03 0. -1.
         -2   -1    0    0    0  501 -0.00000000000E+00 -0.00000000000E+00 -0.24617450036E+02  0.24617450168E+02  0.25500000000E-02 0.  1.
         11    1    1    2    0    0  0.12440823891E+03  0.54177405575E+01  0.59709063570E+03  0.60993769277E+03  0.51100000000E-03 0. -1.
         22    1    1    2    0    0  0.18413344439E+02 -0.91903293448E+01  0.97133925969E+02  0.99290044723E+02  0.00000000000E+00 0. -1.
         -2    1    1    2    0  501 -0.14282158334E+03  0.37725887873E+01  0.28103209079E+03  0.31526381517E+03  0.25500000000E-02 0.  1.
<mgrwt>
<rscale>  0 0.14287140E+03</rscale>
<asrwt>0</asrwt>
<pdfrwt beam="1">  1       11 0.10000000E+01 0.14510769E+03</pdfrwt>
<pdfrwt beam="2">  1       -2 0.37868231E-02 0.14287140E+03</pdfrwt>
<totfact> 0.22472537E+03</totfact>
</mgrwt>
</event>
<event>
 5    1  0.2804411E-003  0.1008419E+03  0.7818608E-02  0.1544738E+00
         11   -1    0    0    0    0  0.00000000000E+00  0.00000000000E+00  0.10005134623E+04  0.10005134623E+04  0.51100000000E-03 0. -1.
          2   -1    0    0  501    0 -0.00000000000E+00 -0.00000000000E+00 -0.18946559558E+02  0.18946559730E+02  0.25500000000E-02 0. -1.
         11    1    1    2    0    0  0.60785305312E+02  0.78237289118E+02  0.49205667959E+03  0.50193197017E+03  0.51100000000E-03 0. -1.
         22    1    1    2    0    0 -0.74354439075E+01  0.99910719373E+01 -0.42180883880E+01  0.13149129789E+02  0.00000000000E+00 0.  1.
          2    1    1    2  501    0 -0.53349861405E+02 -0.88228361056E+02  0.49372831159E+03  0.50437892211E+03  0.25500000000E-02 0. -1.
<mgrwt>
<rscale>  0 0.35438763E+02</rscale>
<asrwt>0</asrwt>
<pdfrwt beam="1">  1       11 0.10000000E+01 0.10084188E+03</pdfrwt>
<pdfrwt beam="2">  1        2 0.29163519E-02 0.35438763E+02</pdfrwt>
<totfact> 0.31800138E+03</totfact>
</mgrwt>
</event>
<event>
 5    1  0.2804411E-003  0.1479149E+03  0.7818608E-02  0.1369295E+00
         11   -1    0    0    0    0  0.00000000000E+00  0.00000000000E+00  0.10000121861E+04  0.10000121861E+04  0.51100000000E-03 0.  1.
          2   -1    0    0  501    0 -0.00000000000E+00 -0.00000000000E+00 -0.45895778699E+02  0.45895778770E+02  0.25500000000E-02 0.  1.
         11    1    1    2    0    0  0.10728043460E+03 -0.86939507384E+02  0.56583466216E+03  0.58244006944E+03  0.51100000000E-03 0.  1.
         22    1    1    2    0    0 -0.10216138755E+03  0.15410816720E+03  0.30034853157E+03  0.35269748613E+03  0.00000000000E+00 0.  1.
          2    1    1    2  501    0 -0.51190470475E+01 -0.67168659820E+02  0.87933213718E+02  0.11077040934E+03  0.25500000000E-02 0.  1.
<mgrwt>
<rscale>  0 0.67363443E+02</rscale>
<asrwt>0</asrwt>
<pdfrwt beam="1">  1       11 0.10000000E+01 0.14791488E+03</pdfrwt>
<pdfrwt beam="2">  1        2 0.70609749E-02 0.67363443E+02</pdfrwt>
<totfact> 0.11137884E+03</totfact>
</mgrwt>
</event>
<event>
 5    1  0.2804411E-003  0.3102435E+03  0.7818608E-02  0.1082352E+00
         11   -1    0    0    0    0  0.00000000000E+00  0.00000000000E+00  0.99969745381E+03  0.99969745381E+03  0.51100000000E-03 0. -1.
          2   -1    0    0  501    0 -0.00000000000E+00 -0.00000000000E+00 -0.97027009178E+02  0.97027009212E+02  0.25500000000E-02 0. -1.
         11    1    1    2    0    0  0.10311585416E+03  0.25506579638E+03  0.48854396371E+03  0.56068408604E+03  0.51100000000E-03 0. -1.
         22    1    1    2    0    0 -0.36473361581E+01  0.34158551058E+02  0.46711561222E+02  0.57983442664E+02  0.00000000000E+00 0.  1.
          2    1    1    2  501    0 -0.99468518001E+02 -0.28922434744E+03  0.36741491970E+03  0.47805693431E+03  0.25500000000E-02 0. -1.
<mgrwt>
<rscale>  0 0.30585080E+03</rscale>
<asrwt>0</asrwt>
<pdfrwt beam="1">  1       11 0.10000000E+01 0.31024351E+03</pdfrwt>
<pdfrwt beam="2">  1        2 0.14922716E-01 0.30585080E+03</pdfrwt>
<totfact> 0.48539682E+02</totfact>
</mgrwt>
</event>
<event>
 5    1  0.2804411E-003  0.5867053E+02  0.7818608E-02  0.1403497E+00
         11   -1    0    0    0    0  0.00000000000E+00  0.00000000000E+00  0.10003326930E+04  0.10003326930E+04  0.51100000000E-03 0.  1.
          2   -1    0    0  501    0 -0.00000000000E+00 -0.00000000000E+00 -0.50615609311E+01  0.50615615735E+01  0.25500000000E-02 0.  1.
         11    1    1    2    0    0  0.11941087695E+02  0.65662219981E+01  0.78881472878E+02  0.80049931982E+02  0.51100000000E-03 0.  1.
         22    1    1    2    0    0 -0.61079035185E+02 -0.13826472961E+02  0.27528615583E+03  0.28231947770E+03  0.00000000000E+00 0.  1.
          2    1    1    2  501    0  0.49137947490E+02  0.72602509629E+01  0.64110350331E+03  0.64302484485E+03  0.25500000000E-02 0.  1.
<mgrwt>
<rscale>  0 0.58670525E+02</rscale>
<asrwt>0</asrwt>
<pdfrwt beam="1">  1       11 0.10000000E+01 0.13627363E+02</pdfrwt>
<pdfrwt beam="2">  1        2 0.77896078E-03 0.58670525E+02</pdfrwt>
<totfact> 0.19893702E+04</totfact>
</mgrwt>
</event>
<event>
 5    1  0.2804411E-003  0.2804614E+03  0.7818608E-02  0.1095437E+00
         11   -1    0    0    0    0  0.00000000000E+00  0.00000000000E+00  0.10003140610E+04  0.10003140610E+04  0.51100000000E-03 0. -1.
          2   -1    0    0  501    0 -0.00000000000E+00 -0.00000000000E+00 -0.13132957611E+04  0.13132957611E+04  0.25500000000E-02 0. -1.
         11    1    1    2    0    0  0.13115995836E+03  0.24771920130E+03  0.86277476502E+03  0.90716483206E+03  0.51100000000E-03 0. -1.
         22    1    1    2    0    0 -0.18495989688E+02  0.91352663981E+01  0.99036258982E+02  0.10116192624E+03  0.00000000000E+00 0. -1.
          2    1    1    2  501    0 -0.11266396867E+03 -0.25685446770E+03 -0.12747927241E+04  0.13052830639E+04  0.25500000000E-02 0. -1.
<mgrwt>
<rscale>  0 0.28046143E+03</rscale>
<asrwt>0</asrwt>
<pdfrwt beam="1">  1       11 0.10000000E+01 0.20628978E+02</pdfrwt>
<pdfrwt beam="2">  1        2 0.20210895E+00 0.28046143E+03</pdfrwt>
<totfact> 0.21557194E+01</totfact>
</mgrwt>
</event>
<event>
 5    1  0.2804411E-003  0.1470468E+03  0.7818608E-02  0.1204150E+00
         11   -1    0    0    0    0  0.00000000000E+00  0.00000000000E+00  0.10002484606E+04  0.10002484606E+04  0.51100000000E-03 0.  1.
          2   -1    0    0  501    0 -0.00000000000E+00 -0.00000000000E+00 -0.21792479141E+02  0.21792479290E+02  0.25500000000E-02 0.  1.
         11    1    1    2    0    0  0.12540274471E+03 -0.69339182066E+02  0.39004774059E+03  0.41553701459E+03  0.51100000000E-03 0.  1.
         22    1    1    2    0    0 -0.15391864161E+02  0.20761970415E+01  0.35323397825E+02  0.38587076987E+02  0.00000000000E+00 0.  1.
          2    1    1    2  501    0 -0.11001088054E+03  0.67262985025E+02  0.55308484302E+03  0.56791684830E+03  0.25500000000E-02 0.  1.
<mgrwt>
<rscale>  0 0.14704677E+03</rscale>
<asrwt>0</asrwt>
<pdfrwt beam="1">  1       11 0.10000000E+01 0.14329617E+03</pdfrwt>
<pdfrwt beam="2">  1        2 0.33535220E-02 0.14704677E+03</pdfrwt>
<totfact> 0.31314336E+03</totfact>
</mgrwt>
</event>
<event>
 5    1  0.2804411E-003  0.9787808E+02  0.7818608E-02  0.1284822E+00
         11   -1    0    0    0    0  0.00000000000E+00  0.00000000000E+00  0.10003116778E+04  0.10003116778E+04  0.51100000000E-03 0. -1.
          2   -1    0    0  501    0 -0.00000000000E+00 -0.00000000000E+00 -0.11471477751E+02  0.11471478034E+02  0.25500000000E-02 0. -1.
         11    1    1    2    0    0  0.78431600790E+02  0.58823483060E+02  0.37975643531E+03  0.39220743022E+03  0.51100000000E-03 0. -1.
         22    1    1    2    0    0 -0.97875911577E+01  0.11588007248E+02  0.86799234241E+02  0.88114618070E+02  0.00000000000E+00 0.  1.
          2    1    1    2  501    0 -0.68644009633E+02 -0.70411490308E+02  0.52228453046E+03  0.53146110750E+03  0.25500000000E-02 0. -1.
<mgrwt>
<rscale>  0 0.97878078E+02</rscale>
<asrwt>0</asrwt>
<pdfrwt beam="1">  1       11 0.10000000E+01 0.15168350E+02</pdfrwt>
<pdfrwt beam="2">  1        2 0.17653928E-02 0.97878078E+02</pdfrwt>
<totfact> 0.71097790E+03</totfact>
</mgrwt>
</event>
<event>
 5    1  0.2804411E-003  0.3118541E+03  0.7818608E-02  0.1080385E+00
         11   -1    0    0    0    0  0.00000000000E+00  0.00000000000E+00  0.10001108869E+04  0.10001108869E+04  0.51100000000E-03 0. -1.
          2   -1    0    0  501    0 -0.00000000000E+00 -0.00000000000E+00 -0.36367668616E+03  0.36367668617E+03  0.25500000000E-02 0.  1.
         11    1    1    2    0    0  0.95181491334E+02  0.28079439139E+03  0.84988437600E+03  0.90011580316E+03  0.51100000000E-03 0. -1.
         22    1    1    2    0    0 -0.24041980525E+01  0.14910285202E+02  0.52907677314E+02  0.55021078614E+02  0.00000000000E+00 0.  1.
          2    1    1    2  501    0 -0.92777293281E+02 -0.29570467660E+03 -0.26635785253E+03  0.40865069133E+03  0.25500000000E-02 0.  1.
<mgrwt>
<rscale>  0 0.30991754E+03</rscale>
<asrwt>0</asrwt>
<pdfrwt beam="1">  1       11 0.10000000E+01 0.31185409E+03</pdfrwt>
<pdfrwt beam="2">  1        2 0.55956462E-01 0.30991754E+03</pdfrwt>
<totfact> 0.11005461E+02</totfact>
</mgrwt>
</event>
<event>
 5    1  0.2804411E-003  0.2036953E+03  0.7818608E-02  0.1146658E+00
         11   -1    0    0    0    0  0.00000000000E+00  0.00000000000E+00  0.10000989747E+04  0.10000989747E+04  0.51100000000E-03 0.  1.
          2   -1    0    0  501    0 -0.00000000000E+00 -0.00000000000E+00 -0.94632088582E+03  0.94632088583E+03  0.25500000000E-02 0. -1.
         11    1    1    2    0    0  0.95392128089E+01  0.11765677158E+03  0.79706108828E+02  0.14243305888E+03  0.51100000000E-03 0.  1.
         22    1    1    2    0    0 -0.91781493002E+02 -0.30242982532E+03  0.84903566689E+03  0.90595209882E+03  0.00000000000E+00 0.  1.
          2    1    1    2  501    0  0.82242280193E+02  0.18477305375E+03 -0.87496368688E+03  0.89803470278E+03  0.25500000000E-02 0. -1.
<mgrwt>
<rscale>  0 0.20369527E+03</rscale>
<asrwt>0</asrwt>
<pdfrwt beam="1">  1       11 0.10000000E+01 0.11804284E+03</pdfrwt>
<pdfrwt beam="2">  1        2 0.14560223E+00 0.20369527E+03</pdfrwt>
<totfact> 0.35930024E+01</totfact>
</mgrwt>
</event>
<event>
 5    1  0.2804411E-003  0.1495154E+03  0.7818608E-02  0.1206943E+00
         11   -1    0    0    0    0  0.00000000000E+00  0.00000000000E+00  0.10003095596E+04  0.10003095596E+04  0.51100000000E-03 0.  1.
          2   -1    0    0  501    0 -0.00000000000E+00 -0.00000000000E+00 -0.24092167333E+02  0.24092167468E+02  0.25500000000E-02 0.  1.
         11    1    1    2    0    0 -0.24085833084E+02  0.12205643157E+03  0.51592649125E+03  0.53071465423E+03  0.51100000000E-03 0.  1.
         22    1    1    2    0    0 -0.16809030801E+02  0.16904749075E+02  0.14196807990E+03  0.14395572156E+03  0.00000000000E+00 0.  1.
          2    1    1    2  501    0  0.40894863885E+02 -0.13896118064E+03  0.31832282112E+03  0.34973135128E+03  0.25500000000E-02 0.  1.
<mgrwt>
<rscale>  0 0.14485372E+03</rscale>
<asrwt>0</asrwt>
<pdfrwt beam="1">  1       11 0.10000000E+01 0.14951538E+03</pdfrwt>
<pdfrwt beam="2">  1        2 0.37076346E-02 0.14485372E+03</pdfrwt>
<totfact> 0.27344688E+03</totfact>
</mgrwt>
</event>
<event>
 5    1  0.2804411E-003  0.2189096E+03  0.7818608E-02  0.1157311E+00
         11   -1    0    0    0    0  0.00000000000E+00  0.00000000000E+00  0.10001470233E+04  0.10001470233E+04  0.51100000000E-03 0. -1.
          2   -1    0    0  501    0 -0.00000000000E+00 -0.00000000000E+00 -0.49256302088E+03  0.49256302088E+03  0.25500000000E-02 0. -1.
         11    1    1    2    0    0  0.10208841920E+03 -0.25126523356E+02  0.46694706366E+03  0.47863655081E+03  0.51100000000E-03 0. -1.
         22    1    1    2    0    0  0.81263420019E+02  0.79628147227E+02  0.50194641022E+03  0.51467910779E+03  0.00000000000E+00 0. -1.
          2    1    1    2  501    0 -0.18335183922E+03 -0.54501623871E+02 -0.46130947143E+03  0.49939438561E+03  0.25500000000E-02 0. -1.
<mgrwt>
<rscale>  0 0.19128075E+03</rscale>
<asrwt>0</asrwt>
<pdfrwt beam="1">  1       11 0.10000000E+01 0.21890965E+03</pdfrwt>
<pdfrwt beam="2">  1        2 0.75790065E-01 0.19128075E+03</pdfrwt>
<totfact> 0.79258983E+01</totfact>
</mgrwt>
</event>
<event>
 5    1  0.2804411E-003  0.3964561E+03  0.7818608E-02  0.1056999E+00
         11   -1    0    0    0    0  0.00000000000E+00  0.00000000000E+00  0.10001164860E+04  0.10001164860E+04  0.51100000000E-03 0.  1.
          2   -1    0    0  501    0 -0.00000000000E+00 -0.00000000000E+00 -0.21260699970E+03  0.21260699971E+03  0.25500000000E-02 0.  1.
         11    1    1    2    0    0  0.12087321815E+03 -0.63717477231E+01  0.12346904945E+03  0.17290326835E+03  0.51100000000E-03 0.  1.
         22    1    1    2    0    0  0.22928049576E+03  0.10592512286E+03  0.62451085068E+03  0.67364937468E+03  0.00000000000E+00 0.  1.
          2    1    1    2  501    0 -0.35015371390E+03 -0.99553375135E+02  0.39529586198E+02  0.36617084271E+03  0.25500000000E-02 0.  1.
<mgrwt>
<rscale>  0 0.36403090E+03</rscale>
<asrwt>0</asrwt>
<pdfrwt beam="1">  1       11 0.10000000E+01 0.39645611E+03</pdfrwt>
<pdfrwt beam="2">  1        2 0.32712578E-01 0.36403090E+03</pdfrwt>
<totfact> 0.19799505E+02</totfact>
</mgrwt>
</event>
<event>
 5    1  0.2804411E-003  0.2333377E+02  0.7818608E-02  0.1686156E+00
         11   -1    0    0    0    0  0.00000000000E+00  0.00000000000E+00  0.10001128838E+04  0.10001128838E+04  0.51100000000E-03 0. -1.
          2   -1    0    0  501    0 -0.00000000000E+00 -0.00000000000E+00 -0.34251553637E+01  0.34251563129E+01  0.25500000000E-02 0. -1.
         11    1    1    2    0    0  0.76825841309E+01  0.10815322364E+02  0.29285078402E+02  0.32149791819E+02  0.51100000000E-03 0. -1.
         22    1    1    2    0    0 -0.80790771808E+01  0.21257005681E+02  0.74122285962E+02  0.77532219463E+02  0.00000000000E+00 0. -1.
          2    1    1    2  501    0  0.39649304997E+00 -0.32072328045E+02  0.89328036408E+03  0.89385602883E+03  0.25500000000E-02 0. -1.
<mgrwt>
<rscale>  0 0.23333770E+02</rscale>
<asrwt>0</asrwt>
<pdfrwt beam="1">  1       11 0.10000000E+01 0.13266253E+02</pdfrwt>
<pdfrwt beam="2">  1        2 0.52700652E-03 0.23333770E+02</pdfrwt>
<totfact> 0.27317612E+04</totfact>
</mgrwt>
</event>
<event>
 5    1  0.2804411E-003  0.2344209E+03  0.7818608E-02  0.1127676E+00
         11   -1    0    0    0    0  0.00000000000E+00  0.00000000000E+00  0.10000449068E+04  0.10000449068E+04  0.51100000000E-03 0.  1.
         -2   -1    0    0    0  501 -0.00000000000E+00 -0.00000000000E+00 -0.64136567138E+02  0.64136567189E+02  0.25500000000E-02 0. -1.
         11    1    1    2    0    0  0.35711040212E+02  0.10294060201E+03  0.38895990191E+03  0.40393297863E+03  0.51100000000E-03 0.  1.
         22    1    1    2    0    0  0.61602122723E+01  0.12172415696E+03  0.29983005494E+03  0.32365534207E+03  0.00000000000E+00 0.  1.
         -2    1    1    2    0  501 -0.41871252485E+02 -0.22466475898E+03  0.24711838283E+03  0.33659315330E+03  0.25500000000E-02 0. -1.
<mgrwt>
<rscale>  0 0.22853327E+03</rscale>
<asrwt>0</asrwt>
<pdfrwt beam="1">  1       11 0.10000000E+01 0.23442090E+03</pdfrwt>
<pdfrwt beam="2">  1       -2 0.98676070E-02 0.22853327E+03</pdfrwt>
<totfact> 0.53694821E+02</totfact>
</mgrwt>
</event>
<event>
 5    1  0.2804411E-003  0.3831427E+02  0.7818608E-02  0.1712712E+00
         11   -1    0    0    0    0  0.00000000000E+00  0.00000000000E+00  0.10002089893E+04  0.10002089893E+04  0.51100000000E-03 0. -1.
         -2   -1    0    0    0  501 -0.00000000000E+00 -0.00000000000E+00 -0.30952102551E+01  0.30952113055E+01  0.25500000000E-02 0. -1.
         11    1    1    2    0    0  0.26088664220E+02  0.23912667610E+02  0.16566376139E+03  0.16940164082E+03  0.51100000000E-03 0. -1.
         22    1    1    2    0    0 -0.66170337447E+01  0.10416398402E+02  0.51623660912E+02  0.53078139165E+02  0.00000000000E+00 0. -1.
         -2    1    1    2    0  501 -0.19471630475E+02 -0.34329066012E+02  0.77982635677E+03  0.78082442065E+03  0.25500000000E-02 0. -1.
<mgrwt>
<rscale>  0 0.21744304E+02</rscale>
<asrwt>0</asrwt>
<pdfrwt beam="1">  1       11 0.10000000E+01 0.38314270E+02</pdfrwt>
<pdfrwt beam="2">  1       -2 0.47628578E-03 0.21744304E+02</pdfrwt>
<totfact> 0.29771262E+04</totfact>
</mgrwt>
</event>
<event>
 5    1  0.2804411E-003  0.3138856E+03  0.7818608E-02  0.1078498E+00
         11   -1    0    0    0    0  0.00000000000E+00  0.00000000000E+00  0.10000499976E+04  0.10000499976E+04  0.51100000000E-03 0. -1.
          2   -1    0    0  501    0 -0.00000000000E+00 -0.00000000000E+00 -0.93140243996E+02  0.93140244031E+02  0.25500000000E-02 0. -1.
         11    1    1    2    0    0  0.98624672773E+02 -0.27794801480E+03  0.40011872595E+03  0.49706832515E+03  0.51100000000E-03 0. -1.
         22    1    1    2    0    0  0.21100487584E+02  0.49722905158E+02  0.63584237486E+02  0.83429929464E+02  0.00000000000E+00 0. -1.
          2    1    1    2  501    0 -0.11972516036E+03  0.22822510965E+03  0.44320679019E+03  0.51269198704E+03  0.25500000000E-02 0. -1.
<mgrwt>
<rscale>  0 0.31388564E+03</rscale>
<asrwt>0</asrwt>
<pdfrwt beam="1">  1       11 0.10000000E+01 0.29492713E+03</pdfrwt>
<pdfrwt beam="2">  1        2 0.14329984E-01 0.31388564E+03</pdfrwt>
<totfact> 0.51004794E+02</totfact>
</mgrwt>
</event>
<event>
 5    1  0.2804411E-003  0.1738799E+03  0.7818608E-02  0.1176989E+00
         11   -1    0    0    0    0  0.00000000000E+00  0.00000000000E+00  0.10000908976E+04  0.10000908976E+04  0.51100000000E-03 0. -1.
          2   -1    0    0  501    0 -0.00000000000E+00 -0.00000000000E+00 -0.30317548021E+02  0.30317548128E+02  0.25500000000E-02 0. -1.
         11    1    1    2    0    0  0.15887181816E+03  0.31771459942E+02  0.51449530631E+03  0.53940254030E+03  0.51100000000E-03 0. -1.
         22    1    1    2    0    0  0.99572960977E+01 -0.57285093882E+01  0.47959230498E+02  0.49315832705E+02  0.00000000000E+00 0.  1.
          2    1    1    2  501    0 -0.16882911425E+03 -0.26042950554E+02  0.40731881274E+03  0.44169007269E+03  0.25500000000E-02 0. -1.
<mgrwt>
<rscale>  0 0.17082595E+03</rscale>
<asrwt>0</asrwt>
<pdfrwt beam="1">  1       11 0.10000000E+01 0.17387989E+03</pdfrwt>
<pdfrwt beam="2">  1        2 0.46646620E-02 0.17082595E+03</pdfrwt>
<totfact> 0.20452788E+03</totfact>
</mgrwt>
</event>
<event>
 5    1  0.2804411E-003  0.8624737E+02  0.7818608E-02  0.1342325E+00
         11   -1    0    0    0    0  0.00000000000E+00  0.00000000000E+00  0.10002533765E+04  0.10002533765E+04  0.51100000000E-03 0. -1.
          2   -1    0    0  501    0 -0.00000000000E+00 -0.00000000000E+00 -0.23369529749E+02  0.23369529888E+02  0.25500000000E-02 0. -1.
         11    1    1    2    0    0 -0.11850822947E+03 -0.39222166684E+02  0.29155740203E+03  0.31715658197E+03  0.51100000000E-03 0. -1.
         22    1    1    2    0    0  0.63371786735E+02 -0.18776017778E+02  0.13455642228E+03  0.14991315144E+03  0.00000000000E+00 0. -1.
          2    1    1    2  501    0  0.55136442739E+02  0.57998184462E+02  0.55077002245E+03  0.55655317298E+03  0.25500000000E-02 0. -1.
<mgrwt>
<rscale>  0 0.75501654E+02</rscale>
<asrwt>0</asrwt>
<pdfrwt beam="1">  1       11 0.10000000E+01 0.86247373E+02</pdfrwt>
<pdfrwt beam="2">  1        2 0.35962231E-02 0.75501654E+02</pdfrwt>
<totfact> 0.26663790E+03</totfact>
</mgrwt>
</event>
<event>
 5    1  0.2804411E-003  0.8901129E+02  0.7818608E-02  0.1542972E+00
         11   -1    0    0    0    0  0.00000000000E+00  0.00000000000E+00  0.10002919675E+04  0.10002919675E+04  0.51100000000E-03 0. -1.
          2   -1    0    0  501    0 -0.00000000000E+00 -0.00000000000E+00 -0.99150937646E+01  0.99150940925E+01  0.25500000000E-02 0. -1.
         11    1    1    2    0    0 -0.74839012936E+02 -0.44001959132E+02  0.52104197627E+03  0.52822513316E+03  0.51100000000E-03 0. -1.
         22    1    1    2    0    0  0.27497172685E+01 -0.14004427133E+02  0.33163795716E+02  0.36104324820E+02  0.00000000000E+00 0. -1.
          2    1    1    2  501    0  0.72089295668E+02  0.58006386265E+02  0.43617110175E+03  0.44587760362E+03  0.25500000000E-02 0. -1.
<mgrwt>
<rscale>  0 0.35642016E+02</rscale>
<asrwt>0</asrwt>
<pdfrwt beam="1">  1       11 0.10000000E+01 0.89011285E+02</pdfrwt>
<pdfrwt beam="2">  1        2 0.15258444E-02 0.35642016E+02</pdfrwt>
<totfact> 0.73956893E+03</totfact>
</mgrwt>
</event>
<event>
 5    1  0.2804411E-003  0.1436388E+03  0.7818608E-02  0.1208515E+00
         11   -1    0    0    0    0  0.00000000000E+00  0.00000000000E+00  0.99994665166E+03  0.99994665166E+03  0.51100000000E-03 0. -1.
          2   -1    0    0  501    0 -0.00000000000E+00 -0.00000000000E+00 -0.97235376761E+02  0.97235376794E+02  0.25500000000E-02 0. -1.
         11    1    1    2    0    0 -0.17391170278E+02  0.15336801888E+02  0.94875644898E+02  0.97668102730E+02  0.51100000000E-03 0. -1.
         22    1    1    2    0    0  0.13234227917E+03  0.70271199832E+02  0.83946971376E+03  0.85273789684E+03  0.00000000000E+00 0. -1.
          2    1    1    2  501    0 -0.11495110889E+03 -0.85608001720E+02 -0.31634083762E+02  0.14677602888E+03  0.25500000000E-02 0. -1.
<mgrwt>
<rscale>  0 0.14363882E+03</rscale>
<asrwt>0</asrwt>
<pdfrwt beam="1">  1       11 0.10000000E+01 0.23187719E+02</pdfrwt>
<pdfrwt beam="2">  1        2 0.14958490E-01 0.14363882E+03</pdfrwt>
<totfact> 0.47044017E+02</totfact>
</mgrwt>
</event>
<event>
 5    1  0.2804411E-003  0.1989297E+03  0.7818608E-02  0.1155068E+00
         11   -1    0    0    0    0  0.00000000000E+00  0.00000000000E+00  0.10002090491E+04  0.10002090491E+04  0.51100000000E-03 0. -1.
         -2   -1    0    0    0  501 -0.00000000000E+00 -0.00000000000E+00 -0.39032118419E+02  0.39032118502E+02  0.25500000000E-02 0. -1.
         11    1    1    2    0    0  0.25455682229E+02 -0.13958680477E+03  0.27458723509E+03  0.30908027679E+03  0.51100000000E-03 0. -1.
         22    1    1    2    0    0  0.28621592476E+02 -0.46526798557E+02  0.15463532647E+03  0.16400006931E+03  0.00000000000E+00 0. -1.
         -2    1    1    2    0  501 -0.54077274705E+02  0.18611360332E+03  0.53195436910E+03  0.56616082149E+03  0.25500000000E-02 0. -1.
<mgrwt>
<rscale>  0 0.19381080E+03</rscale>
<asrwt>0</asrwt>
<pdfrwt beam="1">  1       11 0.10000000E+01 0.19892965E+03</pdfrwt>
<pdfrwt beam="2">  1       -2 0.60061965E-02 0.19381080E+03</pdfrwt>
<totfact> 0.11513475E+03</totfact>
</mgrwt>
</event>
<event>
 5    1  0.2804411E-003  0.5187076E+02  0.7818608E-02  0.1442094E+00
         11   -1    0    0    0    0  0.00000000000E+00  0.00000000000E+00  0.10002510762E+04  0.10002510762E+04  0.51100000000E-03 0.  1.
         -2   -1    0    0    0  501 -0.00000000000E+00 -0.00000000000E+00 -0.40604866669E+01  0.40604874676E+01  0.25500000000E-02 0.  1.
         11    1    1    2    0    0  0.20506537550E+02  0.10371947732E+02  0.73509825281E+02  0.77018113422E+02  0.51100000000E-03 0.  1.
         22    1    1    2    0    0  0.27522337526E+02  0.55751209876E+01  0.12997450964E+03  0.13297343417E+03  0.00000000000E+00 0.  1.
         -2    1    1    2    0  501 -0.48028875075E+02 -0.15947068720E+02  0.79270625466E+03  0.79432001613E+03  0.25500000000E-02 0.  1.
<mgrwt>
<rscale>  0 0.50607132E+02</rscale>
<asrwt>0</asrwt>
<pdfrwt beam="1">  1       11 0.10000000E+01 0.51870758E+02</pdfrwt>
<pdfrwt beam="2">  1       -2 0.62484715E-03 0.50607132E+02</pdfrwt>
<totfact> 0.25204448E+04</totfact>
</mgrwt>
</event>
<event>
 5    1  0.2804411E-003  0.2635548E+03  0.7818608E-02  0.1107286E+00
         11   -1    0    0    0    0  0.00000000000E+00  0.00000000000E+00  0.10002877390E+04  0.10002877390E+04  0.51100000000E-03 0. -1.
          2   -1    0    0  501    0 -0.00000000000E+00 -0.00000000000E+00 -0.74399556314E+02  0.74399556358E+02  0.25500000000E-02 0. -1.
         11    1    1    2    0    0  0.12948417054E+03  0.19565106827E+03  0.54733914339E+03  0.59550451621E+03  0.51100000000E-03 0. -1.
         22    1    1    2    0    0  0.26155283683E+02  0.12322880370E+02  0.70695448595E+02  0.76379308044E+02  0.00000000000E+00 0. -1.
          2    1    1    2  501    0 -0.15563945422E+03 -0.20797394864E+03  0.30785359071E+03  0.40280347111E+03  0.25500000000E-02 0. -1.
<mgrwt>
<rscale>  0 0.25976297E+03</rscale>
<asrwt>0</asrwt>
<pdfrwt beam="1">  1       11 0.10000000E+01 0.26355477E+03</pdfrwt>
<pdfrwt beam="2">  1        2 0.11449379E-01 0.25976297E+03</pdfrwt>
<totfact> 0.66528342E+02</totfact>
</mgrwt>
</event>
<event>
 5    1  0.2804411E-003  0.1501706E+03  0.7818608E-02  0.1203813E+00
         11   -1    0    0    0    0  0.00000000000E+00  0.00000000000E+00  0.10001859303E+04  0.10001859303E+04  0.51100000000E-03 0. -1.
          2   -1    0    0  501    0 -0.00000000000E+00 -0.00000000000E+00 -0.23912055184E+02  0.23912055320E+02  0.25500000000E-02 0. -1.
         11    1    1    2    0    0 -0.10431749326E+03  0.58114153750E+02  0.49659226418E+03  0.51074775683E+03  0.51100000000E-03 0. -1.
         22    1    1    2    0    0 -0.16842826178E+02  0.25681211626E+02  0.13604454436E+03  0.13946800162E+03  0.00000000000E+00 0.  1.
          2    1    1    2  501    0  0.12116031944E+03 -0.83795365376E+02  0.34363706660E+03  0.37388222720E+03  0.25500000000E-02 0. -1.
<mgrwt>
<rscale>  0 0.14731424E+03</rscale>
<asrwt>0</asrwt>
<pdfrwt beam="1">  1       11 0.10000000E+01 0.15017057E+03</pdfrwt>
<pdfrwt beam="2">  1        2 0.36794616E-02 0.14731424E+03</pdfrwt>
<totfact> 0.27667081E+03</totfact>
</mgrwt>
</event>
<event>
 5    1  0.2804411E-003  0.2218532E+03  0.7818608E-02  0.1137726E+00
         11   -1    0    0    0    0  0.00000000000E+00  0.00000000000E+00  0.10005367802E+04  0.10005367802E+04  0.51100000000E-03 0. -1.
          2   -1    0    0  501    0 -0.00000000000E+00 -0.00000000000E+00 -0.29279882131E+03  0.29279882132E+03  0.25500000000E-02 0. -1.
         11    1    1    2    0    0 -0.17574695302E+03 -0.43508451803E+02  0.84895763996E+03  0.86804899131E+03  0.51100000000E-03 0. -1.
         22    1    1    2    0    0 -0.35874592111E+02  0.59857005472E+01  0.97505576452E+02  0.10406801819E+03  0.00000000000E+00 0. -1.
          2    1    1    2  501    0  0.21162154513E+03  0.37522751256E+02 -0.23872525756E+03  0.32121859197E+03  0.25500000000E-02 0. -1.
<mgrwt>
<rscale>  0 0.21492239E+03</rscale>
<asrwt>0</asrwt>
<pdfrwt beam="1">  1       11 0.10000000E+01 0.22185324E+03</pdfrwt>
<pdfrwt beam="2">  1        2 0.45070151E-01 0.21492239E+03</pdfrwt>
<totfact> 0.13915963E+02</totfact>
</mgrwt>
</event>
<event>
 5    1  0.2804411E-003  0.8066200E+02  0.7818608E-02  0.1327183E+00
         11   -1    0    0    0    0  0.00000000000E+00  0.00000000000E+00  0.99999653375E+03  0.99999653375E+03  0.51100000000E-03 0.  1.
          2   -1    0    0  501    0 -0.00000000000E+00 -0.00000000000E+00 -0.96419753639E+01  0.96419757011E+01  0.25500000000E-02 0.  1.
         11    1    1    2    0    0 -0.18116983689E+02 -0.69805214705E+01  0.98314995693E+02  0.10021372739E+03  0.51100000000E-03 0.  1.
         22    1    1    2    0    0  0.60217892192E+02  0.61315354668E+02  0.26402622112E+03  0.27766096718E+03  0.00000000000E+00 0.  1.
          2    1    1    2  501    0 -0.42100908503E+02 -0.54334833198E+02  0.62801334158E+03  0.63176381489E+03  0.25500000000E-02 0.  1.
<mgrwt>
<rscale>  0 0.80661996E+02</rscale>
<asrwt>0</asrwt>
<pdfrwt beam="1">  1       11 0.10000000E+01 0.19415272E+02</pdfrwt>
<pdfrwt beam="2">  1        2 0.14833757E-02 0.80661996E+02</pdfrwt>
<totfact> 0.87624169E+03</totfact>
</mgrwt>
</event>
<event>
 5    1  0.2804411E-003  0.2029749E+03  0.7818608E-02  0.1152942E+00
         11   -1    0    0    0    0  0.00000000000E+00  0.00000000000E+00  0.10001648179E+04  0.10001648179E+04  0.51100000000E-03 0. -1.
          2   -1    0    0  501    0 -0.00000000000E+00 -0.00000000000E+00 -0.80189982222E+02  0.80189982262E+02  0.25500000000E-02 0. -1.
         11    1    1    2    0    0  0.11493116682E+03  0.48294467372E+02  0.56861932211E+03  0.58212495409E+03  0.51100000000E-03 0. -1.
         22    1    1    2    0    0  0.76811558341E+02 -0.64754862255E+01  0.27837295135E+03  0.28884848530E+03  0.00000000000E+00 0.  1.
          2    1    1    2  501    0 -0.19174272517E+03 -0.41818981146E+02  0.72982562181E+02  0.20938136074E+03  0.25500000000E-02 0. -1.
<mgrwt>
<rscale>  0 0.19625010E+03</rscale>
<asrwt>0</asrwt>
<pdfrwt beam="1">  1       11 0.10000000E+01 0.20297493E+03</pdfrwt>
<pdfrwt beam="2">  1        2 0.12338953E-01 0.19625010E+03</pdfrwt>
<totfact> 0.59980250E+02</totfact>
</mgrwt>
</event>
<event>
 5    1  0.2804411E-003  0.8604658E+02  0.7818608E-02  0.1540174E+00
         11   -1    0    0    0    0  0.00000000000E+00  0.00000000000E+00  0.10002634546E+04  0.10002634546E+04  0.51100000000E-03 0.  1.
          2   -1    0    0  501    0 -0.00000000000E+00 -0.00000000000E+00 -0.12179353508E+03  0.12179353510E+03  0.25500000000E-02 0. -1.
         11    1    1    2    0    0  0.73201829651E+02  0.72490162696E+02  0.59283027026E+03  0.60171509943E+03  0.51100000000E-03 0.  1.
         22    1    1    2    0    0 -0.38412997720E+02 -0.63358304925E+02  0.39672200590E+03  0.40358169329E+03  0.00000000000E+00 0.  1.
          2    1    1    2  501    0 -0.34788831931E+02 -0.91318577702E+01 -0.11108235660E+03  0.11676019702E+03  0.25500000000E-02 0. -1.
<mgrwt>
<rscale>  0 0.35967397E+02</rscale>
<asrwt>0</asrwt>
<pdfrwt beam="1">  1       11 0.10000000E+01 0.86046581E+02</pdfrwt>
<pdfrwt beam="2">  1        2 0.18742403E-01 0.35967397E+02</pdfrwt>
<totfact> 0.34124784E+02</totfact>
</mgrwt>
</event>
<event>
 5    1  0.2804411E-003  0.1568321E+03  0.7818608E-02  0.1223805E+00
         11   -1    0    0    0    0  0.00000000000E+00  0.00000000000E+00  0.10002969000E+04  0.10002969000E+04  0.51100000000E-03 0. -1.
          2   -1    0    0  501    0 -0.00000000000E+00 -0.00000000000E+00 -0.12431958169E+03  0.12431958172E+03  0.25500000000E-02 0. -1.
         11    1    1    2    0    0 -0.15833000244E+03 -0.29703664734E+02  0.82280913911E+03  0.83843042452E+03  0.51100000000E-03 0. -1.
         22    1    1    2    0    0  0.35915654394E+02  0.10601033660E+03  0.82419540013E+02  0.13900038228E+03  0.00000000000E+00 0. -1.
          2    1    1    2  501    0  0.12241434804E+03 -0.76306671871E+02 -0.29251360830E+02  0.14718567490E+03  0.25500000000E-02 0. -1.
<mgrwt>
<rscale>  0 0.13249179E+03</rscale>
<asrwt>0</asrwt>
<pdfrwt beam="1">  1       11 0.10000000E+01 0.15683207E+03</pdfrwt>
<pdfrwt beam="2">  1        2 0.19131767E-01 0.13249179E+03</pdfrwt>
<totfact> 0.35302701E+02</totfact>
</mgrwt>
</event>
<event>
 5    1  0.2829836E-003  0.4272090E+03  0.7818608E-02  0.1037078E+00
         11   -1    0    0    0    0  0.00000000000E+00  0.00000000000E+00  0.10003577368E+04  0.10003577368E+04  0.51100000000E-03 0.  1.
          2   -1    0    0  501    0 -0.00000000000E+00 -0.00000000000E+00 -0.23818696594E+04  0.23818696594E+04  0.25500000000E-02 0. -1.
         11    1    1    2    0    0  0.37242326430E+03 -0.13799580718E+03  0.82481794380E+03  0.91545975935E+03  0.51100000000E-03 0.  1.
         22    1    1    2    0    0  0.21465368233E+02 -0.76800892484E+01  0.11017166622E+03  0.11250574137E+03  0.00000000000E+00 0.  1.
          2    1    1    2  501    0 -0.39388863253E+03  0.14567589643E+03 -0.23165015326E+04  0.23542618954E+04  0.25500000000E-02 0. -1.
<mgrwt>
<rscale>  0 0.41996395E+03</rscale>
<asrwt>0</asrwt>
<pdfrwt beam="1">  1       11 0.10000000E+01 0.42720897E+03</pdfrwt>
<pdfrwt beam="2">  1        2 0.36657257E+00 0.41996395E+03</pdfrwt>
<totfact> 0.55446881E+00</totfact>
</mgrwt>
</event>
<event>
 5    1  0.2804411E-003  0.1918981E+03  0.7818608E-02  0.1156760E+00
         11   -1    0    0    0    0  0.00000000000E+00  0.00000000000E+00  0.10003546073E+04  0.10003546073E+04  0.51100000000E-03 0.  1.
          2   -1    0    0  501    0 -0.00000000000E+00 -0.00000000000E+00 -0.62504526241E+03  0.62504526242E+03  0.25500000000E-02 0.  1.
         11    1    1    2    0    0  0.12033049657E+02 -0.80024688097E+02  0.25290662290E+03  0.26553814207E+03  0.51100000000E-03 0.  1.
         22    1    1    2    0    0 -0.12554112013E+03 -0.76167736541E+02  0.71845991862E+03  0.73331217881E+03  0.00000000000E+00 0.  1.
          2    1    1    2  501    0  0.11350807047E+03  0.15619242464E+03 -0.59605719659E+03  0.62654954887E+03  0.25500000000E-02 0.  1.
<mgrwt>
<rscale>  0 0.19189811E+03</rscale>
<asrwt>0</asrwt>
<pdfrwt beam="1">  1       11 0.10000000E+01 0.80924316E+02</pdfrwt>
<pdfrwt beam="2">  1        2 0.96194906E-01 0.19189811E+03</pdfrwt>
<totfact> 0.60469134E+01</totfact>
</mgrwt>
</event>
<event>
 5    1  0.2804411E-003  0.1933567E+03  0.7818608E-02  0.1159626E+00
         11   -1    0    0    0    0  0.00000000000E+00  0.00000000000E+00  0.10003884727E+04  0.10003884727E+04  0.51100000000E-03 0.  1.
          2   -1    0    0  501    0 -0.00000000000E+00 -0.00000000000E+00 -0.36794717540E+02  0.36794717628E+02  0.25500000000E-02 0.  1.
         11    1    1    2    0    0  0.16805514256E+03  0.51118292549E+02  0.50018680412E+03  0.53013436956E+03  0.51100000000E-03 0.  1.
         22    1    1    2    0    0  0.88690160609E+01  0.14540033421E+02  0.35338207137E+02  0.39228317596E+02  0.00000000000E+00 0. -1.
          2    1    1    2  501    0 -0.17692415862E+03 -0.65658325970E+02  0.42806874390E+03  0.46782050316E+03  0.25500000000E-02 0.  1.
<mgrwt>
<rscale>  0 0.18871453E+03</rscale>
<asrwt>0</asrwt>
<pdfrwt beam="1">  1       11 0.10000000E+01 0.19335675E+03</pdfrwt>
<pdfrwt beam="2">  1        2 0.56629247E-02 0.18871453E+03</pdfrwt>
<totfact> 0.15975484E+03</totfact>
</mgrwt>
</event>
<event>
 5    1  0.2804411E-003  0.1193901E+03  0.7818608E-02  0.1244107E+00
         11   -1    0    0    0    0  0.00000000000E+00  0.00000000000E+00  0.99999500815E+03  0.99999500815E+03  0.51100000000E-03 0. -1.
         -2   -1    0    0    0  501 -0.00000000000E+00 -0.00000000000E+00 -0.72275798842E+02  0.72275798887E+02  0.25500000000E-02 0. -1.
         11    1    1    2    0    0  0.10225493836E+03  0.51406408582E+02  0.59142639902E+03  0.60239843685E+03  0.51100000000E-03 0. -1.
         22    1    1    2    0    0  0.18774860410E+02 -0.56941979317E+02  0.34331642917E+03  0.34851263238E+03  0.00000000000E+00 0. -1.
         -2    1    1    2    0  501 -0.12102979877E+03  0.55355707350E+01 -0.70236188739E+01  0.12135973781E+03  0.25500000000E-02 0. -1.
<mgrwt>
<rscale>  0 0.11939014E+03</rscale>
<asrwt>0</asrwt>
<pdfrwt beam="1">  1       11 0.10000000E+01 0.59957355E+02</pdfrwt>
<pdfrwt beam="2">  1       -2 0.11119298E-01 0.11939014E+03</pdfrwt>
<totfact> 0.42854466E+02</totfact>
</mgrwt>
</event>
<event>
 5    1  0.2804411E-003  0.1421026E+03  0.7818608E-02  0.1210527E+00
         11   -1    0    0    0    0  0.00000000000E+00  0.00000000000E+00  0.10002442576E+04  0.10002442576E+04  0.51100000000E-03 0. -1.
          2   -1    0    0  501    0 -0.00000000000E+00 -0.00000000000E+00 -0.46926547941E+03  0.46926547942E+03  0.25500000000E-02 0. -1.
         11    1    1    2    0    0 -0.36621929314E+01 -0.15182441569E+03  0.88395661605E+03  0.89690766745E+03  0.51100000000E-03 0. -1.
         22    1    1    2    0    0  0.17149751228E+02  0.10470459755E+02  0.97875400895E+02  0.99916658246E+02  0.00000000000E+00 0. -1.
          2    1    1    2  501    0 -0.13487558296E+02  0.14135395594E+03 -0.45085323881E+03  0.47268541128E+03  0.25500000000E-02 0. -1.
<mgrwt>
<rscale>  0 0.14210264E+03</rscale>
<asrwt>0</asrwt>
<pdfrwt beam="1">  1       11 0.10000000E+01 0.20093394E+02</pdfrwt>
<pdfrwt beam="2">  1        2 0.72212321E-01 0.14210264E+03</pdfrwt>
<totfact> 0.83924434E+01</totfact>
</mgrwt>
</event>
<event>
 5    1  0.2804411E-003  0.1310347E+03  0.7818608E-02  0.1229576E+00
         11   -1    0    0    0    0  0.00000000000E+00  0.00000000000E+00  0.99999803080E+03  0.99999803080E+03  0.51100000000E-03 0. -1.
          2   -1    0    0  501    0 -0.00000000000E+00 -0.00000000000E+00 -0.17977996340E+02  0.17977996521E+02  0.25500000000E-02 0. -1.
         11    1    1    2    0    0 -0.83633683982E+02 -0.83124650889E+02  0.59601255701E+03  0.60756503257E+03  0.51100000000E-03 0. -1.
         22    1    1    2    0    0 -0.64405103026E+01 -0.86348627791E+01  0.26826489687E+02  0.28908503543E+02  0.00000000000E+00 0.  1.
          2    1    1    2  501    0  0.90074194285E+02  0.91759513668E+02  0.35918098775E+03  0.38150249120E+03  0.25500000000E-02 0. -1.
<mgrwt>
<rscale>  0 0.12858137E+03</rscale>
<asrwt>0</asrwt>
<pdfrwt beam="1">  1       11 0.10000000E+01 0.13103467E+03</pdfrwt>
<pdfrwt beam="2">  1        2 0.27658401E-02 0.12858137E+03</pdfrwt>
<totfact> 0.40021450E+03</totfact>
</mgrwt>
</event>
<event>
 5    1  0.2804411E-003  0.1199225E+03  0.7818608E-02  0.1327539E+00
         11   -1    0    0    0    0  0.00000000000E+00  0.00000000000E+00  0.10003564521E+04  0.10003564521E+04  0.51100000000E-03 0. -1.
         -2   -1    0    0    0  501 -0.00000000000E+00 -0.00000000000E+00 -0.37691415063E+03  0.37691415064E+03  0.25500000000E-02 0.  1.
         11    1    1    2    0    0  0.17888896646E+03  0.28749122024E+02  0.40403548860E+03  0.44280068923E+03  0.51100000000E-03 0. -1.
         22    1    1    2    0    0 -0.98721293913E+02 -0.36435735872E+02  0.56750402999E+03  0.57717785888E+03  0.00000000000E+00 0. -1.
         -2    1    1    2    0  501 -0.80167672547E+02  0.76866138487E+01 -0.34809721710E+03  0.35729205465E+03  0.25500000000E-02 0.  1.
<mgrwt>
<rscale>  0 0.80535332E+02</rscale>
<asrwt>0</asrwt>
<pdfrwt beam="1">  1       11 0.10000000E+01 0.11992254E+03</pdfrwt>
<pdfrwt beam="2">  1       -2 0.58007460E-01 0.80535332E+02</pdfrwt>
<totfact> 0.23197452E+01</totfact>
</mgrwt>
</event>
<event>
 5    1  0.2804411E-003  0.1091747E+03  0.7818608E-02  0.1268441E+00
         11   -1    0    0    0    0  0.00000000000E+00  0.00000000000E+00  0.10001701734E+04  0.10001701734E+04  0.51100000000E-03 0. -1.
          2   -1    0    0  501    0 -0.00000000000E+00 -0.00000000000E+00 -0.17145023569E+02  0.17145023758E+02  0.25500000000E-02 0. -1.
         11    1    1    2    0    0  0.46500895828E+02 -0.82608301971E+02  0.16229605569E+03  0.18795338401E+03  0.51100000000E-03 0. -1.
         22    1    1    2    0    0  0.28722759931E+01 -0.11028915078E+02  0.43976908948E+02  0.45429675959E+02  0.00000000000E+00 0. -1.
          2    1    1    2  501    0 -0.49373171821E+02  0.93637217049E+02  0.77675218524E+03  0.78393213723E+03  0.25500000000E-02 0. -1.
<mgrwt>
<rscale>  0 0.10585669E+03</rscale>
<asrwt>0</asrwt>
<pdfrwt beam="1">  1       11 0.10000000E+01 0.10917471E+03</pdfrwt>
<pdfrwt beam="2">  1        2 0.26381447E-02 0.10585669E+03</pdfrwt>
<totfact> 0.41745018E+03</totfact>
</mgrwt>
</event>
<event>
 5    1  0.2804411E-003  0.1499684E+03  0.7818608E-02  0.1200512E+00
         11   -1    0    0    0    0  0.00000000000E+00  0.00000000000E+00  0.10003548820E+04  0.10003548820E+04  0.51100000000E-03 0. -1.
          2   -1    0    0  501    0 -0.00000000000E+00 -0.00000000000E+00 -0.69145711764E+02  0.69145711811E+02  0.25500000000E-02 0. -1.
         11    1    1    2    0    0  0.19482559945E+01  0.14873613660E+03  0.86615996545E+03  0.87883975774E+03  0.51100000000E-03 0. -1.
         22    1    1    2    0    0 -0.13689758024E+02  0.95957935984E+00  0.34909912991E+02  0.37510429114E+02  0.00000000000E+00 0. -1.
          2    1    1    2  501    0  0.11741502030E+02 -0.14969571596E+03  0.30139291836E+02  0.15315040700E+03  0.25500000000E-02 0. -1.
<mgrwt>
<rscale>  0 0.14996835E+03</rscale>
<asrwt>0</asrwt>
<pdfrwt beam="1">  1       11 0.10000000E+01 0.13723348E+02</pdfrwt>
<pdfrwt beam="2">  1        2 0.10641577E-01 0.14996835E+03</pdfrwt>
<totfact> 0.70876429E+02</totfact>
</mgrwt>
</event>
<event>
 5    1  0.2804411E-003  0.8626545E+02  0.7818608E-02  0.1312156E+00
         11   -1    0    0    0    0  0.00000000000E+00  0.00000000000E+00  0.10003377278E+04  0.10003377278E+04  0.51100000000E-03 0. -1.
          2   -1    0    0  501    0 -0.00000000000E+00 -0.00000000000E+00 -0.18569798531E+02  0.18569798707E+02  0.25500000000E-02 0.  1.
         11    1    1    2    0    0 -0.22413187416E+02 -0.76618559218E+02  0.13459412526E+03  0.15648748558E+03  0.51100000000E-03 0. -1.
         22    1    1    2    0    0  0.10808617558E+02 -0.40631442722E+02  0.17359197024E+03  0.17861106483E+03  0.00000000000E+00 0. -1.
          2    1    1    2  501    0  0.11604569857E+02  0.11725000194E+03  0.67358183378E+03  0.68380897611E+03  0.25500000000E-02 0.  1.
<mgrwt>
<rscale>  0 0.86265446E+02</rscale>
<asrwt>0</asrwt>
<pdfrwt beam="1">  1       11 0.10000000E+01 0.42044504E+02</pdfrwt>
<pdfrwt beam="2">  1        2 0.28578569E-02 0.86265446E+02</pdfrwt>
<totfact> 0.36646381E+03</totfact>
</mgrwt>
</event>
<event>
 5    1  0.2804411E-003  0.4097636E+03  0.7818608E-02  0.1045847E+00
         11   -1    0    0    0    0  0.00000000000E+00  0.00000000000E+00  0.10000598318E+04  0.10000598318E+04  0.51100000000E-03 0. -1.
          2   -1    0    0  501    0 -0.00000000000E+00 -0.00000000000E+00 -0.20165403496E+03  0.20165403498E+03  0.25500000000E-02 0. -1.
         11    1    1    2    0    0  0.83399847766E+02 -0.16607642070E+02  0.24408775109E+03  0.25847665004E+03  0.51100000000E-03 0. -1.
         22    1    1    2    0    0  0.28578646166E+03 -0.12124905150E+03  0.42932141073E+03  0.52980383904E+03  0.00000000000E+00 0. -1.
          2    1    1    2  501    0 -0.36918630943E+03  0.13785669357E+03  0.12499663504E+03  0.41343337772E+03  0.25500000000E-02 0. -1.
<mgrwt>
<rscale>  0 0.39408501E+03</rscale>
<asrwt>0</asrwt>
<pdfrwt beam="1">  1       11 0.10000000E+01 0.40976363E+03</pdfrwt>
<pdfrwt beam="2">  1        2 0.31025553E-01 0.39408501E+03</pdfrwt>
<totfact> 0.21015325E+02</totfact>
</mgrwt>
</event>
<event>
 5    1  0.2804411E-003  0.1619098E+03  0.7818608E-02  0.1199548E+00
         11   -1    0    0    0    0  0.00000000000E+00  0.00000000000E+00  0.10001053712E+04  0.10001053712E+04  0.51100000000E-03 0. -1.
          2   -1    0    0  501    0 -0.00000000000E+00 -0.00000000000E+00 -0.57437401088E+02  0.57437401144E+02  0.25500000000E-02 0. -1.
         11    1    1    2    0    0 -0.23457132586E+02  0.53171663490E+02  0.32007515098E+03  0.32530841542E+03  0.51100000000E-03 0. -1.
         22    1    1    2    0    0 -0.96549299969E+02  0.38073247661E+02  0.55910485058E+03  0.56865593591E+03  0.00000000000E+00 0. -1.
          2    1    1    2  501    0  0.12000643255E+03 -0.91244911151E+02  0.63487968569E+02  0.16357842102E+03  0.25500000000E-02 0. -1.
<mgrwt>
<rscale>  0 0.15075536E+03</rscale>
<asrwt>0</asrwt>
<pdfrwt beam="1">  1       11 0.10000000E+01 0.16190981E+03</pdfrwt>
<pdfrwt beam="2">  1        2 0.88374541E-02 0.15075536E+03</pdfrwt>
<totfact> 0.89169888E+02</totfact>
</mgrwt>
</event>
<event>
 5    1  0.2804411E-003  0.3352587E+03  0.7818608E-02  0.1068833E+00
         11   -1    0    0    0    0  0.00000000000E+00  0.00000000000E+00  0.10005581626E+04  0.10005581626E+04  0.51100000000E-03 0.  1.
         -2   -1    0    0    0  501 -0.00000000000E+00 -0.00000000000E+00 -0.13948487376E+03  0.13948487378E+03  0.25500000000E-02 0. -1.
         11    1    1    2    0    0  0.18362480479E+03  0.26160092741E+03  0.47489081000E+03  0.57242850696E+03  0.51100000000E-03 0.  1.
         22    1    1    2    0    0  0.93545300776E+01  0.24650839810E+02  0.14281847009E+03  0.14523183720E+03  0.00000000000E+00 0.  1.
         -2    1    1    2    0  501 -0.19297933487E+03 -0.28625176722E+03  0.24336400874E+03  0.42238269221E+03  0.25500000000E-02 0. -1.
<mgrwt>
<rscale>  0 0.33525865E+03</rscale>
<asrwt>0</asrwt>
<pdfrwt beam="1">  1       11 0.10000000E+01 0.26366098E+02</pdfrwt>
<pdfrwt beam="2">  1       -2 0.21471188E-01 0.33525865E+03</pdfrwt>
<totfact> 0.15007389E+02</totfact>
</mgrwt>
</event>
<event>
 5    1  0.2804411E-003  0.4001907E+03  0.7818608E-02  0.1045402E+00
         11   -1    0    0    0    0  0.00000000000E+00  0.00000000000E+00  0.10000781710E+04  0.10000781710E+04  0.51100000000E-03 0. -1.
          2   -1    0    0  501    0 -0.00000000000E+00 -0.00000000000E+00 -0.22953839469E+03  0.22953839471E+03  0.25500000000E-02 0. -1.
         11    1    1    2    0    0  0.24826778944E+03  0.23961820675E+03  0.64144248815E+03  0.72835585113E+03  0.51100000000E-03 0. -1.
         22    1    1    2    0    0  0.51816197611E+02  0.17776091865E+02  0.88163523170E+02  0.10379650570E+03  0.00000000000E+00 0. -1.
          2    1    1    2  501    0 -0.30008398705E+03 -0.25739429862E+03  0.40933765029E+02  0.39746420892E+03  0.25500000000E-02 0. -1.
<mgrwt>
<rscale>  0 0.39535076E+03</rscale>
<asrwt>0</asrwt>
<pdfrwt beam="1">  1       11 0.10000000E+01 0.40019072E+03</pdfrwt>
<pdfrwt beam="2">  1        2 0.35316359E-01 0.39535076E+03</pdfrwt>
<totfact> 0.18206915E+02</totfact>
</mgrwt>
</event>
<event>
 5    1  0.2804411E-003  0.3342198E+03  0.7818608E-02  0.1334179E+00
         11   -1    0    0    0    0  0.00000000000E+00  0.00000000000E+00  0.10001415083E+04  0.10001415083E+04  0.51100000000E-03 0. -1.
          2   -1    0    0  501    0 -0.00000000000E+00 -0.00000000000E+00 -0.59650313101E+03  0.59650313102E+03  0.25500000000E-02 0. -1.
         11    1    1    2    0    0  0.29446629447E+03 -0.17127602646E+03  0.56432421861E+03  0.65917198024E+03  0.51100000000E-03 0. -1.
         22    1    1    2    0    0 -0.31571572994E+03  0.95997399245E+02  0.31452308105E+03  0.45586916029E+03  0.00000000000E+00 0. -1.
          2    1    1    2  501    0  0.21249435465E+02  0.75278627215E+02 -0.47520892233E+03  0.48160349883E+03  0.25500000000E-02 0. -1.
<mgrwt>
<rscale>  0 0.78220267E+02</rscale>
<asrwt>0</asrwt>
<pdfrwt beam="1">  1       11 0.10000000E+01 0.33421979E+03</pdfrwt>
<pdfrwt beam="2">  1        2 0.91782696E-01 0.78220267E+02</pdfrwt>
<totfact> 0.65143039E+01</totfact>
</mgrwt>
</event>
<event>
 5    1  0.2804411E-003  0.6873515E+02  0.7818608E-02  0.1364448E+00
         11   -1    0    0    0    0  0.00000000000E+00  0.00000000000E+00  0.10002047781E+04  0.10002047781E+04  0.51100000000E-03 0.  1.
          2   -1    0    0  501    0 -0.00000000000E+00 -0.00000000000E+00 -0.17692109040E+02  0.17692109224E+02  0.25500000000E-02 0.  1.
         11    1    1    2    0    0  0.48144228912E+02 -0.26366678818E+01  0.75923595100E+02  0.89940041629E+02  0.51100000000E-03 0.  1.
         22    1    1    2    0    0 -0.43436346112E+00 -0.67997115139E+02  0.13005440097E+03  0.14675811239E+03  0.00000000000E+00 0.  1.
          2    1    1    2  501    0 -0.47709865451E+02  0.70633783020E+02  0.77653467300E+03  0.78119873333E+03  0.25500000000E-02 0.  1.
<mgrwt>
<rscale>  0 0.68735145E+02</rscale>
<asrwt>0</asrwt>
<pdfrwt beam="1">  1       11 0.10000000E+01 0.48216399E+02</pdfrwt>
<pdfrwt beam="2">  1        2 0.27224202E-02 0.68735145E+02</pdfrwt>
<totfact> 0.38027150E+03</totfact>
</mgrwt>
</event>
<event>
 5    1  0.2804411E-003  0.2546928E+03  0.7818608E-02  0.1126150E+00
         11   -1    0    0    0    0  0.00000000000E+00  0.00000000000E+00  0.10001538775E+04  0.10001538775E+04  0.51100000000E-03 0.  1.
          2   -1    0    0  501    0 -0.00000000000E+00 -0.00000000000E+00 -0.68699031914E+02  0.68699031962E+02  0.25500000000E-02 0.  1.
         11    1    1    2    0    0 -0.13749795938E+03 -0.70789276356E+02  0.32236441004E+03  0.35754107924E+03  0.51100000000E-03 0.  1.
         22    1    1    2    0    0 -0.37113701514E+02 -0.79981696494E+02  0.36481170672E+03  0.37531597351E+03  0.00000000000E+00 0. -1.
          2    1    1    2  501    0  0.17461166089E+03  0.15077097285E+03  0.24427872886E+03  0.33599585675E+03  0.25500000000E-02 0.  1.
<mgrwt>
<rscale>  0 0.23069703E+03</rscale>
<asrwt>0</asrwt>
<pdfrwt beam="1">  1       11 0.10000000E+01 0.25469284E+03</pdfrwt>
<pdfrwt beam="2">  1        2 0.10570708E-01 0.23069703E+03</pdfrwt>
<totfact> 0.73023246E+02</totfact>
</mgrwt>
</event>
<event>
 5    1  0.2804411E-003  0.8175277E+02  0.7818608E-02  0.1351846E+00
         11   -1    0    0    0    0  0.00000000000E+00  0.00000000000E+00  0.10001483422E+04  0.10001483422E+04  0.51100000000E-03 0. -1.
          2   -1    0    0  501    0 -0.00000000000E+00 -0.00000000000E+00 -0.16708887696E+02  0.16708887890E+02  0.25500000000E-02 0. -1.
         11    1    1    2    0    0  0.28859860008E+02 -0.68675103007E+02  0.36014374537E+03  0.36776715273E+03  0.51100000000E-03 0. -1.
         22    1    1    2    0    0  0.61539111754E+02  0.18518887197E+02  0.12926808114E+03  0.14436151932E+03  0.00000000000E+00 0. -1.
          2    1    1    2  501    0 -0.90398971762E+02  0.50156215810E+02  0.49402762794E+03  0.50472855799E+03  0.25500000000E-02 0. -1.
<mgrwt>
<rscale>  0 0.72483484E+02</rscale>
<asrwt>0</asrwt>
<pdfrwt beam="1">  1       11 0.10000000E+01 0.81752772E+02</pdfrwt>
<pdfrwt beam="2">  1        2 0.25709794E-02 0.72483484E+02</pdfrwt>
<totfact> 0.41295677E+03</totfact>
</mgrwt>
</event>
<event>
 5    1  0.2804411E-003  0.1012237E+03  0.7818608E-02  0.1277743E+00
         11   -1    0    0    0    0  0.00000000000E+00  0.00000000000E+00  0.99995246509E+03  0.99995246509E+03  0.51100000000E-03 0. -1.
          2   -1    0    0  501    0 -0.00000000000E+00 -0.00000000000E+00 -0.33203807512E+02  0.33203807610E+02  0.25500000000E-02 0. -1.
         11    1    1    2    0    0  0.48604444386E+01  0.11123615261E+03  0.49137908530E+03  0.50383579769E+03  0.51100000000E-03 0. -1.
         22    1    1    2    0    0 -0.93668365392E+02 -0.41005394671E+02  0.12719093556E+03  0.16319540176E+03  0.00000000000E+00 0. -1.
          2    1    1    2  501    0  0.88807920954E+02 -0.70230757942E+02  0.34817863672E+03  0.36612507324E+03  0.25500000000E-02 0. -1.
<mgrwt>
<rscale>  0 0.10122375E+03</rscale>
<asrwt>0</asrwt>
<pdfrwt beam="1">  1       11 0.10000000E+01 0.10020711E+03</pdfrwt>
<pdfrwt beam="2">  1        2 0.51080351E-02 0.10122375E+03</pdfrwt>
<totfact> 0.17385331E+03</totfact>
</mgrwt>
</event>
<event>
 5    1  0.2804411E-003  0.2904535E+03  0.7818608E-02  0.1745045E+00
         11   -1    0    0    0    0  0.00000000000E+00  0.00000000000E+00  0.99985888376E+03  0.99985888376E+03  0.51100000000E-03 0. -1.
          2   -1    0    0  501    0 -0.00000000000E+00 -0.00000000000E+00 -0.15702481799E+04  0.15702481799E+04  0.25500000000E-02 0. -1.
         11    1    1    2    0    0  0.23874889653E+03  0.13943027431E+03 -0.57140576021E+02  0.28232407339E+03  0.51100000000E-03 0. -1.
         22    1    1    2    0    0 -0.25857181210E+03 -0.13666967094E+03  0.86309087287E+03  0.91129788533E+03  0.00000000000E+00 0. -1.
          2    1    1    2  501    0  0.19822915572E+02 -0.27606033733E+01 -0.13763395930E+04  0.13764851049E+04  0.25500000000E-02 0. -1.
<mgrwt>
<rscale>  0 0.20014218E+02</rscale>
<asrwt>0</asrwt>
<pdfrwt beam="1">  1       11 0.10000000E+01 0.29045354E+03</pdfrwt>
<pdfrwt beam="2">  1        2 0.24154255E+00 0.20014218E+02</pdfrwt>
<totfact> 0.19758514E+01</totfact>
</mgrwt>
</event>
<event>
 5    1  0.2804411E-003  0.7050612E+02  0.7818608E-02  0.1366925E+00
         11   -1    0    0    0    0  0.00000000000E+00  0.00000000000E+00  0.10001441317E+04  0.10001441317E+04  0.51100000000E-03 0.  1.
         -2   -1    0    0    0  501 -0.00000000000E+00 -0.00000000000E+00 -0.56625699740E+01  0.56625705482E+01  0.25500000000E-02 0.  1.
         11    1    1    2    0    0  0.48100965937E+01 -0.96783349413E+01  0.27215475811E+02  0.29282918576E+02  0.51100000000E-03 0.  1.
         22    1    1    2    0    0  0.42905940116E+02 -0.38810924825E+02  0.28100127788E+03  0.28689532194E+03  0.00000000000E+00 0.  1.
         -2    1    1    2    0  501 -0.47716036709E+02  0.48489259766E+02  0.68626480807E+03  0.68962846176E+03  0.25500000000E-02 0.  1.
<mgrwt>
<rscale>  0 0.68029615E+02</rscale>
<asrwt>0</asrwt>
<pdfrwt beam="1">  1       11 0.10000000E+01 0.70506117E+02</pdfrwt>
<pdfrwt beam="2">  1       -2 0.87129019E-03 0.68029615E+02</pdfrwt>
<totfact> 0.16806997E+04</totfact>
</mgrwt>
</event>
<event>
 5    1  0.2804411E-003  0.2414915E+03  0.7818608E-02  0.1118803E+00
         11   -1    0    0    0    0  0.00000000000E+00  0.00000000000E+00  0.10000530652E+04  0.10000530652E+04  0.51100000000E-03 0. -1.
         -2   -1    0    0    0  501 -0.00000000000E+00 -0.00000000000E+00 -0.22590730398E+03  0.22590730400E+03  0.25500000000E-02 0. -1.
         11    1    1    2    0    0  0.88568824188E+02 -0.22568622919E+03  0.87972792385E+03  0.91252393430E+03  0.51100000000E-03 0. -1.
         22    1    1    2    0    0 -0.16163075389E+02 -0.46613998210E+01  0.31549303070E+02  0.35753771529E+02  0.00000000000E+00 0.  1.
         -2    1    1    2    0  501 -0.72405748799E+02  0.23034762901E+03 -0.13713146569E+03  0.27768266338E+03  0.25500000000E-02 0. -1.
<mgrwt>
<rscale>  0 0.24149154E+03</rscale>
<asrwt>0</asrwt>
<pdfrwt beam="1">  1       11 0.10000000E+01 0.16821821E+02</pdfrwt>
<pdfrwt beam="2">  1       -2 0.34756813E-01 0.24149154E+03</pdfrwt>
<totfact> 0.62772891E+01</totfact>
</mgrwt>
</event>
<event>
 5    1  0.2804411E-003  0.7611332E+02  0.7818608E-02  0.1352905E+00
         11   -1    0    0    0    0  0.00000000000E+00  0.00000000000E+00  0.10002082866E+04  0.10002082866E+04  0.51100000000E-03 0. -1.
          2   -1    0    0  501    0 -0.00000000000E+00 -0.00000000000E+00 -0.70668874102E+01  0.70668878702E+01  0.25500000000E-02 0. -1.
         11    1    1    2    0    0  0.74963727629E+01 -0.38795418029E+02  0.11105167179E+03  0.11787176877E+03  0.51100000000E-03 0. -1.
         22    1    1    2    0    0  0.20816115797E+02 -0.27575993267E+02  0.15835288684E+03  0.16207832320E+03  0.00000000000E+00 0. -1.
          2    1    1    2  501    0 -0.28312488560E+02  0.66371411296E+02  0.72373684060E+03  0.72732508255E+03  0.25500000000E-02 0. -1.
<mgrwt>
<rscale>  0 0.72157891E+02</rscale>
<asrwt>0</asrwt>
<pdfrwt beam="1">  1       11 0.10000000E+01 0.76113322E+02</pdfrwt>
<pdfrwt beam="2">  1        2 0.10874399E-02 0.72157891E+02</pdfrwt>
<totfact> 0.13121758E+04</totfact>
</mgrwt>
</event>
<event>
 5    1  0.2804411E-003  0.1343435E+03  0.7818608E-02  0.1221149E+00
         11   -1    0    0    0    0  0.00000000000E+00  0.00000000000E+00  0.99970659797E+03  0.99970659797E+03  0.51100000000E-03 0.  1.
         -2   -1    0    0    0  501 -0.00000000000E+00 -0.00000000000E+00 -0.78562649921E+02  0.78562649963E+02  0.25500000000E-02 0. -1.
         11    1    1    2    0    0 -0.60698358966E+02 -0.52914525886E+02  0.47415133849E+03  0.48094046369E+03  0.51100000000E-03 0.  1.
         22    1    1    2    0    0  0.36358230397E+02 -0.87858625763E+02  0.44438435159E+03  0.45444307782E+03  0.00000000000E+00 0.  1.
         -2    1    1    2    0  501  0.24340128568E+02  0.14077315165E+03  0.26082579751E+01  0.14288570642E+03  0.25500000000E-02 0. -1.
<mgrwt>
<rscale>  0 0.13434346E+03</rscale>
<asrwt>0</asrwt>
<pdfrwt beam="1">  1       11 0.10000000E+01 0.80524765E+02</pdfrwt>
<pdfrwt beam="2">  1       -2 0.12083015E-01 0.13434346E+03</pdfrwt>
<totfact> 0.37804354E+02</totfact>
</mgrwt>
</event>
<event>
 5    1  0.2804411E-003  0.2029485E+03  0.7818608E-02  0.1147275E+00
         11   -1    0    0    0    0  0.00000000000E+00  0.00000000000E+00  0.10008249753E+04  0.10008249753E+04  0.51100000000E-03 0.  1.
          2   -1    0    0  501    0 -0.00000000000E+00 -0.00000000000E+00 -0.12391166361E+04  0.12391166361E+04  0.25500000000E-02 0.  1.
         11    1    1    2    0    0 -0.38849699544E+03 -0.67792077258E+02  0.58808378755E+03  0.70807359956E+03  0.51100000000E-03 0.  1.
         22    1    1    2    0    0  0.19481687888E+03  0.16360880255E+02  0.31625172722E+03  0.37180162676E+03  0.00000000000E+00 0.  1.
          2    1    1    2  501    0  0.19368011657E+03  0.51431197004E+02 -0.11426271756E+04  0.11600663851E+04  0.25500000000E-02 0.  1.
<mgrwt>
<rscale>  0 0.20294850E+03</rscale>
<asrwt>0</asrwt>
<pdfrwt beam="1">  1       11 0.10000000E+01 0.19550267E+03</pdfrwt>
<pdfrwt beam="2">  1        2 0.19079059E+00 0.20294850E+03</pdfrwt>
<totfact> 0.24174221E+01</totfact>
</mgrwt>
</event>
<event>
 5    1  0.2804411E-003  0.1956870E+03  0.7818608E-02  0.1156116E+00
         11   -1    0    0    0    0  0.00000000000E+00  0.00000000000E+00  0.10005025486E+04  0.10005025486E+04  0.51100000000E-03 0. -1.
          2   -1    0    0  501    0 -0.00000000000E+00 -0.00000000000E+00 -0.52901078364E+02  0.52901078426E+02  0.25500000000E-02 0.  1.
         11    1    1    2    0    0 -0.17165524969E+03  0.59676091955E+02  0.72881906158E+03  0.75113513113E+03  0.51100000000E-03 0. -1.
         22    1    1    2    0    0 -0.80798335107E+01  0.96003675268E+01  0.30185633107E+02  0.32689802879E+02  0.00000000000E+00 0. -1.
          2    1    1    2  501    0  0.17973508320E+03 -0.69276459482E+02  0.18859677554E+03  0.26957869301E+03  0.25500000000E-02 0.  1.
<mgrwt>
<rscale>  0 0.19262380E+03</rscale>
<asrwt>0</asrwt>
<pdfrwt beam="1">  1       11 0.10000000E+01 0.19568700E+03</pdfrwt>
<pdfrwt beam="2">  1        2 0.81427173E-02 0.19262380E+03</pdfrwt>
<totfact> 0.10027102E+03</totfact>
</mgrwt>
</event>
<event>
 5    1  0.2804411E-003  0.2286247E+03  0.7818608E-02  0.1138616E+00
         11   -1    0    0    0    0  0.00000000000E+00  0.00000000000E+00  0.99999028300E+03  0.99999028300E+03  0.51100000000E-03 0.  1.
         -2   -1    0    0    0  501 -0.00000000000E+00 -0.00000000000E+00 -0.71751568644E+03  0.71751568645E+03  0.25500000000E-02 0. -1.
         11    1    1    2    0    0 -0.13564823234E+03 -0.47387204784E+02  0.64878614744E+03  0.66450692640E+03  0.51100000000E-03 0.  1.
         22    1    1    2    0    0 -0.77616434226E+02  0.32726093545E+02  0.32169903327E+03  0.33254409643E+03  0.00000000000E+00 0.  1.
         -2    1    1    2    0  501  0.21326466657E+03  0.14661111239E+02 -0.68801058416E+03  0.72045494662E+03  0.25500000000E-02 0. -1.
<mgrwt>
<rscale>  0 0.21376802E+03</rscale>
<asrwt>0</asrwt>
<pdfrwt beam="1">  1       11 0.10000000E+01 0.22862471E+03</pdfrwt>
<pdfrwt beam="2">  1       -2 0.11038595E+00 0.21376802E+03</pdfrwt>
<totfact> 0.55657537E+00</totfact>
</mgrwt>
</event>
<event>
 5    1  0.2804411E-003  0.6397451E+02  0.7818608E-02  0.1441900E+00
         11   -1    0    0    0    0  0.00000000000E+00  0.00000000000E+00  0.10001553729E+04  0.10001553729E+04  0.51100000000E-03 0. -1.
          2   -1    0    0  501    0 -0.00000000000E+00 -0.00000000000E+00 -0.97784246817E+01  0.97784250142E+01  0.25500000000E-02 0. -1.
         11    1    1    2    0    0 -0.71102385228E+02 -0.14145514597E+02  0.24131859642E+03  0.25197283534E+03  0.51100000000E-03 0. -1.
         22    1    1    2    0    0  0.25506065752E+02 -0.30930605032E+02  0.14277708709E+03  0.14829888171E+03  0.00000000000E+00 0. -1.
          2    1    1    2  501    0  0.45596319476E+02  0.45076119629E+02  0.60628126470E+03  0.60966208087E+03  0.25500000000E-02 0. -1.
<mgrwt>
<rscale>  0 0.50643654E+02</rscale>
<asrwt>0</asrwt>
<pdfrwt beam="1">  1       11 0.10000000E+01 0.63974511E+02</pdfrwt>
<pdfrwt beam="2">  1        2 0.15046067E-02 0.50643654E+02</pdfrwt>
<totfact> 0.80001141E+03</totfact>
</mgrwt>
</event>
<event>
 5    1  0.2804411E-003  0.6076038E+02  0.7818608E-02  0.1401446E+00
         11   -1    0    0    0    0  0.00000000000E+00  0.00000000000E+00  0.10003652704E+04  0.10003652704E+04  0.51100000000E-03 0. -1.
          2   -1    0    0  501    0 -0.00000000000E+00 -0.00000000000E+00 -0.67093240143E+01  0.67093244989E+01  0.25500000000E-02 0. -1.
         11    1    1    2    0    0 -0.45538116095E+02 -0.86818750377E+00  0.13257561276E+03  0.14018119298E+03  0.51100000000E-03 0. -1.
         22    1    1    2    0    0 -0.13535903720E+02  0.38087482317E+01  0.24683154333E+02  0.28407487753E+02  0.00000000000E+00 0.  1.
          2    1    1    2  501    0  0.59074019816E+02 -0.29405607279E+01  0.83639717932E+03  0.83848591419E+03  0.25500000000E-02 0. -1.
<mgrwt>
<rscale>  0 0.59147162E+02</rscale>
<asrwt>0</asrwt>
<pdfrwt beam="1">  1       11 0.10000000E+01 0.60760377E+02</pdfrwt>
<pdfrwt beam="2">  1        2 0.10325807E-02 0.59147162E+02</pdfrwt>
<totfact> 0.13609034E+04</totfact>
</mgrwt>
</event>
<event>
 5    1  0.2804411E-003  0.3137949E+03  0.7818608E-02  0.1083031E+00
         11   -1    0    0    0    0  0.00000000000E+00  0.00000000000E+00  0.10003469653E+04  0.10003469653E+04  0.51100000000E-03 0.  1.
          2   -1    0    0  501    0 -0.00000000000E+00 -0.00000000000E+00 -0.14543388119E+03  0.14543388122E+03  0.25500000000E-02 0.  1.
         11    1    1    2    0    0  0.12840091616E+03  0.19138350383E+03  0.54366705747E+03  0.59049835748E+03  0.51100000000E-03 0.  1.
         22    1    1    2    0    0  0.40615022677E+01  0.82752574370E+02  0.22360018329E+03  0.23845655020E+03  0.00000000000E+00 0.  1.
          2    1    1    2  501    0 -0.13246241843E+03 -0.27413607820E+03  0.87645843374E+02  0.31682593886E+03  0.25500000000E-02 0.  1.
<mgrwt>
<rscale>  0 0.30446163E+03</rscale>
<asrwt>0</asrwt>
<pdfrwt beam="1">  1       11 0.10000000E+01 0.31379487E+03</pdfrwt>
<pdfrwt beam="2">  1        2 0.22382206E-01 0.30446163E+03</pdfrwt>
<totfact> 0.30222005E+02</totfact>
</mgrwt>
</event>
<event>
 5    1  0.2804411E-003  0.7287048E+02  0.7818608E-02  0.1350595E+00
         11   -1    0    0    0    0  0.00000000000E+00  0.00000000000E+00  0.10000297065E+04  0.10000297065E+04  0.51100000000E-03 0. -1.
          2   -1    0    0  501    0 -0.00000000000E+00 -0.00000000000E+00 -0.97855657496E+01  0.97855660819E+01  0.25500000000E-02 0. -1.
         11    1    1    2    0    0  0.32242193741E+02  0.60151476483E+02  0.27639841236E+03  0.28469956364E+03  0.51100000000E-03 0. -1.
         22    1    1    2    0    0  0.39181193321E+02 -0.11578331685E+02  0.24384937557E+03  0.24724834002E+03  0.00000000000E+00 0. -1.
          2    1    1    2  501    0 -0.71423387062E+02 -0.48573144798E+02  0.46999635280E+03  0.47786736891E+03  0.25500000000E-02 0. -1.
<mgrwt>
<rscale>  0 0.72870476E+02</rscale>
<asrwt>0</asrwt>
<pdfrwt beam="1">  1       11 0.10000000E+01 0.40856134E+02</pdfrwt>
<pdfrwt beam="2">  1        2 0.15055164E-02 0.72870476E+02</pdfrwt>
<totfact> 0.84609940E+03</totfact>
</mgrwt>
</event>
<event>
 5    1  0.2804411E-003  0.4200788E+03  0.7818608E-02  0.1037688E+00
         11   -1    0    0    0    0  0.00000000000E+00  0.00000000000E+00  0.10000015335E+04  0.10000015335E+04  0.51100000000E-03 0. -1.
          2   -1    0    0  501    0 -0.00000000000E+00 -0.00000000000E+00 -0.17563554585E+03  0.17563554587E+03  0.25500000000E-02 0. -1.
         11    1    1    2    0    0  0.37866963961E+03 -0.15511731992E+03  0.40045559044E+03  0.57255284369E+03  0.51100000000E-03 0. -1.
         22    1    1    2    0    0  0.10305053920E+02  0.18151024597E+01  0.14819560341E+02  0.18141336829E+02  0.00000000000E+00 0.  1.
          2    1    1    2  501    0 -0.38897469353E+03  0.15330221746E+03  0.40909083682E+03  0.58494289881E+03  0.25500000000E-02 0. -1.
<mgrwt>
<rscale>  0 0.41809435E+03</rscale>
<asrwt>0</asrwt>
<pdfrwt beam="1">  1       11 0.10000000E+01 0.42007876E+03</pdfrwt>
<pdfrwt beam="2">  1        2 0.27020894E-01 0.41809435E+03</pdfrwt>
<totfact> 0.24551078E+02</totfact>
</mgrwt>
</event>
<event>
 5    1  0.2804411E-003  0.1470469E+03  0.7818608E-02  0.1720053E+00
         11   -1    0    0    0    0  0.00000000000E+00  0.00000000000E+00  0.10002122853E+04  0.10002122853E+04  0.51100000000E-03 0. -1.
          2   -1    0    0  501    0 -0.00000000000E+00 -0.00000000000E+00 -0.18368125476E+03  0.18368125478E+03  0.25500000000E-02 0. -1.
         11    1    1    2    0    0  0.13010865475E+03  0.88900729365E+02  0.46503569294E+03  0.49100895860E+03  0.51100000000E-03 0. -1.
         22    1    1    2    0    0 -0.10882001258E+03 -0.87528732071E+02  0.51213502996E+03  0.53083459099E+03  0.00000000000E+00 0. -1.
          2    1    1    2  501    0 -0.21288642171E+02 -0.13719972942E+01 -0.16063969234E+03  0.16204999051E+03  0.25500000000E-02 0. -1.
<mgrwt>
<rscale>  0 0.21332807E+02</rscale>
<asrwt>0</asrwt>
<pdfrwt beam="1">  1       11 0.10000000E+01 0.14704687E+03</pdfrwt>
<pdfrwt beam="2">  1        2 0.28264653E-01 0.21332807E+02</pdfrwt>
<totfact> 0.21585902E+02</totfact>
</mgrwt>
</event>
<event>
 5    1  0.2804411E-003  0.1299858E+03  0.7818608E-02  0.1352335E+00
         11   -1    0    0    0    0  0.00000000000E+00  0.00000000000E+00  0.10002740923E+04  0.10002740923E+04  0.51100000000E-03 0. -1.
          2   -1    0    0  501    0 -0.00000000000E+00 -0.00000000000E+00 -0.26645825319E+02  0.26645825441E+02  0.25500000000E-02 0. -1.
         11    1    1    2    0    0  0.11767796790E+03  0.56565191466E+02  0.60271280565E+03  0.61669315799E+03  0.51100000000E-03 0. -1.
         22    1    1    2    0    0  0.13923295997E+02 -0.37766211413E+02  0.61976210356E+02  0.73899902206E+02  0.00000000000E+00 0.  1.
          2    1    1    2  501    0 -0.13160126389E+03 -0.18798980052E+02  0.30893925099E+03  0.33632685756E+03  0.25500000000E-02 0. -1.
<mgrwt>
<rscale>  0 0.72332990E+02</rscale>
<asrwt>0</asrwt>
<pdfrwt beam="1">  1       11 0.10000000E+01 0.12998580E+03</pdfrwt>
<pdfrwt beam="2">  1        2 0.41004812E-02 0.72332990E+02</pdfrwt>
<totfact> 0.22370756E+03</totfact>
</mgrwt>
</event>
<event>
 5    1  0.2804411E-003  0.1249267E+03  0.7818608E-02  0.1239224E+00
         11   -1    0    0    0    0  0.00000000000E+00  0.00000000000E+00  0.10002256887E+04  0.10002256887E+04  0.51100000000E-03 0. -1.
          2   -1    0    0  501    0 -0.00000000000E+00 -0.00000000000E+00 -0.15929535762E+02  0.15929535966E+02  0.25500000000E-02 0. -1.
         11    1    1    2    0    0 -0.73236107719E+02 -0.30066753684E+02  0.34196325990E+03  0.35100770401E+03  0.51100000000E-03 0. -1.
         22    1    1    2    0    0 -0.34012509428E+02 -0.28875953983E+02  0.25712549010E+03  0.26096779337E+03  0.00000000000E+00 0. -1.
          2    1    1    2  501    0  0.10724861715E+03  0.58942707666E+02  0.38520740290E+03  0.40417972726E+03  0.25500000000E-02 0. -1.
<mgrwt>
<rscale>  0 0.12237855E+03</rscale>
<asrwt>0</asrwt>
<pdfrwt beam="1">  1       11 0.10000000E+01 0.12492669E+03</pdfrwt>
<pdfrwt beam="2">  1        2 0.24512509E-02 0.12237855E+03</pdfrwt>
<totfact> 0.46845940E+03</totfact>
</mgrwt>
</event>
<event>
 5    1  0.2804411E-003  0.2388852E+03  0.7818608E-02  0.1122532E+00
         11   -1    0    0    0    0  0.00000000000E+00  0.00000000000E+00  0.99984230121E+03  0.99984230121E+03  0.51100000000E-03 0. -1.
         -2   -1    0    0    0  501 -0.00000000000E+00 -0.00000000000E+00 -0.10045045585E+03  0.10045045588E+03  0.25500000000E-02 0.  1.
         11    1    1    2    0    0  0.19039534177E+03 -0.52147940755E+02  0.62702039140E+03  0.65736166996E+03  0.51100000000E-03 0. -1.
         22    1    1    2    0    0  0.38051026950E+02 -0.68148843510E+01  0.18867200878E+03  0.19259140739E+03  0.00000000000E+00 0.  1.
         -2    1    1    2    0  501 -0.22844636872E+03  0.58962825106E+02  0.83699445172E+02  0.25033967975E+03  0.25500000000E-02 0.  1.
<mgrwt>
<rscale>  0 0.23593295E+03</rscale>
<asrwt>0</asrwt>
<pdfrwt beam="1">  1       11 0.10000000E+01 0.23888521E+03</pdfrwt>
<pdfrwt beam="2">  1       -2 0.15451479E-01 0.23593295E+03</pdfrwt>
<totfact> 0.25980017E+02</totfact>
</mgrwt>
</event>
<event>
 5    1  0.2804411E-003  0.4871640E+03  0.7818608E-02  0.1267829E+00
         11   -1    0    0    0    0  0.00000000000E+00  0.00000000000E+00  0.10003932588E+04  0.10003932588E+04  0.51100000000E-03 0. -1.
          2   -1    0    0  501    0 -0.00000000000E+00 -0.00000000000E+00 -0.68763173002E+03  0.68763173003E+03  0.25500000000E-02 0. -1.
         11    1    1    2    0    0 -0.48222145647E+03  0.41856129224E+02  0.47715783200E+03  0.67968306237E+03  0.51100000000E-03 0. -1.
         22    1    1    2    0    0  0.47610634654E+03 -0.14785097064E+03  0.26598850334E+03  0.56505490587E+03  0.00000000000E+00 0. -1.
          2    1    1    2  501    0  0.61151099280E+01  0.10599484142E+03 -0.43038480652E+03  0.44328702064E+03  0.25500000000E-02 0. -1.
<mgrwt>
<rscale>  0 0.10617109E+03</rscale>
<asrwt>0</asrwt>
<pdfrwt beam="1">  1       11 0.10000000E+01 0.48716398E+03</pdfrwt>
<pdfrwt beam="2">  1        2 0.10583110E+00 0.10617109E+03</pdfrwt>
<totfact> 0.54964257E+01</totfact>
</mgrwt>
</event>
<event>
 5    1  0.2804411E-003  0.3157119E+02  0.7818608E-02  0.1587700E+00
         11   -1    0    0    0    0  0.00000000000E+00  0.00000000000E+00  0.10000881161E+04  0.10000881161E+04  0.51100000000E-03 0.  1.
          2   -1    0    0  501    0 -0.00000000000E+00 -0.00000000000E+00 -0.84472351249E+01  0.84472355098E+01  0.25500000000E-02 0.  1.
         11    1    1    2    0    0  0.18925625890E+02 -0.49584577534E+02  0.15179526649E+03  0.16080613351E+03  0.51100000000E-03 0.  1.
         22    1    1    2    0    0 -0.23388875293E+02  0.19361787337E+02  0.59626106339E+02  0.66911814005E+02  0.00000000000E+00 0.  1.
          2    1    1    2  501    0  0.44632494028E+01  0.30222790198E+02  0.78021950816E+03  0.78081740411E+03  0.25500000000E-02 0.  1.
<mgrwt>
<rscale>  0 0.30961248E+02</rscale>
<asrwt>0</asrwt>
<pdfrwt beam="1">  1       11 0.10000000E+01 0.31571188E+02</pdfrwt>
<pdfrwt beam="2">  1        2 0.12996891E-02 0.30961248E+02</pdfrwt>
<totfact> 0.88938632E+03</totfact>
</mgrwt>
</event>
<event>
 5    1  0.2804411E-003  0.8692001E+02  0.7818608E-02  0.1336033E+00
         11   -1    0    0    0    0  0.00000000000E+00  0.00000000000E+00  0.10001403211E+04  0.10001403211E+04  0.51100000000E-03 0. -1.
         -2   -1    0    0    0  501 -0.00000000000E+00 -0.00000000000E+00 -0.93635389079E+01  0.93635392551E+01  0.25500000000E-02 0. -1.
         11    1    1    2    0    0 -0.29422457990E+02 -0.26199508178E+02  0.16499298621E+03  0.16963130832E+03  0.51100000000E-03 0. -1.
         22    1    1    2    0    0 -0.42415123312E+02 -0.31188229435E+01  0.85096911993E+02  0.95132823846E+02  0.00000000000E+00 0. -1.
         -2    1    1    2    0  501  0.71837581301E+02  0.29318331122E+02  0.74068688399E+03  0.74473972819E+03  0.25500000000E-02 0. -1.
<mgrwt>
<rscale>  0 0.77589965E+02</rscale>
<asrwt>0</asrwt>
<pdfrwt beam="1">  1       11 0.10000000E+01 0.86920012E+02</pdfrwt>
<pdfrwt beam="2">  1       -2 0.14407466E-02 0.77589965E+02</pdfrwt>
<totfact> 0.84556013E+03</totfact>
</mgrwt>
</event>
<event>
 5    1  0.2804411E-003  0.1959077E+03  0.7818608E-02  0.1153238E+00
         11   -1    0    0    0    0  0.00000000000E+00  0.00000000000E+00  0.99993845057E+03  0.99993845057E+03  0.51100000000E-03 0.  1.
          2   -1    0    0  501    0 -0.00000000000E+00 -0.00000000000E+00 -0.18931350052E+04  0.18931350052E+04  0.25500000000E-02 0.  1.
         11    1    1    2    0    0 -0.24849003198E+03  0.77039708570E+02  0.89868029064E+03  0.93557932720E+03  0.51100000000E-03 0.  1.
         22    1    1    2    0    0  0.52880847908E+02 -0.76704277015E+02  0.49675492026E+02  0.10558212299E+03  0.00000000000E+00 0.  1.
          2    1    1    2  501    0  0.19560918408E+03 -0.33543155490E+00 -0.18415523373E+04  0.18519120056E+04  0.25500000000E-02 0.  1.
<mgrwt>
<rscale>  0 0.19590767E+03</rscale>
<asrwt>0</asrwt>
<pdfrwt beam="1">  1       11 0.10000000E+01 0.93166143E+02</pdfrwt>
<pdfrwt beam="2">  1        2 0.29123360E+00 0.19590767E+03</pdfrwt>
<totfact> 0.10932011E+01</totfact>
</mgrwt>
</event>
<event>
 5    1  0.2804411E-003  0.1033626E+03  0.7818608E-02  0.1286590E+00
         11   -1    0    0    0    0  0.00000000000E+00  0.00000000000E+00  0.10003619761E+04  0.10003619761E+04  0.51100000000E-03 0. -1.
          2   -1    0    0  501    0 -0.00000000000E+00 -0.00000000000E+00 -0.12090522274E+02  0.12090522543E+02  0.25500000000E-02 0. -1.
         11    1    1    2    0    0  0.48813290470E+02  0.21949378296E+02  0.11315619606E+03  0.12517522615E+03  0.51100000000E-03 0. -1.
         22    1    1    2    0    0  0.44763765076E+02  0.38400988079E+01  0.18544189117E+03  0.19080680288E+03  0.00000000000E+00 0. -1.
          2    1    1    2  501    0 -0.93577055547E+02 -0.25789477103E+02  0.68967336661E+03  0.69647046963E+03  0.25500000000E-02 0. -1.
<mgrwt>
<rscale>  0 0.97065764E+02</rscale>
<asrwt>0</asrwt>
<pdfrwt beam="1">  1       11 0.10000000E+01 0.10336259E+03</pdfrwt>
<pdfrwt beam="2">  1        2 0.18607536E-02 0.97065764E+02</pdfrwt>
<totfact> 0.66133126E+03</totfact>
</mgrwt>
</event>
<event>
 5    1  0.2804411E-003  0.2556450E+02  0.7818608E-02  0.1653024E+00
         11   -1    0    0    0    0  0.00000000000E+00  0.00000000000E+00  0.10000736952E+04  0.10000736952E+04  0.51100000000E-03 0.  1.
          2   -1    0    0  501    0 -0.00000000000E+00 -0.00000000000E+00 -0.34019811484E+01  0.34019821041E+01  0.25500000000E-02 0.  1.
         11    1    1    2    0    0 -0.14539710764E+02 -0.55071213871E+00  0.26777541518E+02  0.30475288398E+02  0.51100000000E-03 0.  1.
         22    1    1    2    0    0 -0.10942911126E+02  0.22190948276E+02  0.12392259798E+03  0.12636849204E+03  0.00000000000E+00 0.  1.
          2    1    1    2  501    0  0.25482621890E+02 -0.21640236137E+02  0.84597157459E+03  0.84663189691E+03  0.25500000000E-02 0.  1.
<mgrwt>
<rscale>  0 0.25564501E+02</rscale>
<asrwt>0</asrwt>
<pdfrwt beam="1">  1       11 0.10000000E+01 0.14550144E+02</pdfrwt>
<pdfrwt beam="2">  1        2 0.52342034E-03 0.25564501E+02</pdfrwt>
<totfact> 0.28219123E+04</totfact>
</mgrwt>
</event>
<event>
 5    1  0.2804411E-003  0.1238590E+03  0.7818608E-02  0.1513870E+00
         11   -1    0    0    0    0  0.00000000000E+00  0.00000000000E+00  0.10003244000E+04  0.10003244000E+04  0.51100000000E-03 0.  1.
          2   -1    0    0  501    0 -0.00000000000E+00 -0.00000000000E+00 -0.91906675318E+03  0.91906675318E+03  0.25500000000E-02 0.  1.
         11    1    1    2    0    0  0.10512409934E+03 -0.10499349608E+03  0.45420129324E+03  0.47788442668E+03  0.51100000000E-03 0.  1.
         22    1    1    2    0    0 -0.87217985531E+02  0.70075686319E+02  0.52799255439E+03  0.53971632948E+03  0.00000000000E+00 0.  1.
          2    1    1    2  501    0 -0.17906113813E+02  0.34917809762E+02 -0.90093620078E+03  0.90179039706E+03  0.25500000000E-02 0.  1.
<mgrwt>
<rscale>  0 0.39241335E+02</rscale>
<asrwt>0</asrwt>
<pdfrwt beam="1">  1       11 0.10000000E+01 0.12385896E+03</pdfrwt>
<pdfrwt beam="2">  1        2 0.14144075E+00 0.39241335E+02</pdfrwt>
<totfact> 0.40290004E+01</totfact>
</mgrwt>
</event>
<event>
 5    1  0.2804411E-003  0.6621322E+02  0.7818608E-02  0.1383544E+00
         11   -1    0    0    0    0  0.00000000000E+00  0.00000000000E+00  0.99952843530E+03  0.99952843530E+03  0.51100000000E-03 0.  1.
         -2   -1    0    0    0  501 -0.00000000000E+00 -0.00000000000E+00 -0.49863164638E+01  0.49863171158E+01  0.25500000000E-02 0.  1.
         11    1    1    2    0    0  0.43801568179E+02 -0.29456513853E+02  0.27926099671E+03  0.28420585473E+03  0.51100000000E-03 0.  1.
         22    1    1    2    0    0  0.70554944803E+01 -0.86360538417E+01  0.28647942567E+02  0.30741926447E+02  0.00000000000E+00 0. -1.
         -2    1    1    2    0  501 -0.50857062659E+02  0.38092567695E+02  0.68663317956E+03  0.68956697124E+03  0.25500000000E-02 0.  1.
<mgrwt>
<rscale>  0 0.63541204E+02</rscale>
<asrwt>0</asrwt>
<pdfrwt beam="1">  1       11 0.10000000E+01 0.66213216E+02</pdfrwt>
<pdfrwt beam="2">  1       -2 0.76676389E-03 0.63541204E+02</pdfrwt>
<totfact> 0.19844526E+04</totfact>
</mgrwt>
</event>
<event>
 5    1  0.2804411E-003  0.1380592E+03  0.7818608E-02  0.1217570E+00
         11   -1    0    0    0    0  0.00000000000E+00  0.00000000000E+00  0.10000419206E+04  0.10000419206E+04  0.51100000000E-03 0. -1.
          2   -1    0    0  501    0 -0.00000000000E+00 -0.00000000000E+00 -0.19073194498E+02  0.19073194669E+02  0.25500000000E-02 0. -1.
         11    1    1    2    0    0  0.12484472462E+03  0.20870838899E+01  0.51066264904E+03  0.52570609879E+03  0.51100000000E-03 0. -1.
         22    1    1    2    0    0  0.12018880770E+02  0.79830061614E+00  0.30574237923E+02  0.32861448590E+02  0.00000000000E+00 0. -1.
          2    1    1    2  501    0 -0.13686360539E+03 -0.28853845060E+01  0.43973183914E+03  0.46054756788E+03  0.25500000000E-02 0. -1.
<mgrwt>
<rscale>  0 0.13689402E+03</rscale>
<asrwt>0</asrwt>
<pdfrwt beam="1">  1       11 0.10000000E+01 0.13805918E+03</pdfrwt>
<pdfrwt beam="2">  1        2 0.29344606E-02 0.13689402E+03</pdfrwt>
<totfact> 0.37199376E+03</totfact>
</mgrwt>
</event>
<event>
 5    1  0.2804411E-003  0.5598516E+02  0.7818608E-02  0.1582305E+00
         11   -1    0    0    0    0  0.00000000000E+00  0.00000000000E+00  0.10001793725E+04  0.10001793725E+04  0.51100000000E-03 0.  1.
          2   -1    0    0  501    0 -0.00000000000E+00 -0.00000000000E+00 -0.60556461921E+01  0.60556467290E+01  0.25500000000E-02 0.  1.
         11    1    1    2    0    0  0.54058378692E+02  0.28790160637E+01  0.18639415927E+03  0.19409631539E+03  0.51100000000E-03 0.  1.
         22    1    1    2    0    0 -0.76873214349E+00  0.17681802906E+02  0.70054842522E+02  0.72255920614E+02  0.00000000000E+00 0. -1.
          2    1    1    2  501    0 -0.53289646549E+02 -0.20560818969E+02  0.73767472455E+03  0.73988278326E+03  0.25500000000E-02 0.  1.
<mgrwt>
<rscale>  0 0.31477820E+02</rscale>
<asrwt>0</asrwt>
<pdfrwt beam="1">  1       11 0.10000000E+01 0.55985158E+02</pdfrwt>
<pdfrwt beam="2">  1        2 0.93180500E-03 0.31477820E+02</pdfrwt>
<totfact> 0.13831051E+04</totfact>
</mgrwt>
</event>
<event>
 5    1  0.2804411E-003  0.1477537E+03  0.7818608E-02  0.1206866E+00
         11   -1    0    0    0    0  0.00000000000E+00  0.00000000000E+00  0.10004175124E+04  0.10004175124E+04  0.51100000000E-03 0. -1.
          2   -1    0    0  501    0 -0.00000000000E+00 -0.00000000000E+00 -0.26585182489E+02  0.26585182612E+02  0.25500000000E-02 0. -1.
         11    1    1    2    0    0 -0.10719938664E+03 -0.54162227600E+02  0.56738255024E+03  0.57995535493E+03  0.51100000000E-03 0. -1.
         22    1    1    2    0    0 -0.15860877861E+02 -0.22362889939E+02  0.15000866989E+03  0.15249349932E+03  0.00000000000E+00 0.  1.
          2    1    1    2  501    0  0.12306026450E+03  0.76525117539E+02  0.25644110977E+03  0.29455384075E+03  0.25500000000E-02 0. -1.
<mgrwt>
<rscale>  0 0.14491350E+03</rscale>
<asrwt>0</asrwt>
<pdfrwt beam="1">  1       11 0.10000000E+01 0.14775372E+03</pdfrwt>
<pdfrwt beam="2">  1        2 0.40917356E-02 0.14491350E+03</pdfrwt>
<totfact> 0.23988669E+03</totfact>
</mgrwt>
</event>
<event>
 5    1  0.2804411E-003  0.1229602E+03  0.7818608E-02  0.1249310E+00
         11   -1    0    0    0    0  0.00000000000E+00  0.00000000000E+00  0.99986368137E+03  0.99986368137E+03  0.51100000000E-03 0. -1.
          2   -1    0    0  501    0 -0.00000000000E+00 -0.00000000000E+00 -0.14376723007E+02  0.14376723233E+02  0.25500000000E-02 0. -1.
         11    1    1    2    0    0 -0.90301767549E+02 -0.35242639230E+02  0.39321752631E+03  0.40498947621E+03  0.51100000000E-03 0. -1.
         22    1    1    2    0    0 -0.10889361286E+02 -0.22103093352E+02  0.14648442925E+03  0.14854229343E+03  0.00000000000E+00 0. -1.
          2    1    1    2  501    0  0.10119112883E+03  0.57345732582E+02  0.44578500280E+03  0.46070863496E+03  0.25500000000E-02 0. -1.
<mgrwt>
<rscale>  0 0.11631069E+03</rscale>
<asrwt>0</asrwt>
<pdfrwt beam="1">  1       11 0.10000000E+01 0.12296023E+03</pdfrwt>
<pdfrwt beam="2">  1        2 0.22115020E-02 0.11631069E+03</pdfrwt>
<totfact> 0.53530428E+03</totfact>
</mgrwt>
</event>
<event>
 5    1  0.5991976E-003  0.3618586E+03  0.7818608E-02  0.1058379E+00
         11   -1    0    0    0    0  0.00000000000E+00  0.00000000000E+00  0.10006041269E+04  0.10006041269E+04  0.51100000000E-03 0. -1.
          2   -1    0    0  501    0 -0.00000000000E+00 -0.00000000000E+00 -0.10997293955E+04  0.10997293955E+04  0.25500000000E-02 0. -1.
         11    1    1    2    0    0 -0.34955876719E+03 -0.29855879961E+02  0.91391846645E+03  0.97894313859E+03  0.51100000000E-03 0. -1.
         22    1    1    2    0    0 -0.10030867076E+02  0.40078292282E+01  0.22460231835E+02  0.24922740690E+02  0.00000000000E+00 0. -1.
          2    1    1    2  501    0  0.35958963426E+03  0.25848050733E+02 -0.10355039669E+04  0.10964676431E+04  0.25500000000E-02 0. -1.
<mgrwt>
<rscale>  0 0.36051744E+03</rscale>
<asrwt>0</asrwt>
<pdfrwt beam="1">  1       11 0.10000000E+01 0.36185859E+03</pdfrwt>
<pdfrwt beam="2">  1        2 0.16929134E+00 0.36051744E+03</pdfrwt>
<totfact> 0.28153816E+01</totfact>
</mgrwt>
</event>
<event>
 5    1  0.2804411E-003  0.9653489E+02  0.7818608E-02  0.1592105E+00
         11   -1    0    0    0    0  0.00000000000E+00  0.00000000000E+00  0.10003596056E+04  0.10003596056E+04  0.51100000000E-03 0. -1.
          2   -1    0    0  501    0 -0.00000000000E+00 -0.00000000000E+00 -0.36846804418E+03  0.36846804419E+03  0.25500000000E-02 0.  1.
         11    1    1    2    0    0  0.10434631903E+03 -0.15915839285E+02  0.62325713442E+03  0.63213204620E+03  0.51100000000E-03 0. -1.
         22    1    1    2    0    0 -0.87228497516E+02 -0.93860084581E+01  0.36684244932E+03  0.37718734146E+03  0.00000000000E+00 0.  1.
          2    1    1    2  501    0 -0.17117821518E+02  0.25301847743E+02 -0.35820802229E+03  0.35950826215E+03  0.25500000000E-02 0.  1.
<mgrwt>
<rscale>  0 0.30548377E+02</rscale>
<asrwt>0</asrwt>
<pdfrwt beam="1">  1       11 0.10000000E+01 0.96534894E+02</pdfrwt>
<pdfrwt beam="2">  1        2 0.56707775E-01 0.30548377E+02</pdfrwt>
<totfact> 0.10863594E+02</totfact>
</mgrwt>
</event>
<event>
 5    1  0.2804411E-003  0.2816639E+03  0.7818608E-02  0.1095601E+00
         11   -1    0    0    0    0  0.00000000000E+00  0.00000000000E+00  0.99996490162E+03  0.99996490162E+03  0.51100000000E-03 0.  1.
         -2   -1    0    0    0  501 -0.00000000000E+00 -0.00000000000E+00 -0.81160621363E+02  0.81160621403E+02  0.25500000000E-02 0. -1.
         11    1    1    2    0    0 -0.20425689521E+03  0.17328061077E+03  0.52808372406E+03  0.59213129366E+03  0.51100000000E-03 0.  1.
         22    1    1    2    0    0 -0.13233514111E+02  0.33215894554E+01  0.22436008669E+02  0.26258966797E+02  0.00000000000E+00 0.  1.
         -2    1    1    2    0  501  0.21749040932E+03 -0.17660220022E+03  0.36828454753E+03  0.46273526257E+03  0.25500000000E-02 0. -1.
<mgrwt>
<rscale>  0 0.28016141E+03</rscale>
<asrwt>0</asrwt>
<pdfrwt beam="1">  1       11 0.10000000E+01 0.28166387E+03</pdfrwt>
<pdfrwt beam="2">  1       -2 0.12485811E-01 0.28016141E+03</pdfrwt>
<totfact> 0.37131365E+02</totfact>
</mgrwt>
</event>
<event>
 5    1  0.2804411E-003  0.3687099E+02  0.7818608E-02  0.1562388E+00
         11   -1    0    0    0    0  0.00000000000E+00  0.00000000000E+00  0.10003264482E+04  0.10003264482E+04  0.51100000000E-03 0.  1.
          2   -1    0    0  501    0 -0.00000000000E+00 -0.00000000000E+00 -0.51012882442E+01  0.51012888815E+01  0.25500000000E-02 0.  1.
         11    1    1    2    0    0 -0.20324007963E+02 -0.44082182611E+01  0.27696304192E+02  0.34634996089E+02  0.51100000000E-03 0.  1.
         22    1    1    2    0    0 -0.13121395042E+02  0.62274727872E+01  0.38316622190E+02  0.40977017476E+02  0.00000000000E+00 0. -1.
          2    1    1    2  501    0  0.33445403006E+02 -0.18192545262E+01  0.92921223358E+03  0.92981572353E+03  0.25500000000E-02 0.  1.
<mgrwt>
<rscale>  0 0.33494846E+02</rscale>
<asrwt>0</asrwt>
<pdfrwt beam="1">  1       11 0.10000000E+01 0.36870993E+02</pdfrwt>
<pdfrwt beam="2">  1        2 0.78506980E-03 0.33494846E+02</pdfrwt>
<totfact> 0.17585789E+04</totfact>
</mgrwt>
</event>
<event>
 5    1  0.2804411E-003  0.2049577E+03  0.7818608E-02  0.1145622E+00
         11   -1    0    0    0    0  0.00000000000E+00  0.00000000000E+00  0.10017480351E+04  0.10017480351E+04  0.51100000000E-03 0. -1.
          2   -1    0    0  501    0 -0.00000000000E+00 -0.00000000000E+00 -0.21608386936E+04  0.21608386936E+04  0.25500000000E-02 0. -1.
         11    1    1    2    0    0  0.11211302047E+02 -0.24943288868E+02  0.28786079730E+02  0.39705155076E+02  0.51100000000E-03 0. -1.
         22    1    1    2    0    0  0.43380709942E+02 -0.17275211114E+03  0.95436535830E+03  0.97084417649E+03  0.00000000000E+00 0. -1.
          2    1    1    2  501    0 -0.54592011989E+02  0.19769540001E+03 -0.21422420965E+04  0.21520373972E+04  0.25500000000E-02 0. -1.
<mgrwt>
<rscale>  0 0.20495775E+03</rscale>
<asrwt>0</asrwt>
<pdfrwt beam="1">  1       11 0.10000000E+01 0.27347047E+02</pdfrwt>
<pdfrwt beam="2">  1        2 0.33301782E+00 0.20495775E+03</pdfrwt>
<totfact> 0.78552298E+00</totfact>
</mgrwt>
</event>
<event>
 5    1  0.2804411E-003  0.4829804E+03  0.7818608E-02  0.1019119E+00
         11   -1    0    0    0    0  0.00000000000E+00  0.00000000000E+00  0.10001578424E+04  0.10001578424E+04  0.51100000000E-03 0.  1.
          2   -1    0    0  501    0 -0.00000000000E+00 -0.00000000000E+00 -0.53648688708E+03  0.53648688708E+03  0.25500000000E-02 0.  1.
         11    1    1    2    0    0  0.92065551698E+02  0.46133174393E+03 -0.34066666591E+03  0.58082426002E+03  0.51100000000E-03 0.  1.
         22    1    1    2    0    0  0.95055644250E+01  0.78605194518E+01 -0.61851858451E+01  0.13798552280E+02  0.00000000000E+00 0.  1.
          2    1    1    2  501    0 -0.10157111612E+03 -0.46919226338E+03  0.81052280712E+03  0.94202191722E+03  0.25500000000E-02 0.  1.
<mgrwt>
<rscale>  0 0.48006049E+03</rscale>
<asrwt>0</asrwt>
<pdfrwt beam="1">  1       11 0.10000000E+01 0.48298042E+03</pdfrwt>
<pdfrwt beam="2">  1        2 0.82549470E-01 0.48006049E+03</pdfrwt>
<totfact> 0.70801372E+01</totfact>
</mgrwt>
</event>
<event>
 5    1  0.2804411E-003  0.1464165E+03  0.7818608E-02  0.1573334E+00
         11   -1    0    0    0    0  0.00000000000E+00  0.00000000000E+00  0.10002698526E+04  0.10002698526E+04  0.51100000000E-03 0.  1.
          2   -1    0    0  501    0 -0.00000000000E+00 -0.00000000000E+00 -0.34816022495E+03  0.34816022496E+03  0.25500000000E-02 0. -1.
         11    1    1    2    0    0 -0.15644933468E+03  0.65156985745E+02  0.36116870855E+03  0.39895446250E+03  0.51100000000E-03 0.  1.
         22    1    1    2    0    0  0.12603454768E+03 -0.54093877391E+02  0.61180176584E+03  0.62698664695E+03  0.00000000000E+00 0.  1.
          2    1    1    2  501    0  0.30414787003E+02 -0.11063108353E+02 -0.32086084669E+03  0.32248896815E+03  0.25500000000E-02 0. -1.
<mgrwt>
<rscale>  0 0.32364358E+02</rscale>
<asrwt>0</asrwt>
<pdfrwt beam="1">  1       11 0.10000000E+01 0.14641654E+03</pdfrwt>
<pdfrwt beam="2">  1        2 0.53577564E-01 0.32364358E+02</pdfrwt>
<totfact> 0.11504368E+02</totfact>
</mgrwt>
</event>
<event>
 5    1  0.2804411E-003  0.5126356E+02  0.7818608E-02  0.1449779E+00
         11   -1    0    0    0    0  0.00000000000E+00  0.00000000000E+00  0.10001750318E+04  0.10001750318E+04  0.51100000000E-03 0. -1.
         -2   -1    0    0    0  501 -0.00000000000E+00 -0.00000000000E+00 -0.40276640275E+01  0.40276648347E+01  0.25500000000E-02 0. -1.
         11    1    1    2    0    0 -0.16853896974E+02 -0.19914385005E+01  0.66262151956E+02  0.68400968214E+02  0.51100000000E-03 0. -1.
         22    1    1    2    0    0 -0.30252801974E+02  0.16143160479E+02  0.13131999973E+03  0.13572315936E+03  0.00000000000E+00 0. -1.
         -2    1    1    2    0  501  0.47106698948E+02 -0.14151721979E+02  0.79856521607E+03  0.80007856905E+03  0.25500000000E-02 0. -1.
<mgrwt>
<rscale>  0 0.49186506E+02</rscale>
<asrwt>0</asrwt>
<pdfrwt beam="1">  1       11 0.10000000E+01 0.51263562E+02</pdfrwt>
<pdfrwt beam="2">  1       -2 0.61974912E-03 0.49186506E+02</pdfrwt>
<totfact> 0.25339533E+04</totfact>
</mgrwt>
</event>
<event>
 5    1  0.2804411E-003  0.3275805E+03  0.7818608E-02  0.1079166E+00
         11   -1    0    0    0    0  0.00000000000E+00  0.00000000000E+00  0.99984103530E+03  0.99984103530E+03  0.51100000000E-03 0. -1.
          2   -1    0    0  501    0 -0.00000000000E+00 -0.00000000000E+00 -0.40310691797E+03  0.40310691797E+03  0.25500000000E-02 0. -1.
         11    1    1    2    0    0  0.15514817590E+03  0.35289552298E+01  0.35745781466E+03  0.38969154375E+03  0.51100000000E-03 0. -1.
         22    1    1    2    0    0  0.14405266455E+03  0.86579517357E+02  0.54848257646E+03  0.57365522718E+03  0.00000000000E+00 0.  1.
          2    1    1    2  501    0 -0.29920084045E+03 -0.90108472587E+02 -0.30920627379E+03  0.43960118234E+03  0.25500000000E-02 0. -1.
<mgrwt>
<rscale>  0 0.31247509E+03</rscale>
<asrwt>0</asrwt>
<pdfrwt beam="1">  1       11 0.10000000E+01 0.32758054E+03</pdfrwt>
<pdfrwt beam="2">  1        2 0.62006589E-01 0.31247509E+03</pdfrwt>
<totfact> 0.98343400E+01</totfact>
</mgrwt>
</event>
<event>
 5    1  0.2804411E-003  0.2036932E+03  0.7818608E-02  0.1149387E+00
         11   -1    0    0    0    0  0.00000000000E+00  0.00000000000E+00  0.10000734605E+04  0.10000734605E+04  0.51100000000E-03 0.  1.
         -2   -1    0    0    0  501 -0.00000000000E+00 -0.00000000000E+00 -0.76681765505E+02  0.76681765547E+02  0.25500000000E-02 0. -1.
         11    1    1    2    0    0 -0.15446932591E+03 -0.16452126711E+02  0.61333114155E+03  0.63269782228E+03  0.51100000000E-03 0.  1.
         22    1    1    2    0    0 -0.41969358740E+02 -0.23288746610E+02  0.21850917482E+03  0.22371869004E+03  0.00000000000E+00 0.  1.
         -2    1    1    2    0  501  0.19643868465E+03  0.39740873322E+02  0.91551378639E+02  0.22033871375E+03  0.25500000000E-02 0. -1.
<mgrwt>
<rscale>  0 0.20041830E+03</rscale>
<asrwt>0</asrwt>
<pdfrwt beam="1">  1       11 0.10000000E+01 0.20369323E+03</pdfrwt>
<pdfrwt beam="2">  1       -2 0.11798061E-01 0.20041830E+03</pdfrwt>
<totfact> 0.40086904E+02</totfact>
</mgrwt>
</event>
<event>
 5    1  0.2804411E-003  0.1496988E+03  0.7818608E-02  0.1200844E+00
         11   -1    0    0    0    0  0.00000000000E+00  0.00000000000E+00  0.10001507077E+04  0.10001507077E+04  0.51100000000E-03 0. -1.
          2   -1    0    0  501    0 -0.00000000000E+00 -0.00000000000E+00 -0.12567090447E+03  0.12567090450E+03  0.25500000000E-02 0. -1.
         11    1    1    2    0    0 -0.10807803545E+03 -0.47288102570E+02  0.56639584459E+03  0.57855101691E+03  0.51100000000E-03 0. -1.
         22    1    1    2    0    0 -0.45151473669E+02  0.45163557519E+02  0.37475060976E+03  0.38015315600E+03  0.00000000000E+00 0. -1.
          2    1    1    2  501    0  0.15322950912E+03  0.21245450510E+01 -0.66666651079E+02  0.16711743933E+03  0.25500000000E-02 0. -1.
<mgrwt>
<rscale>  0 0.14969884E+03</rscale>
<asrwt>0</asrwt>
<pdfrwt beam="1">  1       11 0.10000000E+01 0.63862372E+02</pdfrwt>
<pdfrwt beam="2">  1        2 0.19336899E-01 0.14969884E+03</pdfrwt>
<totfact> 0.35019584E+02</totfact>
</mgrwt>
</event>
<event>
 5    1  0.2804411E-003  0.2609853E+03  0.7818608E-02  0.1107841E+00
         11   -1    0    0    0    0  0.00000000000E+00  0.00000000000E+00  0.10002268659E+04  0.10002268659E+04  0.51100000000E-03 0.  1.
          2   -1    0    0  501    0 -0.00000000000E+00 -0.00000000000E+00 -0.69712067861E+02  0.69712067907E+02  0.25500000000E-02 0.  1.
         11    1    1    2    0    0  0.24486635069E+03  0.29247528267E+02  0.34518196524E+03  0.42422345142E+03  0.51100000000E-03 0.  1.
         22    1    1    2    0    0  0.11300544903E+02  0.78682772641E+01  0.27498583705E+02  0.30753604797E+02  0.00000000000E+00 0.  1.
          2    1    1    2  501    0 -0.25616689559E+03 -0.37115805531E+02  0.55783424906E+03  0.61496187756E+03  0.25500000000E-02 0.  1.
<mgrwt>
<rscale>  0 0.25884177E+03</rscale>
<asrwt>0</asrwt>
<pdfrwt beam="1">  1       11 0.10000000E+01 0.26098531E+03</pdfrwt>
<pdfrwt beam="2">  1        2 0.10727366E-01 0.25884177E+03</pdfrwt>
<totfact> 0.72087455E+02</totfact>
</mgrwt>
</event>
<event>
 5    1  0.2804411E-003  0.1055854E+03  0.7818608E-02  0.1715898E+00
         11   -1    0    0    0    0  0.00000000000E+00  0.00000000000E+00  0.10004412718E+04  0.10004412718E+04  0.51100000000E-03 0. -1.
          2   -1    0    0  501    0 -0.00000000000E+00 -0.00000000000E+00 -0.39855556724E+02  0.39855556805E+02  0.25500000000E-02 0. -1.
         11    1    1    2    0    0  0.73091447627E+02 -0.86218812937E+02  0.57472320249E+03  0.58573270602E+03  0.51100000000E-03 0. -1.
         22    1    1    2    0    0 -0.74069127239E+02  0.64676711169E+02  0.41033126992E+03  0.42194912448E+03  0.00000000000E+00 0. -1.
          2    1    1    2  501    0  0.97767961203E+00  0.21542101768E+02 -0.24468757362E+02  0.32614998074E+02  0.25500000000E-02 0. -1.
<mgrwt>
<rscale>  0 0.21564276E+02</rscale>
<asrwt>0</asrwt>
<pdfrwt beam="1">  1       11 0.10000000E+01 0.10558542E+03</pdfrwt>
<pdfrwt beam="2">  1        2 0.61343297E-02 0.21564276E+02</pdfrwt>
<totfact> 0.11771778E+03</totfact>
</mgrwt>
</event>
<event>
 5    1  0.2804411E-003  0.2263112E+03  0.7818608E-02  0.1129263E+00
         11   -1    0    0    0    0  0.00000000000E+00  0.00000000000E+00  0.10000603810E+04  0.10000603810E+04  0.51100000000E-03 0. -1.
          2   -1    0    0  501    0 -0.00000000000E+00 -0.00000000000E+00 -0.30075165491E+03  0.30075165492E+03  0.25500000000E-02 0. -1.
         11    1    1    2    0    0  0.26851005716E+02 -0.96035564349E+02  0.20106769518E+03  0.22443712744E+03  0.51100000000E-03 0. -1.
         22    1    1    2    0    0  0.11819866578E+03 -0.84840193562E+02  0.73248240420E+03  0.74679264558E+03  0.00000000000E+00 0. -1.
          2    1    1    2  501    0 -0.14504967149E+03  0.18087575791E+03 -0.23424137333E+03  0.32958226285E+03  0.25500000000E-02 0. -1.
<mgrwt>
<rscale>  0 0.22631121E+03</rscale>
<asrwt>0</asrwt>
<pdfrwt beam="1">  1       11 0.10000000E+01 0.99718635E+02</pdfrwt>
<pdfrwt beam="2">  1        2 0.46272278E-01 0.22631121E+03</pdfrwt>
<totfact> 0.13529396E+02</totfact>
</mgrwt>
</event>
<event>
 5    1  0.2804411E-003  0.1592909E+03  0.7818608E-02  0.1193443E+00
         11   -1    0    0    0    0  0.00000000000E+00  0.00000000000E+00  0.10001033297E+04  0.10001033297E+04  0.51100000000E-03 0. -1.
          2   -1    0    0  501    0 -0.00000000000E+00 -0.00000000000E+00 -0.29281832037E+02  0.29281832148E+02  0.25500000000E-02 0. -1.
         11    1    1    2    0    0  0.78980266183E+02  0.10410249929E+03  0.54423518254E+03  0.55970273067E+03  0.51100000000E-03 0. -1.
         22    1    1    2    0    0  0.41420680105E+01  0.27751022819E+02  0.14635373736E+03  0.14901910090E+03  0.00000000000E+00 0. -1.
          2    1    1    2  501    0 -0.83122334193E+02 -0.13185352211E+03  0.28023257774E+03  0.32066333025E+03  0.25500000000E-02 0. -1.
<mgrwt>
<rscale>  0 0.15586749E+03</rscale>
<asrwt>0</asrwt>
<pdfrwt beam="1">  1       11 0.10000000E+01 0.15929086E+03</pdfrwt>
<pdfrwt beam="2">  1        2 0.45053626E-02 0.15586749E+03</pdfrwt>
<totfact> 0.21253404E+03</totfact>
</mgrwt>
</event>
<event>
 5    1  0.2804411E-003  0.1394819E+03  0.7818608E-02  0.1214028E+00
         11   -1    0    0    0    0  0.00000000000E+00  0.00000000000E+00  0.10002329568E+04  0.10002329568E+04  0.51100000000E-03 0.  1.
         -2   -1    0    0    0  501 -0.00000000000E+00 -0.00000000000E+00 -0.55194480240E+02  0.55194480299E+02  0.25500000000E-02 0. -1.
         11    1    1    2    0    0  0.94905013507E+02  0.10473799017E+03  0.80995602767E+03  0.82219570355E+03  0.51100000000E-03 0.  1.
         22    1    1    2    0    0  0.99898750508E+01 -0.12991570606E+02  0.82774500059E+02  0.84381256037E+02  0.00000000000E+00 0.  1.
         -2    1    1    2    0  501 -0.10489488856E+03 -0.91746419563E+02  0.52307948879E+02  0.14885047756E+03  0.25500000000E-02 0. -1.
<mgrwt>
<rscale>  0 0.13948185E+03</rscale>
<asrwt>0</asrwt>
<pdfrwt beam="1">  1       11 0.10000000E+01 0.16388365E+02</pdfrwt>
<pdfrwt beam="2">  1       -2 0.84934364E-02 0.13948185E+03</pdfrwt>
<totfact> 0.65982836E+02</totfact>
</mgrwt>
</event>
<event>
 5    1  0.2804411E-003  0.1429036E+03  0.7818608E-02  0.1211846E+00
         11   -1    0    0    0    0  0.00000000000E+00  0.00000000000E+00  0.10005006245E+04  0.10005006245E+04  0.51100000000E-03 0.  1.
          2   -1    0    0  501    0 -0.00000000000E+00 -0.00000000000E+00 -0.20384579054E+02  0.20384579214E+02  0.25500000000E-02 0.  1.
         11    1    1    2    0    0 -0.11214053576E+03 -0.53188192313E+02  0.49521895395E+03  0.51053530330E+03  0.51100000000E-03 0.  1.
         22    1    1    2    0    0 -0.12476553171E+02 -0.13008788139E+02  0.52006975335E+02  0.55041969726E+02  0.00000000000E+00 0.  1.
          2    1    1    2  501    0  0.12461708893E+03  0.66196980452E+02  0.43289011620E+03  0.45530793073E+03  0.25500000000E-02 0.  1.
<mgrwt>
<rscale>  0 0.14110797E+03</rscale>
<asrwt>0</asrwt>
<pdfrwt beam="1">  1       11 0.10000000E+01 0.14290358E+03</pdfrwt>
<pdfrwt beam="2">  1        2 0.31376590E-02 0.14110797E+03</pdfrwt>
<totfact> 0.34100778E+03</totfact>
</mgrwt>
</event>
<event>
 5    1  0.2804411E-003  0.1356836E+03  0.7818608E-02  0.1222208E+00
         11   -1    0    0    0    0  0.00000000000E+00  0.00000000000E+00  0.99998429214E+03  0.99998429214E+03  0.51100000000E-03 0. -1.
          2   -1    0    0  501    0 -0.00000000000E+00 -0.00000000000E+00 -0.19973222818E+02  0.19973222981E+02  0.25500000000E-02 0. -1.
         11    1    1    2    0    0  0.11643012547E+03  0.31689999621E+02  0.57294540429E+03  0.58551401904E+03  0.51100000000E-03 0. -1.
         22    1    1    2    0    0  0.10155971926E+02  0.11033657447E+02  0.75464708478E+02  0.76940285859E+02  0.00000000000E+00 0. -1.
          2    1    1    2  501    0 -0.12658609739E+03 -0.42723657068E+02  0.33160095655E+03  0.35750321022E+03  0.25500000000E-02 0. -1.
<mgrwt>
<rscale>  0 0.13360146E+03</rscale>
<asrwt>0</asrwt>
<pdfrwt beam="1">  1       11 0.10000000E+01 0.13568357E+03</pdfrwt>
<pdfrwt beam="2">  1        2 0.30727552E-02 0.13360146E+03</pdfrwt>
<totfact> 0.34881106E+03</totfact>
</mgrwt>
</event>
<event>
 5    1  0.2804411E-003  0.1656943E+03  0.7818608E-02  0.1190488E+00
         11   -1    0    0    0    0  0.00000000000E+00  0.00000000000E+00  0.10004375622E+04  0.10004375622E+04  0.51100000000E-03 0.  1.
          2   -1    0    0  501    0 -0.00000000000E+00 -0.00000000000E+00 -0.11555759016E+03  0.11555759019E+03  0.25500000000E-02 0.  1.
         11    1    1    2    0    0 -0.32781741565E+02  0.10038042197E+03  0.60546339603E+03  0.61460295771E+03  0.51100000000E-03 0.  1.
         22    1    1    2    0    0 -0.48271949591E+02  0.35738151534E+02  0.32974216034E+03  0.33516755347E+03  0.00000000000E+00 0.  1.
          2    1    1    2  501    0  0.81053691156E+02 -0.13611857350E+03 -0.50325584333E+02  0.16622464121E+03  0.25500000000E-02 0.  1.
<mgrwt>
<rscale>  0 0.15842338E+03</rscale>
<asrwt>0</asrwt>
<pdfrwt beam="1">  1       11 0.10000000E+01 0.16569427E+03</pdfrwt>
<pdfrwt beam="2">  1        2 0.17785869E-01 0.15842338E+03</pdfrwt>
<totfact> 0.38614023E+02</totfact>
</mgrwt>
</event>
<event>
 5    1  0.2804411E-003  0.5019632E+03  0.7818608E-02  0.1013268E+00
         11   -1    0    0    0    0  0.00000000000E+00  0.00000000000E+00  0.10001678386E+04  0.10001678386E+04  0.51100000000E-03 0.  1.
          2   -1    0    0  501    0 -0.00000000000E+00 -0.00000000000E+00 -0.31601394250E+03  0.31601394251E+03  0.25500000000E-02 0.  1.
         11    1    1    2    0    0 -0.29170141935E+02 -0.49401312493E+03  0.53834935944E+03  0.73124544278E+03  0.51100000000E-03 0.  1.
         22    1    1    2    0    0 -0.47752825416E+02 -0.61839556776E+01  0.50844999546E+02  0.70027049216E+02  0.00000000000E+00 0. -1.
          2    1    1    2  501    0  0.76922967351E+02  0.50019708061E+03  0.94959537157E+02  0.51490928915E+03  0.25500000000E-02 0.  1.
<mgrwt>
<rscale>  0 0.50196321E+03</rscale>
<asrwt>0</asrwt>
<pdfrwt beam="1">  1       11 0.10000000E+01 0.48151569E+02</pdfrwt>
<pdfrwt beam="2">  1        2 0.48625688E-01 0.50196321E+03</pdfrwt>
<totfact> 0.12815189E+02</totfact>
</mgrwt>
</event>
<event>
 5    1  0.2804411E-003  0.1394346E+03  0.7818608E-02  0.1218423E+00
         11   -1    0    0    0    0  0.00000000000E+00  0.00000000000E+00  0.10000455749E+04  0.10000455749E+04  0.51100000000E-03 0. -1.
          2   -1    0    0  501    0 -0.00000000000E+00 -0.00000000000E+00 -0.25123044378E+02  0.25123044507E+02  0.25500000000E-02 0. -1.
         11    1    1    2    0    0 -0.84951343124E+02 -0.11730262194E+02  0.49547068193E+03  0.50283747513E+03  0.51100000000E-03 0. -1.
         22    1    1    2    0    0 -0.51321080845E+02  0.13253350419E+02  0.24916895012E+03  0.25474432347E+03  0.00000000000E+00 0. -1.
          2    1    1    2  501    0  0.13627242397E+03 -0.15230882248E+01  0.23028289849E+03  0.26758682082E+03  0.25500000000E-02 0. -1.
<mgrwt>
<rscale>  0 0.13628094E+03</rscale>
<asrwt>0</asrwt>
<pdfrwt beam="1">  1       11 0.10000000E+01 0.13943457E+03</pdfrwt>
<pdfrwt beam="2">  1        2 0.38652598E-02 0.13628094E+03</pdfrwt>
<totfact> 0.25727795E+03</totfact>
</mgrwt>
</event>
<event>
 5    1  0.2804411E-003  0.1835567E+03  0.7818608E-02  0.1167352E+00
         11   -1    0    0    0    0  0.00000000000E+00  0.00000000000E+00  0.99993825815E+03  0.99993825815E+03  0.51100000000E-03 0. -1.
         -2   -1    0    0    0  501 -0.00000000000E+00 -0.00000000000E+00 -0.91911059127E+02  0.91911059163E+02  0.25500000000E-02 0. -1.
         11    1    1    2    0    0  0.78292658266E+02 -0.12313748016E+03  0.76727299830E+03  0.78102524497E+03  0.51100000000E-03 0. -1.
         22    1    1    2    0    0  0.10995693427E+02 -0.33693301223E+02  0.12470644746E+03  0.12964506107E+03  0.00000000000E+00 0.  1.
         -2    1    1    2    0  501 -0.89288351693E+02  0.15683078138E+03  0.16047753262E+02  0.18117901128E+03  0.25500000000E-02 0. -1.
<mgrwt>
<rscale>  0 0.18046690E+03</rscale>
<asrwt>0</asrwt>
<pdfrwt beam="1">  1       11 0.10000000E+01 0.18355673E+03</pdfrwt>
<pdfrwt beam="2">  1       -2 0.14139290E-01 0.18046690E+03</pdfrwt>
<totfact> 0.29747892E+02</totfact>
</mgrwt>
</event>
<event>
 5    1  0.2804411E-003  0.1582109E+02  0.7818608E-02  0.1844000E+00
         11   -1    0    0    0    0  0.00000000000E+00  0.00000000000E+00  0.10000886234E+04  0.10000886234E+04  0.51100000000E-03 0.  1.
          2   -1    0    0  501    0 -0.00000000000E+00 -0.00000000000E+00 -0.32605820747E+01  0.32605830718E+01  0.25500000000E-02 0.  1.
         11    1    1    2    0    0  0.36328859946E+01  0.11429472556E+02  0.19311183702E+02  0.22732191267E+02  0.51100000000E-03 0.  1.
         22    1    1    2    0    0 -0.95097100338E+01  0.12258187470E+02  0.41870339756E+02  0.44652246262E+02  0.00000000000E+00 0. -1.
          2    1    1    2  501    0  0.58768240392E+01 -0.23687660027E+02  0.93564651791E+03  0.93596476898E+03  0.25500000000E-02 0.  1.
<mgrwt>
<rscale>  0 0.15821090E+02</rscale>
<asrwt>0</asrwt>
<pdfrwt beam="1">  1       11 0.10000000E+01 0.11992950E+02</pdfrwt>
<pdfrwt beam="2">  1        2 0.50167253E-03 0.15821090E+02</pdfrwt>
<totfact> 0.26165819E+04</totfact>
</mgrwt>
</event>
<event>
 5    1  0.2804411E-003  0.1438885E+03  0.7818608E-02  0.1677978E+00
         11   -1    0    0    0    0  0.00000000000E+00  0.00000000000E+00  0.10001773372E+04  0.10001773372E+04  0.51100000000E-03 0. -1.
          2   -1    0    0  501    0 -0.00000000000E+00 -0.00000000000E+00 -0.34374830215E+02  0.34374830310E+02  0.25500000000E-02 0. -1.
         11    1    1    2    0    0 -0.11717856749E+03 -0.87384645170E+02  0.46150679856E+03  0.48410269366E+03  0.51100000000E-03 0. -1.
         22    1    1    2    0    0  0.99032204835E+02  0.10287283266E+03  0.50673294862E+03  0.52646792734E+03  0.00000000000E+00 0. -1.
          2    1    1    2  501    0  0.18146362654E+02 -0.15488187493E+02 -0.24372401516E+01  0.23981546561E+02  0.25500000000E-02 0. -1.
<mgrwt>
<rscale>  0 0.23857377E+02</rscale>
<asrwt>0</asrwt>
<pdfrwt beam="1">  1       11 0.10000000E+01 0.14388849E+03</pdfrwt>
<pdfrwt beam="2">  1        2 0.52893731E-02 0.23857377E+02</pdfrwt>
<totfact> 0.14268349E+03</totfact>
</mgrwt>
</event>
<event>
 5    1  0.2804411E-003  0.8943570E+02  0.7818608E-02  0.1307207E+00
         11   -1    0    0    0    0  0.00000000000E+00  0.00000000000E+00  0.10003263866E+04  0.10003263866E+04  0.51100000000E-03 0.  1.
         -2   -1    0    0    0  501 -0.00000000000E+00 -0.00000000000E+00 -0.82392202545E+01  0.82392206492E+01  0.25500000000E-02 0.  1.
         11    1    1    2    0    0 -0.83089019212E-01  0.13092678188E+02  0.69389970485E+02  0.70614397470E+02  0.51100000000E-03 0.  1.
         22    1    1    2    0    0 -0.31319908911E+02  0.69354752725E+02  0.32581801457E+03  0.33458690506E+03  0.00000000000E+00 0.  1.
         -2    1    1    2    0  501  0.31402997930E+02 -0.82447430913E+02  0.59687918125E+03  0.60336430468E+03  0.25500000000E-02 0.  1.
<mgrwt>
<rscale>  0 0.88225434E+02</rscale>
<asrwt>0</asrwt>
<pdfrwt beam="1">  1       11 0.10000000E+01 0.89435698E+02</pdfrwt>
<pdfrwt beam="2">  1       -2 0.12679861E-02 0.88225434E+02</pdfrwt>
<totfact> 0.10338301E+04</totfact>
</mgrwt>
</event>
<event>
 5    1  0.2804411E-003  0.7909905E+02  0.7818608E-02  0.1343352E+00
         11   -1    0    0    0    0  0.00000000000E+00  0.00000000000E+00  0.99975068718E+03  0.99975068718E+03  0.51100000000E-03 0.  1.
          2   -1    0    0  501    0 -0.00000000000E+00 -0.00000000000E+00 -0.65248476019E+01  0.65248481002E+01  0.25500000000E-02 0.  1.
         11    1    1    2    0    0 -0.20355266182E+02 -0.51828444646E+02  0.22769277868E+03  0.23440248719E+03  0.51100000000E-03 0.  1.
         22    1    1    2    0    0  0.52400713362E+01 -0.21803860169E+02  0.13130181353E+03  0.13320297633E+03  0.00000000000E+00 0.  1.
          2    1    1    2  501    0  0.15115194845E+02  0.73632304815E+02  0.63423124737E+03  0.63867007177E+03  0.25500000000E-02 0.  1.
<mgrwt>
<rscale>  0 0.75167715E+02</rscale>
<asrwt>0</asrwt>
<pdfrwt beam="1">  1       11 0.10000000E+01 0.79099049E+02</pdfrwt>
<pdfrwt beam="2">  1        2 0.10035725E-02 0.75167715E+02</pdfrwt>
<totfact> 0.14733653E+04</totfact>
</mgrwt>
</event>
<event>
 5    1  0.2804411E-003  0.1251492E+03  0.7818608E-02  0.1240304E+00
         11   -1    0    0    0    0  0.00000000000E+00  0.00000000000E+00  0.10002371168E+04  0.10002371168E+04  0.51100000000E-03 0. -1.
          2   -1    0    0  501    0 -0.00000000000E+00 -0.00000000000E+00 -0.15986425800E+02  0.15986426004E+02  0.25500000000E-02 0.  1.
         11    1    1    2    0    0  0.38856707126E+02 -0.10079622526E+03  0.51231008955E+03  0.52357554428E+03  0.51100000000E-03 0. -1.
         22    1    1    2    0    0  0.14518723966E+02 -0.85847292984E+01  0.96780715963E+02  0.98239492594E+02  0.00000000000E+00 0. -1.
          2    1    1    2  501    0 -0.53375431092E+02  0.10938095456E+03  0.37515988551E+03  0.39440850595E+03  0.25500000000E-02 0.  1.
<mgrwt>
<rscale>  0 0.12170920E+03</rscale>
<asrwt>0</asrwt>
<pdfrwt beam="1">  1       11 0.10000000E+01 0.12514923E+03</pdfrwt>
<pdfrwt beam="2">  1        2 0.24600332E-02 0.12170920E+03</pdfrwt>
<totfact> 0.46591357E+03</totfact>
</mgrwt>
</event>
<event>
 5    1  0.2804411E-003  0.5226349E+02  0.7818608E-02  0.1433502E+00
         11   -1    0    0    0    0  0.00000000000E+00  0.00000000000E+00  0.10001743951E+04  0.10001743951E+04  0.51100000000E-03 0. -1.
          2   -1    0    0  501    0 -0.00000000000E+00 -0.00000000000E+00 -0.90329170442E+01  0.90329174042E+01  0.25500000000E-02 0. -1.
         11    1    1    2    0    0 -0.48106418086E+02  0.14295053722E+02  0.13778616794E+03  0.14664107235E+03  0.51100000000E-03 0. -1.
         22    1    1    2    0    0  0.38281979314E+02  0.42100435593E+02  0.24489426238E+03  0.25141828963E+03  0.00000000000E+00 0. -1.
          2    1    1    2  501    0  0.98244387727E+01 -0.56395489315E+02  0.60846104777E+03  0.61114795056E+03  0.25500000000E-02 0. -1.
<mgrwt>
<rscale>  0 0.52263487E+02</rscale>
<asrwt>0</asrwt>
<pdfrwt beam="1">  1       11 0.10000000E+01 0.50185442E+02</pdfrwt>
<pdfrwt beam="2">  1        2 0.13899219E-02 0.52263487E+02</pdfrwt>
<totfact> 0.89394681E+03</totfact>
</mgrwt>
</event>
<event>
 5    1  0.2804411E-003  0.1259194E+03  0.7818608E-02  0.1283020E+00
         11   -1    0    0    0    0  0.00000000000E+00  0.00000000000E+00  0.99988766079E+03  0.99988766079E+03  0.51100000000E-03 0.  1.
          2   -1    0    0  501    0 -0.00000000000E+00 -0.00000000000E+00 -0.48294760110E+02  0.48294760177E+02  0.25500000000E-02 0.  1.
         11    1    1    2    0    0 -0.22968633104E+02 -0.10847121489E+03  0.44496022979E+03  0.45856642776E+03  0.51100000000E-03 0.  1.
         22    1    1    2    0    0 -0.51669161115E+02  0.17307755183E+03  0.42403470501E+03  0.46090234563E+03  0.00000000000E+00 0.  1.
          2    1    1    2  501    0  0.74637794219E+02 -0.64606336940E+02  0.82597965874E+02  0.12871364757E+03  0.25500000000E-02 0.  1.
<mgrwt>
<rscale>  0 0.98715648E+02</rscale>
<asrwt>0</asrwt>
<pdfrwt beam="1">  1       11 0.10000000E+01 0.12591939E+03</pdfrwt>
<pdfrwt beam="2">  1        2 0.74291282E-02 0.98715648E+02</pdfrwt>
<totfact> 0.10771121E+03</totfact>
</mgrwt>
</event>
<event>
 5    1  0.2804411E-003  0.4123144E+03  0.7818608E-02  0.1049655E+00
         11   -1    0    0    0    0  0.00000000000E+00  0.00000000000E+00  0.10004000935E+04  0.10004000935E+04  0.51100000000E-03 0. -1.
          2   -1    0    0  501    0 -0.00000000000E+00 -0.00000000000E+00 -0.51508600016E+03  0.51508600017E+03  0.25500000000E-02 0. -1.
         11    1    1    2    0    0  0.12538135740E+03 -0.45248872705E+02  0.16671749205E+03  0.21345413424E+03  0.51100000000E-03 0. -1.
         22    1    1    2    0    0  0.25722425298E+03  0.19361289654E+02  0.70919644027E+03  0.75465142070E+03  0.00000000000E+00 0. -1.
          2    1    1    2  501    0 -0.38260561039E+03  0.25887583051E+02 -0.39059983894E+03  0.54738053879E+03  0.25500000000E-02 0. -1.
<mgrwt>
<rscale>  0 0.38348040E+03</rscale>
<asrwt>0</asrwt>
<pdfrwt beam="1">  1       11 0.10000000E+01 0.41231438E+03</pdfrwt>
<pdfrwt beam="2">  1        2 0.79275703E-01 0.38348040E+03</pdfrwt>
<totfact> 0.74491743E+01</totfact>
</mgrwt>
</event>
<event>
 5    1  0.2804411E-003  0.1883397E+03  0.7818608E-02  0.1159967E+00
         11   -1    0    0    0    0  0.00000000000E+00  0.00000000000E+00  0.99983904854E+03  0.99983904854E+03  0.51100000000E-03 0. -1.
         -2   -1    0    0    0  501 -0.00000000000E+00 -0.00000000000E+00 -0.90516544748E+02  0.90516544784E+02  0.25500000000E-02 0.  1.
         11    1    1    2    0    0 -0.32814665505E+02  0.14493360803E+03  0.72665409602E+03  0.74169314967E+03  0.51100000000E-03 0. -1.
         22    1    1    2    0    0 -0.61579573520E+02  0.27070250830E+02  0.12862511413E+03  0.14515254852E+03  0.00000000000E+00 0.  1.
         -2    1    1    2    0  501  0.94394239025E+02 -0.17200385886E+03  0.54043293636E+02  0.20350989513E+03  0.25500000000E-02 0.  1.
<mgrwt>
<rscale>  0 0.18833969E+03</rscale>
<asrwt>0</asrwt>
<pdfrwt beam="1">  1       11 0.10000000E+01 0.67266948E+02</pdfrwt>
<pdfrwt beam="2">  1       -2 0.13923381E-01 0.18833969E+03</pdfrwt>
<totfact> 0.30562464E+02</totfact>
</mgrwt>
</event>
<event>
 5    1  0.2804411E-003  0.1661742E+03  0.7818608E-02  0.1187986E+00
         11   -1    0    0    0    0  0.00000000000E+00  0.00000000000E+00  0.10000845851E+04  0.10000845851E+04  0.51100000000E-03 0. -1.
          2   -1    0    0  501    0 -0.00000000000E+00 -0.00000000000E+00 -0.33503466079E+02  0.33503466177E+02  0.25500000000E-02 0. -1.
         11    1    1    2    0    0  0.31790184768E+02 -0.14207197442E+03  0.21498853612E+03  0.25964424204E+03  0.51100000000E-03 0. -1.
         22    1    1    2    0    0 -0.98699384651E+01 -0.17056892083E+02  0.41947259788E+02  0.46345721017E+02  0.00000000000E+00 0.  1.
          2    1    1    2  501    0 -0.21920246303E+02  0.15912886650E+03  0.70964532311E+03  0.72759808821E+03  0.25500000000E-02 0. -1.
<mgrwt>
<rscale>  0 0.16063155E+03</rscale>
<asrwt>0</asrwt>
<pdfrwt beam="1">  1       11 0.10000000E+01 0.16617417E+03</pdfrwt>
<pdfrwt beam="2">  1        2 0.51548152E-02 0.16063155E+03</pdfrwt>
<totfact> 0.17849079E+03</totfact>
</mgrwt>
</event>
<event>
 5    1  0.2804411E-003  0.9781261E+02  0.7818608E-02  0.1377484E+00
         11   -1    0    0    0    0  0.00000000000E+00  0.00000000000E+00  0.10004490164E+04  0.10004490164E+04  0.51100000000E-03 0.  1.
         -2   -1    0    0    0  501 -0.00000000000E+00 -0.00000000000E+00 -0.70576010081E+02  0.70576010127E+02  0.25500000000E-02 0. -1.
         11    1    1    2    0    0 -0.73609076292E+02  0.53764565419E+02  0.48142451596E+03  0.48997804969E+03  0.51100000000E-03 0.  1.
         22    1    1    2    0    0  0.11958101495E+03 -0.76293644003E+01  0.48957099960E+03  0.50402141819E+03  0.00000000000E+00 0. -1.
         -2    1    1    2    0  501 -0.45971938661E+02 -0.46135201018E+02 -0.41122509225E+02  0.77025558672E+02  0.25500000000E-02 0. -1.
<mgrwt>
<rscale>  0 0.65129685E+02</rscale>
<asrwt>0</asrwt>
<pdfrwt beam="1">  1       11 0.10000000E+01 0.97812608E+02</pdfrwt>
<pdfrwt beam="2">  1       -2 0.10862723E-01 0.65129685E+02</pdfrwt>
<totfact> 0.42731722E+02</totfact>
</mgrwt>
</event>
<event>
 5    1  0.2804411E-003  0.1511196E+03  0.7818608E-02  0.1199104E+00
         11   -1    0    0    0    0  0.00000000000E+00  0.00000000000E+00  0.10000763276E+04  0.10000763276E+04  0.51100000000E-03 0.  1.
          2   -1    0    0  501    0 -0.00000000000E+00 -0.00000000000E+00 -0.11591017474E+03  0.11591017476E+03  0.25500000000E-02 0.  1.
         11    1    1    2    0    0  0.54830672676E+02  0.19766561905E+03  0.74404168604E+03  0.77180057669E+03  0.51100000000E-03 0.  1.
         22    1    1    2    0    0 -0.19444261746E+02 -0.54815901191E+02  0.18208893867E+03  0.19115241020E+03  0.00000000000E+00 0. -1.
          2    1    1    2  501    0 -0.35386410930E+02 -0.14284971786E+03 -0.41964471802E+02  0.15303351552E+03  0.25500000000E-02 0.  1.
<mgrwt>
<rscale>  0 0.15111956E+03</rscale>
<asrwt>0</asrwt>
<pdfrwt beam="1">  1       11 0.10000000E+01 0.58162379E+02</pdfrwt>
<pdfrwt beam="2">  1        2 0.17833695E-01 0.15111956E+03</pdfrwt>
<totfact> 0.38429889E+02</totfact>
</mgrwt>
</event>
<event>
 5    1  0.2804411E-003  0.1108843E+03  0.7818608E-02  0.1266396E+00
         11   -1    0    0    0    0  0.00000000000E+00  0.00000000000E+00  0.10002071718E+04  0.10002071718E+04  0.51100000000E-03 0.  1.
          2   -1    0    0  501    0 -0.00000000000E+00 -0.00000000000E+00 -0.11865444294E+02  0.11865444568E+02  0.25500000000E-02 0.  1.
         11    1    1    2    0    0  0.71855183988E+02  0.29161039523E+02  0.41570993855E+03  0.42288093679E+03  0.51100000000E-03 0.  1.
         22    1    1    2    0    0  0.22540223980E+02  0.21037168726E+02  0.10139891561E+03  0.10598284886E+03  0.00000000000E+00 0. -1.
          2    1    1    2  501    0 -0.94395407968E+02 -0.50198208249E+02  0.47123287337E+03  0.48320883074E+03  0.25500000000E-02 0.  1.
<mgrwt>
<rscale>  0 0.10691283E+03</rscale>
<asrwt>0</asrwt>
<pdfrwt beam="1">  1       11 0.10000000E+01 0.11088434E+03</pdfrwt>
<pdfrwt beam="2">  1        2 0.18258311E-02 0.10691283E+03</pdfrwt>
<totfact> 0.68709068E+03</totfact>
</mgrwt>
</event>
<event>
 5    1  0.2804411E-003  0.1715183E+03  0.7818608E-02  0.1179438E+00
         11   -1    0    0    0    0  0.00000000000E+00  0.00000000000E+00  0.10000920002E+04  0.10000920002E+04  0.51100000000E-03 0. -1.
          2   -1    0    0  501    0 -0.00000000000E+00 -0.00000000000E+00 -0.11394786936E+03  0.11394786939E+03  0.25500000000E-02 0. -1.
         11    1    1    2    0    0 -0.11755756832E+03  0.88036736213E+02  0.85026029145E+03  0.86285155850E+03  0.51100000000E-03 0. -1.
         22    1    1    2    0    0 -0.14470445028E+02  0.16631581193E+02  0.75042423338E+02  0.78213608616E+02  0.00000000000E+00 0. -1.
          2    1    1    2  501    0  0.13202801335E+03 -0.10466831741E+03 -0.39158583984E+02  0.17297470244E+03  0.25500000000E-02 0. -1.
<mgrwt>
<rscale>  0 0.16848398E+03</rscale>
<asrwt>0</asrwt>
<pdfrwt beam="1">  1       11 0.10000000E+01 0.17151832E+03</pdfrwt>
<pdfrwt beam="2">  1        2 0.17532054E-01 0.16848398E+03</pdfrwt>
<totfact> 0.39343431E+02</totfact>
</mgrwt>
</event>
<event>
 5    1  0.2804411E-003  0.1249419E+03  0.7818608E-02  0.1237613E+00
         11   -1    0    0    0    0  0.00000000000E+00  0.00000000000E+00  0.10002220746E+04  0.10002220746E+04  0.51100000000E-03 0. -1.
         -2   -1    0    0    0  501 -0.00000000000E+00 -0.00000000000E+00 -0.15915165201E+02  0.15915165406E+02  0.25500000000E-02 0. -1.
         11    1    1    2    0    0  0.29388201606E+02  0.10874072956E+03  0.54262005843E+03  0.55418836191E+03  0.51100000000E-03 0. -1.
         22    1    1    2    0    0 -0.23190038887E+01  0.11639634970E+02  0.42739457382E+02  0.44356736789E+02  0.00000000000E+00 0. -1.
         -2    1    1    2    0  501 -0.27069197717E+02 -0.12038036453E+03  0.39894739354E+03  0.41759214127E+03  0.25500000000E-02 0. -1.
<mgrwt>
<rscale>  0 0.12338628E+03</rscale>
<asrwt>0</asrwt>
<pdfrwt beam="1">  1       11 0.10000000E+01 0.12494188E+03</pdfrwt>
<pdfrwt beam="2">  1       -2 0.24490306E-02 0.12338628E+03</pdfrwt>
<totfact> 0.41984558E+03</totfact>
</mgrwt>
</event>
<event>
 5    1  0.2804411E-003  0.3372843E+02  0.7818608E-02  0.1568710E+00
         11   -1    0    0    0    0  0.00000000000E+00  0.00000000000E+00  0.10001772112E+04  0.10001772112E+04  0.51100000000E-03 0.  1.
          2   -1    0    0  501    0 -0.00000000000E+00 -0.00000000000E+00 -0.19172514880E+01  0.19172531837E+01  0.25500000000E-02 0.  1.
         11    1    1    2    0    0 -0.17334949137E+02 -0.48294903542E+01  0.92908321545E+02  0.94634986402E+02  0.51100000000E-03 0.  1.
         22    1    1    2    0    0 -0.15446766405E+02  0.29553764382E+01  0.84481256382E+02  0.85932645264E+02  0.00000000000E+00 0.  1.
          2    1    1    2  501    0  0.32781715542E+02  0.18741139160E+01  0.82087038180E+03  0.82152683273E+03  0.25500000000E-02 0.  1.
<mgrwt>
<rscale>  0 0.32835243E+02</rscale>
<asrwt>0</asrwt>
<pdfrwt beam="1">  1       11 0.10000000E+01 0.33728434E+02</pdfrwt>
<pdfrwt beam="2">  1        2 0.29501416E-03 0.32835243E+02</pdfrwt>
<totfact> 0.64436552E+04</totfact>
</mgrwt>
</event>
<event>
 5    1  0.2804411E-003  0.4686585E+03  0.7818608E-02  0.1029361E+00
         11   -1    0    0    0    0  0.00000000000E+00  0.00000000000E+00  0.10003192381E+04  0.10003192381E+04  0.51100000000E-03 0. -1.
          2   -1    0    0  501    0 -0.00000000000E+00 -0.00000000000E+00 -0.40684201095E+03  0.40684201096E+03  0.25500000000E-02 0. -1.
         11    1    1    2    0    0  0.35336991847E+03 -0.98218461083E+02  0.72902637778E+03  0.81608616265E+03  0.51100000000E-03 0. -1.
         22    1    1    2    0    0  0.82378756793E+02  0.10215902792E+02  0.62994882511E+02  0.10420642717E+03  0.00000000000E+00 0.  1.
          2    1    1    2  501    0 -0.43574867526E+03  0.88002558291E+02 -0.19854403313E+03  0.48686865924E+03  0.25500000000E-02 0. -1.
<mgrwt>
<rscale>  0 0.44454624E+03</rscale>
<asrwt>0</asrwt>
<pdfrwt beam="1">  1       11 0.10000000E+01 0.46865848E+03</pdfrwt>
<pdfrwt beam="2">  1        2 0.62611058E-01 0.44454624E+03</pdfrwt>
<totfact> 0.96977077E+01</totfact>
</mgrwt>
</event>
<event>
 5    1  0.4416655E-003  0.2629619E+03  0.7818608E-02  0.1107662E+00
         11   -1    0    0    0    0  0.00000000000E+00  0.00000000000E+00  0.99992085250E+03  0.99992085250E+03  0.51100000000E-03 0. -1.
          2   -1    0    0  501    0 -0.00000000000E+00 -0.00000000000E+00 -0.20226825367E+04  0.20226825367E+04  0.25500000000E-02 0.  1.
         11    1    1    2    0    0 -0.17205200606E+03 -0.17191687835E+03  0.88032394013E+03  0.91330583346E+03  0.51100000000E-03 0. -1.
         22    1    1    2    0    0 -0.18555027312E+02 -0.36452841506E+01  0.93790158144E+02  0.95677431507E+02  0.00000000000E+00 0.  1.
          2    1    1    2  501    0  0.19060703337E+03  0.17556216251E+03 -0.19968757824E+04  0.20136201242E+04  0.25500000000E-02 0.  1.
<mgrwt>
<rscale>  0 0.25913918E+03</rscale>
<asrwt>0</asrwt>
<pdfrwt beam="1">  1       11 0.10000000E+01 0.26296188E+03</pdfrwt>
<pdfrwt beam="2">  1        2 0.31115729E+00 0.25913918E+03</pdfrwt>
<totfact> 0.91044439E+00</totfact>
</mgrwt>
</event>
<event>
 5    1  0.2804411E-003  0.1295390E+03  0.7818608E-02  0.1462501E+00
         11   -1    0    0    0    0  0.00000000000E+00  0.00000000000E+00  0.10000540297E+04  0.10000540297E+04  0.51100000000E-03 0. -1.
          2   -1    0    0  501    0 -0.00000000000E+00 -0.00000000000E+00 -0.31410965680E+02  0.31410965783E+02  0.25500000000E-02 0. -1.
         11    1    1    2    0    0  0.74159662645E+02 -0.95983969990E+02  0.45954019488E+03  0.47527862225E+03  0.51100000000E-03 0. -1.
         22    1    1    2    0    0 -0.11893129550E+03  0.81836502203E+02  0.47930674889E+03  0.50057649333E+03  0.00000000000E+00 0. -1.
          2    1    1    2  501    0  0.44771632853E+02  0.14147467787E+02  0.29796120226E+02  0.55609879878E+02  0.25500000000E-02 0. -1.
<mgrwt>
<rscale>  0 0.46953700E+02</rscale>
<asrwt>0</asrwt>
<pdfrwt beam="1">  1       11 0.10000000E+01 0.12953895E+03</pdfrwt>
<pdfrwt beam="2">  1        2 0.48327172E-02 0.46953700E+02</pdfrwt>
<totfact> 0.17302749E+03</totfact>
</mgrwt>
</event>
<event>
 5    1  0.2804411E-003  0.1028011E+03  0.7818608E-02  0.1279138E+00
         11   -1    0    0    0    0  0.00000000000E+00  0.00000000000E+00  0.10000819496E+04  0.10000819496E+04  0.51100000000E-03 0. -1.
         -2   -1    0    0    0  501 -0.00000000000E+00 -0.00000000000E+00 -0.11535239716E+02  0.11535239998E+02  0.25500000000E-02 0. -1.
         11    1    1    2    0    0 -0.39987687473E+02 -0.24284913252E+02  0.18547727756E+03  0.19128667662E+03  0.51100000000E-03 0. -1.
         22    1    1    2    0    0 -0.38385867650E+02 -0.38710171897E+02  0.15070299362E+03  0.16026024001E+03  0.00000000000E+00 0. -1.
         -2    1    1    2    0  501  0.78373555123E+02  0.62995085150E+02  0.65236643872E+03  0.66007027298E+03  0.25500000000E-02 0. -1.
<mgrwt>
<rscale>  0 0.10055245E+03</rscale>
<asrwt>0</asrwt>
<pdfrwt beam="1">  1       11 0.10000000E+01 0.10280107E+03</pdfrwt>
<pdfrwt beam="2">  1       -2 0.17747977E-02 0.10055245E+03</pdfrwt>
<totfact> 0.65178016E+03</totfact>
</mgrwt>
</event>
<event>
 5    1  0.2804411E-003  0.1188555E+03  0.7818608E-02  0.1269804E+00
         11   -1    0    0    0    0  0.00000000000E+00  0.00000000000E+00  0.10002722968E+04  0.10002722968E+04  0.51100000000E-03 0. -1.
          2   -1    0    0  501    0 -0.00000000000E+00 -0.00000000000E+00 -0.64971940379E+02  0.64971940429E+02  0.25500000000E-02 0. -1.
         11    1    1    2    0    0 -0.30673621699E+02  0.11972882522E+03  0.46090448254E+03  0.47718843729E+03  0.51100000000E-03 0. -1.
         22    1    1    2    0    0 -0.74389403232E+02 -0.11519985122E+03  0.46229083292E+03  0.48220079141E+03  0.00000000000E+00 0. -1.
          2    1    1    2  501    0  0.10506302493E+03 -0.45289740079E+01  0.12105040989E+02  0.10585500856E+03  0.25500000000E-02 0. -1.
<mgrwt>
<rscale>  0 0.10516060E+03</rscale>
<asrwt>0</asrwt>
<pdfrwt beam="1">  1       11 0.10000000E+01 0.11885551E+03</pdfrwt>
<pdfrwt beam="2">  1        2 0.99984046E-02 0.10516060E+03</pdfrwt>
<totfact> 0.74952703E+02</totfact>
</mgrwt>
</event>
<event>
 5    1  0.2804411E-003  0.2153070E+03  0.7818608E-02  0.1137431E+00
         11   -1    0    0    0    0  0.00000000000E+00  0.00000000000E+00  0.99997854942E+03  0.99997854942E+03  0.51100000000E-03 0.  1.
          2   -1    0    0  501    0 -0.00000000000E+00 -0.00000000000E+00 -0.76441417975E+03  0.76441417975E+03  0.25500000000E-02 0.  1.
         11    1    1    2    0    0 -0.17317663345E+02  0.14565674581E+03  0.15222094876E+03  0.21139301385E+03  0.51100000000E-03 0.  1.
         22    1    1    2    0    0  0.17935116413E+03 -0.13776874507E+01  0.79190713181E+03  0.81196406540E+03  0.00000000000E+00 0.  1.
          2    1    1    2  501    0 -0.16203350079E+03 -0.14427905836E+03 -0.70856371089E+03  0.74103564992E+03  0.25500000000E-02 0.  1.
<mgrwt>
<rscale>  0 0.21530700E+03</rscale>
<asrwt>0</asrwt>
<pdfrwt beam="1">  1       11 0.10000000E+01 0.14668261E+03</pdfrwt>
<pdfrwt beam="2">  1        2 0.11759966E+00 0.21530700E+03</pdfrwt>
<totfact> 0.47324436E+01</totfact>
</mgrwt>
</event>
<event>
 5    1  0.2804411E-003  0.7021543E+02  0.7818608E-02  0.1638494E+00
         11   -1    0    0    0    0  0.00000000000E+00  0.00000000000E+00  0.10001411007E+04  0.10001411007E+04  0.51100000000E-03 0.  1.
          2   -1    0    0  501    0 -0.00000000000E+00 -0.00000000000E+00 -0.58571103588E+01  0.58571109139E+01  0.25500000000E-02 0.  1.
         11    1    1    2    0    0 -0.21752216277E+02 -0.66799569840E+02  0.39711436290E+03  0.40328049626E+03  0.51100000000E-03 0.  1.
         22    1    1    2    0    0  0.97498695663E+01 -0.26666820100E+01  0.48835787463E+02  0.49870886162E+02  0.00000000000E+00 0.  1.
          2    1    1    2  501    0  0.12002346711E+02  0.69466251850E+02  0.54833383996E+03  0.55284682917E+03  0.25500000000E-02 0.  1.
<mgrwt>
<rscale>  0 0.26640859E+02</rscale>
<asrwt>0</asrwt>
<pdfrwt beam="1">  1       11 0.10000000E+01 0.70215426E+02</pdfrwt>
<pdfrwt beam="2">  1        2 0.90122106E-03 0.26640859E+02</pdfrwt>
<totfact> 0.13940067E+04</totfact>
</mgrwt>
</event>
<event>
 5    1  0.2804411E-003  0.4271466E+02  0.7818608E-02  0.1489135E+00
         11   -1    0    0    0    0  0.00000000000E+00  0.00000000000E+00  0.10001152016E+04  0.10001152016E+04  0.51100000000E-03 0.  1.
          2   -1    0    0  501    0 -0.00000000000E+00 -0.00000000000E+00 -0.44439322159E+01  0.44439329476E+01  0.25500000000E-02 0.  1.
         11    1    1    2    0    0 -0.25913019099E+02 -0.73661404658E+00  0.10456201560E+03  0.10772763000E+03  0.51100000000E-03 0.  1.
         22    1    1    2    0    0  0.22996116109E+02 -0.39276276189E+02  0.22734834028E+03  0.23185925700E+03  0.00000000000E+00 0.  1.
          2    1    1    2  501    0  0.29169029897E+01  0.40012890236E+02  0.66376091353E+03  0.66497224758E+03  0.25500000000E-02 0.  1.
<mgrwt>
<rscale>  0 0.42714659E+02</rscale>
<asrwt>0</asrwt>
<pdfrwt beam="1">  1       11 0.10000000E+01 0.25923500E+02</pdfrwt>
<pdfrwt beam="2">  1        2 0.68376068E-03 0.42714659E+02</pdfrwt>
<totfact> 0.22269892E+04</totfact>
</mgrwt>
</event>
<event>
 5    1  0.2804411E-003  0.1805777E+03  0.7818608E-02  0.1179521E+00
         11   -1    0    0    0    0  0.00000000000E+00  0.00000000000E+00  0.10000492869E+04  0.10000492869E+04  0.51100000000E-03 0.  1.
         -2   -1    0    0    0  501 -0.00000000000E+00 -0.00000000000E+00 -0.44288165046E+02  0.44288165120E+02  0.25500000000E-02 0. -1.
         11    1    1    2    0    0 -0.78211360723E+02 -0.41241158067E+02  0.28859791567E+03  0.30183871023E+03  0.51100000000E-03 0.  1.
         22    1    1    2    0    0 -0.85450394155E+02  0.15508758664E+01  0.49254377176E+03  0.49990353287E+03  0.00000000000E+00 0.  1.
         -2    1    1    2    0  501  0.16366175488E+03  0.39690282201E+02  0.17461943447E+03  0.24259520896E+03  0.25500000000E-02 0. -1.
<mgrwt>
<rscale>  0 0.16840573E+03</rscale>
<asrwt>0</asrwt>
<pdfrwt beam="1">  1       11 0.10000000E+01 0.18057765E+03</pdfrwt>
<pdfrwt beam="2">  1       -2 0.68138995E-02 0.16840573E+03</pdfrwt>
<totfact> 0.93926133E+02</totfact>
</mgrwt>
</event>
<event>
 5    1  0.2804411E-003  0.1395009E+03  0.7818608E-02  0.1216038E+00
         11   -1    0    0    0    0  0.00000000000E+00  0.00000000000E+00  0.10004779140E+04  0.10004779140E+04  0.51100000000E-03 0. -1.
          2   -1    0    0  501    0 -0.00000000000E+00 -0.00000000000E+00 -0.28291342098E+02  0.28291342213E+02  0.25500000000E-02 0. -1.
         11    1    1    2    0    0 -0.12847855023E+03 -0.36315350301E+00  0.71319672479E+03  0.72467678175E+03  0.51100000000E-03 0. -1.
         22    1    1    2    0    0 -0.93929129595E+01 -0.57182486933E+01  0.65572588909E+02  0.66488266620E+02  0.00000000000E+00 0.  1.
          2    1    1    2  501    0  0.13787146319E+03  0.60814021963E+01  0.19341725825E+03  0.23760420790E+03  0.25500000000E-02 0. -1.
<mgrwt>
<rscale>  0 0.13800552E+03</rscale>
<asrwt>0</asrwt>
<pdfrwt beam="1">  1       11 0.10000000E+01 0.13950086E+03</pdfrwt>
<pdfrwt beam="2">  1        2 0.43545942E-02 0.13800552E+03</pdfrwt>
<totfact> 0.21999736E+03</totfact>
</mgrwt>
</event>
<event>
 5    1  0.2804411E-003  0.1203087E+03  0.7818608E-02  0.1252310E+00
         11   -1    0    0    0    0  0.00000000000E+00  0.00000000000E+00  0.10001880466E+04  0.10001880466E+04  0.51100000000E-03 0. -1.
          2   -1    0    0  501    0 -0.00000000000E+00 -0.00000000000E+00 -0.14283832163E+02  0.14283832391E+02  0.25500000000E-02 0. -1.
         11    1    1    2    0    0 -0.32049924400E+02  0.97290813075E+02  0.32855925116E+03  0.34415676876E+03  0.51100000000E-03 0. -1.
         22    1    1    2    0    0  0.77989960514E+01  0.14696998729E+02  0.81800441426E+02  0.83475375581E+02  0.00000000000E+00 0. -1.
          2    1    1    2  501    0  0.24250928348E+02 -0.11198781180E+03  0.57554452182E+03  0.58683973461E+03  0.25500000000E-02 0. -1.
<mgrwt>
<rscale>  0 0.11458350E+03</rscale>
<asrwt>0</asrwt>
<pdfrwt beam="1">  1       11 0.10000000E+01 0.12030866E+03</pdfrwt>
<pdfrwt beam="2">  1        2 0.21979258E-02 0.11458350E+03</pdfrwt>
<totfact> 0.53883715E+03</totfact>
</mgrwt>
</event>
<event>
 5    1  0.2804411E-003  0.3817891E+03  0.7818608E-02  0.1053927E+00
         11   -1    0    0    0    0  0.00000000000E+00  0.00000000000E+00  0.10001569857E+04  0.10001569857E+04  0.51100000000E-03 0. -1.
          2   -1    0    0  501    0 -0.00000000000E+00 -0.00000000000E+00 -0.18867962503E+03  0.18867962505E+03  0.25500000000E-02 0. -1.
         11    1    1    2    0    0  0.25359763427E+03  0.23328325538E+03  0.58946311078E+03  0.68278810500E+03  0.51100000000E-03 0. -1.
         22    1    1    2    0    0  0.24754090076E+02  0.13519316784E+02  0.11578210209E+03  0.11916808325E+03  0.00000000000E+00 0. -1.
          2    1    1    2  501    0 -0.27835172435E+03 -0.24680257216E+03  0.10623214779E+03  0.38688042249E+03  0.25500000000E-02 0. -1.
<mgrwt>
<rscale>  0 0.37200967E+03</rscale>
<asrwt>0</asrwt>
<pdfrwt beam="1">  1       11 0.10000000E+01 0.38178910E+03</pdfrwt>
<pdfrwt beam="2">  1        2 0.29032191E-01 0.37200967E+03</pdfrwt>
<totfact> 0.22613337E+02</totfact>
</mgrwt>
</event>
<event>
 5    1  0.2804411E-003  0.2254749E+03  0.7818608E-02  0.1129866E+00
         11   -1    0    0    0    0  0.00000000000E+00  0.00000000000E+00  0.10001122086E+04  0.10001122086E+04  0.51100000000E-03 0. -1.
          2   -1    0    0  501    0 -0.00000000000E+00 -0.00000000000E+00 -0.58130247338E+03  0.58130247338E+03  0.25500000000E-02 0.  1.
         11    1    1    2    0    0  0.20125312286E+03  0.79301567112E+02  0.68630452406E+03  0.71958700499E+03  0.51100000000E-03 0. -1.
         22    1    1    2    0    0  0.24870730214E+02 -0.90086755920E+02  0.26618724459E+03  0.28211668861E+03  0.00000000000E+00 0. -1.
          2    1    1    2  501    0 -0.22612385307E+03  0.10785188808E+02 -0.53368203343E+03  0.57971098837E+03  0.25500000000E-02 0.  1.
<mgrwt>
<rscale>  0 0.22547486E+03</rscale>
<asrwt>0</asrwt>
<pdfrwt beam="1">  1       11 0.10000000E+01 0.93456818E+02</pdfrwt>
<pdfrwt beam="2">  1        2 0.89441182E-01 0.22547486E+03</pdfrwt>
<totfact> 0.65542022E+01</totfact>
</mgrwt>
</event>
<event>
 5    1  0.2804411E-003  0.4869852E+03  0.7818608E-02  0.1017233E+00
         11   -1    0    0    0    0  0.00000000000E+00  0.00000000000E+00  0.10002590020E+04  0.10002590020E+04  0.51100000000E-03 0.  1.
         -2   -1    0    0    0  501 -0.00000000000E+00 -0.00000000000E+00 -0.35339126680E+03  0.35339126681E+03  0.25500000000E-02 0. -1.
         11    1    1    2    0    0  0.26721155974E+02 -0.35632019357E+02 -0.16647415099E+02  0.47547843377E+02  0.51100000000E-03 0.  1.
         22    1    1    2    0    0  0.89159518178E+02 -0.44787404852E+03  0.66765035421E+03  0.80888662896E+03  0.00000000000E+00 0.  1.
         -2    1    1    2    0  501 -0.11588067415E+03  0.48350606788E+03 -0.41352039359E+01  0.49721579645E+03  0.25500000000E-02 0. -1.
<mgrwt>
<rscale>  0 0.48698516E+03</rscale>
<asrwt>0</asrwt>
<pdfrwt beam="1">  1       11 0.10000000E+01 0.44538331E+02</pdfrwt>
<pdfrwt beam="2">  1       -2 0.54381967E-01 0.48698516E+03</pdfrwt>
<totfact> 0.26093783E+01</totfact>
</mgrwt>
</event>
<event>
 5    1  0.2804411E-003  0.4243086E+03  0.7818608E-02  0.1040244E+00
         11   -1    0    0    0    0  0.00000000000E+00  0.00000000000E+00  0.10003413664E+04  0.10003413664E+04  0.51100000000E-03 0.  1.
          2   -1    0    0  501    0 -0.00000000000E+00 -0.00000000000E+00 -0.17822552532E+03  0.17822552533E+03  0.25500000000E-02 0.  1.
         11    1    1    2    0    0 -0.10834571237E+03 -0.29138335987E+03  0.25430250417E+03  0.40163767182E+03  0.51100000000E-03 0.  1.
         22    1    1    2    0    0 -0.90011440104E+02 -0.67871312321E+02  0.73984500078E+02  0.13484168731E+03  0.00000000000E+00 0. -1.
          2    1    1    2  501    0  0.19835715247E+03  0.35925467219E+03  0.49382883682E+03  0.64208753259E+03  0.25500000000E-02 0.  1.
<mgrwt>
<rscale>  0 0.41037724E+03</rscale>
<asrwt>0</asrwt>
<pdfrwt beam="1">  1       11 0.10000000E+01 0.42430855E+03</pdfrwt>
<pdfrwt beam="2">  1        2 0.27428671E-01 0.41037724E+03</pdfrwt>
<totfact> 0.24133903E+02</totfact>
</mgrwt>
</event>
<event>
 5    1  0.2804411E-003  0.9080467E+02  0.7818608E-02  0.1300915E+00
         11   -1    0    0    0    0  0.00000000000E+00  0.00000000000E+00  0.10001896536E+04  0.10001896536E+04  0.51100000000E-03 0. -1.
         -2   -1    0    0    0  501 -0.00000000000E+00 -0.00000000000E+00 -0.48974480406E+02  0.48974480473E+02  0.25500000000E-02 0. -1.
         11    1    1    2    0    0  0.20746526588E+01 -0.57290477010E+02  0.29961783010E+03  0.30505302335E+03  0.51100000000E-03 0. -1.
         22    1    1    2    0    0  0.83426201647E+02  0.84236872221E+02  0.64324148374E+03  0.65407598043E+03  0.00000000000E+00 0. -1.
         -2    1    1    2    0  501 -0.85500854306E+02 -0.26946395211E+02  0.83558593877E+01  0.90035130336E+02  0.25500000000E-02 0. -1.
<mgrwt>
<rscale>  0 0.90804675E+02</rscale>
<asrwt>0</asrwt>
<pdfrwt beam="1">  1       11 0.10000000E+01 0.57328029E+02</pdfrwt>
<pdfrwt beam="2">  1       -2 0.75359642E-02 0.90804675E+02</pdfrwt>
<totfact> 0.76852757E+02</totfact>
</mgrwt>
</event>
<event>
 5    1  0.2804411E-003  0.2029725E+03  0.7818608E-02  0.1152062E+00
         11   -1    0    0    0    0  0.00000000000E+00  0.00000000000E+00  0.10000531268E+04  0.10000531268E+04  0.51100000000E-03 0.  1.
          2   -1    0    0  501    0 -0.00000000000E+00 -0.00000000000E+00 -0.43355440943E+02  0.43355441018E+02  0.25500000000E-02 0.  1.
         11    1    1    2    0    0 -0.80891355801E+02 -0.16472567469E+03  0.56885483478E+03  0.59772383456E+03  0.51100000000E-03 0.  1.
         22    1    1    2    0    0 -0.18633289987E+02 -0.55997452792E+01  0.59899603484E+02  0.62980307561E+02  0.00000000000E+00 0.  1.
          2    1    1    2  501    0  0.99524645788E+02  0.17032541997E+03  0.32794324762E+03  0.38270442573E+03  0.25500000000E-02 0.  1.
<mgrwt>
<rscale>  0 0.19727114E+03</rscale>
<asrwt>0</asrwt>
<pdfrwt beam="1">  1       11 0.10000000E+01 0.20297246E+03</pdfrwt>
<pdfrwt beam="2">  1        2 0.66704220E-02 0.19727114E+03</pdfrwt>
<totfact> 0.12956328E+03</totfact>
</mgrwt>
</event>
<event>
 5    1  0.2804411E-003  0.3276138E+02  0.7818608E-02  0.1575555E+00
         11   -1    0    0    0    0  0.00000000000E+00  0.00000000000E+00  0.10004220755E+04  0.10004220755E+04  0.51100000000E-03 0. -1.
         -2   -1    0    0    0  501 -0.00000000000E+00 -0.00000000000E+00 -0.19777329842E+01  0.19777346281E+01  0.25500000000E-02 0. -1.
         11    1    1    2    0    0 -0.18704831994E+02 -0.88510502836E+01  0.11321981438E+03  0.11509534395E+03  0.51100000000E-03 0. -1.
         22    1    1    2    0    0 -0.90251448371E+01 -0.74010473573E+01  0.45767241650E+02  0.47232077549E+02  0.00000000000E+00 0. -1.
         -2    1    1    2    0  501  0.27729976831E+02  0.16252097641E+02  0.83945728652E+03  0.84007238866E+03  0.25500000000E-02 0. -1.
<mgrwt>
<rscale>  0 0.32141598E+02</rscale>
<asrwt>0</asrwt>
<pdfrwt beam="1">  1       11 0.10000000E+01 0.32761376E+02</pdfrwt>
<pdfrwt beam="2">  1       -2 0.30439515E-03 0.32141598E+02</pdfrwt>
<totfact> 0.60385066E+04</totfact>
</mgrwt>
</event>
<event>
 5    1  0.2804411E-003  0.2452454E+03  0.7818608E-02  0.1121102E+00
         11   -1    0    0    0    0  0.00000000000E+00  0.00000000000E+00  0.99985652816E+03  0.99985652816E+03  0.51100000000E-03 0. -1.
          2   -1    0    0  501    0 -0.00000000000E+00 -0.00000000000E+00 -0.34963337456E+03  0.34963337457E+03  0.25500000000E-02 0. -1.
         11    1    1    2    0    0 -0.16791966521E+03 -0.24970639793E+02  0.55862101924E+03  0.58384757425E+03  0.51100000000E-03 0. -1.
         22    1    1    2    0    0 -0.69062342630E+02  0.24945247027E+01  0.38310718492E+03  0.38929030936E+03  0.00000000000E+00 0. -1.
          2    1    1    2  501    0  0.23698200784E+03  0.22476115091E+02 -0.29150505056E+03  0.37635201912E+03  0.25500000000E-02 0. -1.
<mgrwt>
<rscale>  0 0.23804547E+03</rscale>
<asrwt>0</asrwt>
<pdfrwt beam="1">  1       11 0.10000000E+01 0.24524545E+03</pdfrwt>
<pdfrwt beam="2">  1        2 0.53782031E-01 0.23804547E+03</pdfrwt>
<totfact> 0.11502892E+02</totfact>
</mgrwt>
</event>
<event>
 5    1  0.2804411E-003  0.4503178E+02  0.7818608E-02  0.1474143E+00
         11   -1    0    0    0    0  0.00000000000E+00  0.00000000000E+00  0.10003447576E+04  0.10003447576E+04  0.51100000000E-03 0.  1.
          2   -1    0    0  501    0 -0.00000000000E+00 -0.00000000000E+00 -0.65906256805E+01  0.65906261738E+01  0.25500000000E-02 0.  1.
         11    1    1    2    0    0 -0.36412047091E+02  0.25966806417E+02  0.19246709514E+03  0.19759477453E+03  0.51100000000E-03 0.  1.
         22    1    1    2    0    0  0.40793873918E+02  0.25446840110E+02  0.19414855355E+03  0.20001335622E+03  0.00000000000E+00 0.  1.
          2    1    1    2  501    0 -0.43818268279E+01 -0.51413646527E+02  0.60713848321E+03  0.60932725300E+03  0.25500000000E-02 0.  1.
<mgrwt>
<rscale>  0 0.45031775E+02</rscale>
<asrwt>0</asrwt>
<pdfrwt beam="1">  1       11 0.10000000E+01 0.44722636E+02</pdfrwt>
<pdfrwt beam="2">  1        2 0.10142920E-02 0.45031775E+02</pdfrwt>
<totfact> 0.13268693E+04</totfact>
</mgrwt>
</event>
<event>
 5    1  0.2804411E-003  0.9345322E+03  0.7818608E-02  0.9386021E-01
         11   -1    0    0    0    0  0.00000000000E+00  0.00000000000E+00  0.10001252069E+04  0.10001252069E+04  0.51100000000E-03 0. -1.
          2   -1    0    0  501    0 -0.00000000000E+00 -0.00000000000E+00 -0.89152575265E+03  0.89152575265E+03  0.25500000000E-02 0. -1.
         11    1    1    2    0    0  0.73272454012E+02  0.91373617458E+03 -0.80855811978E+02  0.92022840186E+03  0.51100000000E-03 0. -1.
         22    1    1    2    0    0  0.74560622589E+01  0.15113237109E+02 -0.75807989714E+01  0.18478942431E+02  0.00000000000E+00 0.  1.
          2    1    1    2  501    0 -0.80728516271E+02 -0.92884941169E+03  0.19703606524E+03  0.95294361530E+03  0.25500000000E-02 0. -1.
<mgrwt>
<rscale>  0 0.93235097E+03</rscale>
<asrwt>0</asrwt>
<pdfrwt beam="1">  1       11 0.10000000E+01 0.93453221E+03</pdfrwt>
<pdfrwt beam="2">  1        2 0.13717498E+00 0.93235097E+03</pdfrwt>
<totfact> 0.36582758E+01</totfact>
</mgrwt>
</event>
<event>
 5    1  0.2804411E-003  0.2870966E+02  0.7818608E-02  0.1727464E+00
         11   -1    0    0    0    0  0.00000000000E+00  0.00000000000E+00  0.10003302708E+04  0.10003302708E+04  0.51100000000E-03 0. -1.
          2   -1    0    0  501    0 -0.00000000000E+00 -0.00000000000E+00 -0.26685606329E+01  0.26685618512E+01  0.25500000000E-02 0. -1.
         11    1    1    2    0    0 -0.12276032734E+02  0.13945697878E+02  0.51489733696E+02  0.54739164638E+02  0.51100000000E-03 0. -1.
         22    1    1    2    0    0  0.24988409979E+01  0.15050758481E+02  0.74269032571E+02  0.75819909893E+02  0.00000000000E+00 0.  1.
          2    1    1    2  501    0  0.97771917356E+01 -0.28996456359E+02  0.87190294392E+03  0.87243975814E+03  0.25500000000E-02 0. -1.
<mgrwt>
<rscale>  0 0.20928855E+02</rscale>
<asrwt>0</asrwt>
<pdfrwt beam="1">  1       11 0.10000000E+01 0.28709662E+02</pdfrwt>
<pdfrwt beam="2">  1        2 0.41068346E-03 0.20928855E+02</pdfrwt>
<totfact> 0.36781456E+04</totfact>
</mgrwt>
</event>
<event>
 5    1  0.2804411E-003  0.8282799E+02  0.7818608E-02  0.1606030E+00
         11   -1    0    0    0    0  0.00000000000E+00  0.00000000000E+00  0.10002928296E+04  0.10002928296E+04  0.51100000000E-03 0.  1.
          2   -1    0    0  501    0 -0.00000000000E+00 -0.00000000000E+00 -0.79079429111E+01  0.79079433222E+01  0.25500000000E-02 0.  1.
         11    1    1    2    0    0  0.28308995909E+01  0.82389798692E+02  0.46230901926E+03  0.46960166334E+03  0.51100000000E-03 0.  1.
         22    1    1    2    0    0  0.10359960076E+02  0.75907491629E-01  0.34027901620E+02  0.35570108566E+02  0.00000000000E+00 0. -1.
          2    1    1    2  501    0 -0.13190859667E+02 -0.82465706183E+02  0.49604796579E+03  0.50302900100E+03  0.25500000000E-02 0.  1.
<mgrwt>
<rscale>  0 0.29293640E+02</rscale>
<asrwt>0</asrwt>
<pdfrwt beam="1">  1       11 0.10000000E+01 0.82827994E+02</pdfrwt>
<pdfrwt beam="2">  1        2 0.12169629E-02 0.29293640E+02</pdfrwt>
<totfact> 0.95902535E+03</totfact>
</mgrwt>
</event>
<event>
 5    1  0.2804411E-003  0.1555095E+03  0.7818608E-02  0.1196748E+00
         11   -1    0    0    0    0  0.00000000000E+00  0.00000000000E+00  0.99997655292E+03  0.99997655292E+03  0.51100000000E-03 0. -1.
          2   -1    0    0  501    0 -0.00000000000E+00 -0.00000000000E+00 -0.32119417815E+02  0.32119417916E+02  0.25500000000E-02 0. -1.
         11    1    1    2    0    0  0.12033384301E+03  0.30063293629E+02  0.57003217194E+03  0.58337013332E+03  0.51100000000E-03 0. -1.
         22    1    1    2    0    0  0.24985177134E+02  0.18036115051E+02  0.17925929734E+03  0.18188858184E+03  0.00000000000E+00 0. -1.
          2    1    1    2  501    0 -0.14531902015E+03 -0.48099408680E+02  0.21856566582E+03  0.26683725567E+03  0.25500000000E-02 0. -1.
<mgrwt>
<rscale>  0 0.15307244E+03</rscale>
<asrwt>0</asrwt>
<pdfrwt beam="1">  1       11 0.10000000E+01 0.15550947E+03</pdfrwt>
<pdfrwt beam="2">  1        2 0.49413329E-02 0.15307244E+03</pdfrwt>
<totfact> 0.18793554E+03</totfact>
</mgrwt>
</event>
<event>
 5    1  0.2804411E-003  0.2889958E+03  0.7818608E-02  0.1093253E+00
         11   -1    0    0    0    0  0.00000000000E+00  0.00000000000E+00  0.99949974644E+03  0.99949974644E+03  0.51100000000E-03 0. -1.
          2   -1    0    0  501    0 -0.00000000000E+00 -0.00000000000E+00 -0.82832179097E+02  0.82832179136E+02  0.25500000000E-02 0. -1.
         11    1    1    2    0    0 -0.19178939556E+03  0.19453342145E+03  0.46823673357E+03  0.54209967992E+03  0.51100000000E-03 0. -1.
         22    1    1    2    0    0 -0.86294644195E+00  0.14819720340E+02  0.38351855068E+02  0.41124610329E+02  0.00000000000E+00 0.  1.
          2    1    1    2  501    0  0.19265234200E+03 -0.20935314179E+03  0.41007897871E+03  0.49910763532E+03  0.25500000000E-02 0. -1.
<mgrwt>
<rscale>  0 0.28450600E+03</rscale>
<asrwt>0</asrwt>
<pdfrwt beam="1">  1       11 0.10000000E+01 0.28899580E+03</pdfrwt>
<pdfrwt beam="2">  1        2 0.12737037E-01 0.28450600E+03</pdfrwt>
<totfact> 0.58613903E+02</totfact>
</mgrwt>
</event>
<event>
 5    1  0.2804411E-003  0.5058941E+02  0.7818608E-02  0.1448564E+00
         11   -1    0    0    0    0  0.00000000000E+00  0.00000000000E+00  0.10001480570E+04  0.10001480570E+04  0.51100000000E-03 0. -1.
          2   -1    0    0  501    0 -0.00000000000E+00 -0.00000000000E+00 -0.36173837342E+01  0.36173846330E+01  0.25500000000E-02 0. -1.
         11    1    1    2    0    0  0.11880953031E+02  0.28420962354E+02  0.13506986635E+03  0.13853799819E+03  0.51100000000E-03 0. -1.
         22    1    1    2    0    0 -0.94428279943E+00  0.19760753388E+02  0.88275278347E+02  0.90464931392E+02  0.00000000000E+00 0. -1.
          2    1    1    2  501    0 -0.10936670232E+02 -0.48181715742E+02  0.77318552857E+03  0.77476251206E+03  0.25500000000E-02 0. -1.
<mgrwt>
<rscale>  0 0.49407373E+02</rscale>
<asrwt>0</asrwt>
<pdfrwt beam="1">  1       11 0.10000000E+01 0.50589407E+02</pdfrwt>
<pdfrwt beam="2">  1        2 0.55660302E-03 0.49407373E+02</pdfrwt>
<totfact> 0.30289141E+04</totfact>
</mgrwt>
</event>
<event>
 5    1  0.2804411E-003  0.1344061E+03  0.7818608E-02  0.1623628E+00
         11   -1    0    0    0    0  0.00000000000E+00  0.00000000000E+00  0.10005118219E+04  0.10005118219E+04  0.51100000000E-03 0. -1.
          2   -1    0    0  501    0 -0.00000000000E+00 -0.00000000000E+00 -0.10239789463E+04  0.10239789463E+04  0.25500000000E-02 0. -1.
         11    1    1    2    0    0 -0.19115959930E+01  0.14908498256E+03  0.44760935521E+03  0.47178821636E+03  0.51100000000E-03 0. -1.
         22    1    1    2    0    0  0.15581184805E+02 -0.12486537886E+03  0.53329834941E+03  0.54794275763E+03  0.00000000000E+00 0. -1.
          2    1    1    2  501    0 -0.13669588812E+02 -0.24219603699E+02 -0.10043748290E+04  0.10047597942E+04  0.25500000000E-02 0. -1.
<mgrwt>
<rscale>  0 0.27810913E+02</rscale>
<asrwt>0</asrwt>
<pdfrwt beam="1">  1       11 0.10000000E+01 0.13440609E+03</pdfrwt>
<pdfrwt beam="2">  1        2 0.15761585E+00 0.27810913E+02</pdfrwt>
<totfact> 0.35793816E+01</totfact>
</mgrwt>
</event>
<event>
 5    1  0.2804411E-003  0.2096477E+03  0.7818608E-02  0.1141845E+00
         11   -1    0    0    0    0  0.00000000000E+00  0.00000000000E+00  0.10001513493E+04  0.10001513493E+04  0.51100000000E-03 0. -1.
          2   -1    0    0  501    0 -0.00000000000E+00 -0.00000000000E+00 -0.32290745540E+03  0.32290745541E+03  0.25500000000E-02 0. -1.
         11    1    1    2    0    0 -0.18638657305E+03 -0.99908371173E+02  0.90415248853E+03  0.92855444631E+03  0.51100000000E-03 0. -1.
         22    1    1    2    0    0 -0.43369635960E+01  0.12995150446E+02  0.47370127315E+02  0.49311379520E+02  0.00000000000E+00 0.  1.
          2    1    1    2  501    0  0.19072353664E+03  0.86913220727E+02 -0.27427872193E+03  0.34519297890E+03  0.25500000000E-02 0. -1.
<mgrwt>
<rscale>  0 0.20964770E+03</rscale>
<asrwt>0</asrwt>
<pdfrwt beam="1">  1       11 0.10000000E+01 0.13699751E+02</pdfrwt>
<pdfrwt beam="2">  1        2 0.49685587E-01 0.20964770E+03</pdfrwt>
<totfact> 0.12531074E+02</totfact>
</mgrwt>
</event>
<event>
 5    1  0.2804411E-003  0.3404267E+03  0.7818608E-02  0.1066614E+00
         11   -1    0    0    0    0  0.00000000000E+00  0.00000000000E+00  0.10004400920E+04  0.10004400920E+04  0.51100000000E-03 0. -1.
          2   -1    0    0  501    0 -0.00000000000E+00 -0.00000000000E+00 -0.51122265460E+03  0.51122265461E+03  0.25500000000E-02 0.  1.
         11    1    1    2    0    0  0.39433666573E+02  0.34122366559E+03  0.86234584162E+03  0.92823970750E+03  0.51100000000E-03 0. -1.
         22    1    1    2    0    0 -0.12769707474E+02 -0.20366042781E+01  0.43580891202E+02  0.45458852426E+02  0.00000000000E+00 0.  1.
          2    1    1    2  501    0 -0.26663959099E+02 -0.33918706131E+03 -0.41670929542E+03  0.53796418670E+03  0.25500000000E-02 0.  1.
<mgrwt>
<rscale>  0 0.34042667E+03</rscale>
<asrwt>0</asrwt>
<pdfrwt beam="1">  1       11 0.10000000E+01 0.12931094E+02</pdfrwt>
<pdfrwt beam="2">  1        2 0.78684250E-01 0.34042667E+03</pdfrwt>
<totfact> 0.75287845E+01</totfact>
</mgrwt>
</event>
<event>
 5    1  0.2804411E-003  0.1275158E+03  0.7818608E-02  0.1231189E+00
         11   -1    0    0    0    0  0.00000000000E+00  0.00000000000E+00  0.99990097884E+03  0.99990097884E+03  0.51100000000E-03 0. -1.
          2   -1    0    0  501    0 -0.00000000000E+00 -0.00000000000E+00 -0.20923286568E+02  0.20923286723E+02  0.25500000000E-02 0. -1.
         11    1    1    2    0    0 -0.57904296311E+02  0.12046747332E+03  0.57919319464E+03  0.59441574372E+03  0.51100000000E-03 0. -1.
         22    1    1    2    0    0 -0.11557224712E+02 -0.16965292110E+02  0.93575782536E+02  0.95800927222E+02  0.00000000000E+00 0.  1.
          2    1    1    2  501    0  0.69461521023E+02 -0.10350218121E+03  0.30620871509E+03  0.33060759462E+03  0.25500000000E-02 0. -1.
<mgrwt>
<rscale>  0 0.12751585E+03</rscale>
<asrwt>0</asrwt>
<pdfrwt beam="1">  1       11 0.10000000E+01 0.20527800E+02</pdfrwt>
<pdfrwt beam="2">  1        2 0.32186483E-02 0.12751585E+03</pdfrwt>
<totfact> 0.32624475E+03</totfact>
</mgrwt>
</event>
<event>
 5    1  0.2804411E-003  0.1112997E+03  0.7818608E-02  0.1258182E+00
         11   -1    0    0    0    0  0.00000000000E+00  0.00000000000E+00  0.99964781836E+03  0.99964781836E+03  0.51100000000E-03 0.  1.
          2   -1    0    0  501    0 -0.00000000000E+00 -0.00000000000E+00 -0.27787829237E+04  0.27787829237E+04  0.25500000000E-02 0.  1.
         11    1    1    2    0    0 -0.18038407622E+02  0.10544107224E+03 -0.17719425256E+02  0.10843053950E+03  0.51100000000E-03 0.  1.
         22    1    1    2    0    0  0.34137560768E+01 -0.21565227446E+03  0.94094824946E+03  0.96535028118E+03  0.00000000000E+00 0.  1.
          2    1    1    2  501    0  0.14624651545E+02  0.11021120222E+03 -0.27023639295E+04  0.27046499213E+04  0.25500000000E-02 0.  1.
<mgrwt>
<rscale>  0 0.11129967E+03</rscale>
<asrwt>0</asrwt>
<pdfrwt beam="1">  1       11 0.10000000E+01 0.10697291E+03</pdfrwt>
<pdfrwt beam="2">  1        2 0.42735449E+00 0.11129967E+03</pdfrwt>
<totfact> 0.39848837E+00</totfact>
</mgrwt>
</event>
<event>
 5    1  0.2804411E-003  0.1947809E+03  0.7818608E-02  0.1154219E+00
         11   -1    0    0    0    0  0.00000000000E+00  0.00000000000E+00  0.10000215653E+04  0.10000215653E+04  0.51100000000E-03 0.  1.
         -2   -1    0    0    0  501 -0.00000000000E+00 -0.00000000000E+00 -0.21496949729E+03  0.21496949730E+03  0.25500000000E-02 0.  1.
         11    1    1    2    0    0  0.21142261537E+02  0.59543282260E+02  0.71542949516E+02  0.95450465221E+02  0.51100000000E-03 0.  1.
         22    1    1    2    0    0 -0.70173072249E+02  0.13189026292E+03  0.86042501522E+03  0.87329863640E+03  0.00000000000E+00 0. -1.
         -2    1    1    2    0  501  0.49030810712E+02 -0.19143354518E+03 -0.14691589673E+03  0.24624196097E+03  0.25500000000E-02 0.  1.
<mgrwt>
<rscale>  0 0.19478094E+03</rscale>
<asrwt>0</asrwt>
<pdfrwt beam="1">  1       11 0.10000000E+01 0.63185423E+02</pdfrwt>
<pdfrwt beam="2">  1       -2 0.33072943E-01 0.19478094E+03</pdfrwt>
<totfact> 0.68685138E+01</totfact>
</mgrwt>
</event>
<event>
 5    1  0.2804411E-003  0.1973601E+03  0.7818608E-02  0.1158084E+00
         11   -1    0    0    0    0  0.00000000000E+00  0.00000000000E+00  0.99980233597E+03  0.99980233597E+03  0.51100000000E-03 0. -1.
          2   -1    0    0  501    0 -0.00000000000E+00 -0.00000000000E+00 -0.40673429524E+02  0.40673429604E+02  0.25500000000E-02 0. -1.
         11    1    1    2    0    0 -0.92712585851E+02 -0.58742653851E+02  0.36839105279E+03  0.38439340620E+03  0.51100000000E-03 0. -1.
         22    1    1    2    0    0 -0.87258539278E+02 -0.34657947741E+01  0.26207981088E+03  0.27624607089E+03  0.00000000000E+00 0. -1.
          2    1    1    2  501    0  0.17997112513E+03  0.62208448625E+02  0.32865804277E+03  0.37983628848E+03  0.25500000000E-02 0. -1.
<mgrwt>
<rscale>  0 0.19041927E+03</rscale>
<asrwt>0</asrwt>
<pdfrwt beam="1">  1       11 0.10000000E+01 0.19736010E+03</pdfrwt>
<pdfrwt beam="2">  1        2 0.62562137E-02 0.19041927E+03</pdfrwt>
<totfact> 0.14042817E+03</totfact>
</mgrwt>
</event>
<event>
 5    1  0.2804411E-003  0.2147565E+03  0.7818608E-02  0.1141316E+00
         11   -1    0    0    0    0  0.00000000000E+00  0.00000000000E+00  0.10003182685E+04  0.10003182685E+04  0.51100000000E-03 0.  1.
          2   -1    0    0  501    0 -0.00000000000E+00 -0.00000000000E+00 -0.64190337940E+02  0.64190337990E+02  0.25500000000E-02 0.  1.
         11    1    1    2    0    0  0.81707678846E+02  0.11590892004E+03  0.56840923281E+03  0.58583280761E+03  0.51100000000E-03 0.  1.
         22    1    1    2    0    0  0.25043445310E+02  0.65300536658E+02  0.19291108198E+03  0.20519751409E+03  0.00000000000E+00 0. -1.
          2    1    1    2  501    0 -0.10675112416E+03 -0.18120945669E+03  0.17480761573E+03  0.27347828475E+03  0.25500000000E-02 0.  1.
<mgrwt>
<rscale>  0 0.21031564E+03</rscale>
<asrwt>0</asrwt>
<pdfrwt beam="1">  1       11 0.10000000E+01 0.21475649E+03</pdfrwt>
<pdfrwt beam="2">  1        2 0.98785794E-02 0.21031564E+03</pdfrwt>
<totfact> 0.79058872E+02</totfact>
</mgrwt>
</event>
<event>
 5    1  0.2804411E-003  0.5932917E+02  0.7818608E-02  0.1416401E+00
         11   -1    0    0    0    0  0.00000000000E+00  0.00000000000E+00  0.99991891493E+03  0.99991891493E+03  0.51100000000E-03 0. -1.
          2   -1    0    0  501    0 -0.00000000000E+00 -0.00000000000E+00 -0.55834871743E+01  0.55834877566E+01  0.25500000000E-02 0. -1.
         11    1    1    2    0    0  0.18285865232E+02  0.23899503219E+02  0.72391556663E+02  0.78397044573E+02  0.51100000000E-03 0. -1.
         22    1    1    2    0    0  0.48802522482E+01  0.26852898041E+02  0.11336478375E+03  0.11660389869E+03  0.00000000000E+00 0.  1.
          2    1    1    2  501    0 -0.23166117480E+02 -0.50752401260E+02  0.80857908734E+03  0.81050145942E+03  0.25500000000E-02 0. -1.
<mgrwt>
<rscale>  0 0.55789562E+02</rscale>
<asrwt>0</asrwt>
<pdfrwt beam="1">  1       11 0.10000000E+01 0.59329165E+02</pdfrwt>
<pdfrwt beam="2">  1        2 0.85892840E-03 0.55789562E+02</pdfrwt>
<totfact> 0.17267688E+04</totfact>
</mgrwt>
</event>
<event>
 5    1  0.2804411E-003  0.8215354E+02  0.7818608E-02  0.1448166E+00
         11   -1    0    0    0    0  0.00000000000E+00  0.00000000000E+00  0.10002884837E+04  0.10002884837E+04  0.51100000000E-03 0. -1.
          2   -1    0    0  501    0 -0.00000000000E+00 -0.00000000000E+00 -0.18084548697E+02  0.18084548877E+02  0.25500000000E-02 0. -1.
         11    1    1    2    0    0  0.66330345781E+02 -0.84652486032E+02  0.21495538830E+03  0.24035718654E+03  0.51100000000E-03 0. -1.
         22    1    1    2    0    0 -0.16595815260E+02  0.24752678197E+02  0.65490673817E+02  0.71952376743E+02  0.00000000000E+00 0. -1.
          2    1    1    2  501    0 -0.49734530521E+02  0.59899807835E+02  0.70175787284E+03  0.70606346925E+03  0.25500000000E-02 0. -1.
<mgrwt>
<rscale>  0 0.49480091E+02</rscale>
<asrwt>0</asrwt>
<pdfrwt beam="1">  1       11 0.10000000E+01 0.82153544E+02</pdfrwt>
<pdfrwt beam="2">  1        2 0.27830408E-02 0.49480091E+02</pdfrwt>
<totfact> 0.35400876E+03</totfact>
</mgrwt>
</event>
<event>
 5    1  0.2804411E-003  0.1954228E+03  0.7818608E-02  0.1161192E+00
         11   -1    0    0    0    0  0.00000000000E+00  0.00000000000E+00  0.10003075955E+04  0.10003075955E+04  0.51100000000E-03 0.  1.
          2   -1    0    0  501    0 -0.00000000000E+00 -0.00000000000E+00 -0.37042070539E+02  0.37042070627E+02  0.25500000000E-02 0.  1.
         11    1    1    2    0    0 -0.11203421996E+03  0.10567077804E+03  0.31147251766E+03  0.34746670205E+03  0.51100000000E-03 0.  1.
         22    1    1    2    0    0 -0.38601326080E+02  0.51414913967E+01  0.12093386593E+03  0.12704919220E+03  0.00000000000E+00 0.  1.
          2    1    1    2  501    0  0.15063554604E+03 -0.11081226944E+03  0.53085914135E+03  0.56283377187E+03  0.25500000000E-02 0.  1.
<mgrwt>
<rscale>  0 0.18700381E+03</rscale>
<asrwt>0</asrwt>
<pdfrwt beam="1">  1       11 0.10000000E+01 0.19542276E+03</pdfrwt>
<pdfrwt beam="2">  1        2 0.57005328E-02 0.18700381E+03</pdfrwt>
<totfact> 0.15827663E+03</totfact>
</mgrwt>
</event>
<event>
 5    1  0.2804411E-003  0.2822797E+03  0.7818608E-02  0.1097667E+00
         11   -1    0    0    0    0  0.00000000000E+00  0.00000000000E+00  0.10001232770E+04  0.10001232770E+04  0.51100000000E-03 0. -1.
          2   -1    0    0  501    0 -0.00000000000E+00 -0.00000000000E+00 -0.26851738628E+03  0.26851738629E+03  0.25500000000E-02 0.  1.
         11    1    1    2    0    0  0.81800430432E+02  0.19183811283E+02  0.22309130614E+03  0.23838846429E+03  0.51100000000E-03 0. -1.
         22    1    1    2    0    0  0.19447928474E+03 -0.27620623492E+02  0.67809271422E+03  0.70597083517E+03  0.00000000000E+00 0. -1.
          2    1    1    2  501    0 -0.27627971517E+03  0.84368122093E+01 -0.16957812968E+03  0.32428136377E+03  0.25500000000E-02 0.  1.
<mgrwt>
<rscale>  0 0.27640850E+03</rscale>
<asrwt>0</asrwt>
<pdfrwt beam="1">  1       11 0.10000000E+01 0.28227973E+03</pdfrwt>
<pdfrwt beam="2">  1        2 0.41315459E-01 0.27640850E+03</pdfrwt>
<totfact> 0.15301494E+02</totfact>
</mgrwt>
</event>
<event>
 5    1  0.2804411E-003  0.1483385E+03  0.7818608E-02  0.1205420E+00
         11   -1    0    0    0    0  0.00000000000E+00  0.00000000000E+00  0.10000156630E+04  0.10000156630E+04  0.51100000000E-03 0. -1.
          2   -1    0    0  501    0 -0.00000000000E+00 -0.00000000000E+00 -0.23831610190E+02  0.23831610326E+02  0.25500000000E-02 0. -1.
         11    1    1    2    0    0  0.12669670446E+03  0.24057237518E+02  0.55085751597E+03  0.56575154308E+03  0.51100000000E-03 0. -1.
         22    1    1    2    0    0  0.14750021851E+02  0.12299014367E+02  0.95043423589E+02  0.96964329866E+02  0.00000000000E+00 0.  1.
          2    1    1    2  501    0 -0.14144672631E+03 -0.36356251885E+02  0.33028311327E+03  0.36113140040E+03  0.25500000000E-02 0. -1.
<mgrwt>
<rscale>  0 0.14604435E+03</rscale>
<asrwt>0</asrwt>
<pdfrwt beam="1">  1       11 0.10000000E+01 0.14833848E+03</pdfrwt>
<pdfrwt beam="2">  1        2 0.36664589E-02 0.14604435E+03</pdfrwt>
<totfact> 0.27775782E+03</totfact>
</mgrwt>
</event>
<event>
 5    1  0.2804411E-003  0.3885461E+03  0.7818608E-02  0.1047820E+00
         11   -1    0    0    0    0  0.00000000000E+00  0.00000000000E+00  0.10005210323E+04  0.10005210323E+04  0.51100000000E-03 0.  1.
          2   -1    0    0  501    0 -0.00000000000E+00 -0.00000000000E+00 -0.15139462989E+04  0.15139462989E+04  0.25500000000E-02 0.  1.
         11    1    1    2    0    0 -0.87506901101E+02 -0.61788449729E+02  0.28740091209E+03  0.30671575527E+03  0.51100000000E-03 0.  1.
         22    1    1    2    0    0 -0.22154651299E+03  0.29918582421E+03  0.62617985818E+03  0.72848900445E+03  0.00000000000E+00 0.  1.
          2    1    1    2  501    0  0.30905341409E+03 -0.23739737448E+03 -0.14270060369E+04  0.14792625715E+04  0.25500000000E-02 0.  1.
<mgrwt>
<rscale>  0 0.38854613E+03</rscale>
<asrwt>0</asrwt>
<pdfrwt beam="1">  1       11 0.10000000E+01 0.10712269E+03</pdfrwt>
<pdfrwt beam="2">  1        2 0.23303616E+00 0.38854613E+03</pdfrwt>
<totfact> 0.16359951E+01</totfact>
</mgrwt>
</event>
<event>
 5    1  0.2804411E-003  0.1662524E+03  0.7818608E-02  0.1183412E+00
         11   -1    0    0    0    0  0.00000000000E+00  0.00000000000E+00  0.10001607570E+04  0.10001607570E+04  0.51100000000E-03 0. -1.
          2   -1    0    0  501    0 -0.00000000000E+00 -0.00000000000E+00 -0.30014093420E+02  0.30014093529E+02  0.25500000000E-02 0. -1.
         11    1    1    2    0    0 -0.10168826445E+02 -0.15344702194E+03  0.57541060888E+03  0.59560621420E+03  0.51100000000E-03 0. -1.
         22    1    1    2    0    0 -0.49504350976E+01 -0.10629667020E+02  0.63948132321E+02  0.65014308086E+02  0.00000000000E+00 0.  1.
          2    1    1    2  501    0  0.15119261543E+02  0.16407668896E+03  0.33078792239E+03  0.36955432826E+03  0.25500000000E-02 0. -1.
<mgrwt>
<rscale>  0 0.16477182E+03</rscale>
<asrwt>0</asrwt>
<pdfrwt beam="1">  1       11 0.10000000E+01 0.16625244E+03</pdfrwt>
<pdfrwt beam="2">  1        2 0.46182950E-02 0.16477182E+03</pdfrwt>
<totfact> 0.20664398E+03</totfact>
</mgrwt>
</event>
<event>
 5    1  0.3499198E-003  0.2682965E+03  0.7818608E-02  0.1102790E+00
         11   -1    0    0    0    0  0.00000000000E+00  0.00000000000E+00  0.10001034930E+04  0.10001034930E+04  0.51100000000E-03 0. -1.
          2   -1    0    0  501    0 -0.00000000000E+00 -0.00000000000E+00 -0.39078737378E+03  0.39078737379E+03  0.25500000000E-02 0. -1.
         11    1    1    2    0    0 -0.23858867581E+03  0.94042515625E+02  0.89426561478E+03  0.93031152887E+03  0.51100000000E-03 0. -1.
         22    1    1    2    0    0 -0.84290949572E+01  0.82929265354E+01  0.38876249358E+02  0.40634776195E+02  0.00000000000E+00 0.  1.
          2    1    1    2  501    0  0.24701777077E+03 -0.10233544216E+03 -0.32382574495E+03  0.41994456169E+03  0.25500000000E-02 0. -1.
<mgrwt>
<rscale>  0 0.26737674E+03</rscale>
<asrwt>0</asrwt>
<pdfrwt beam="1">  1       11 0.10000000E+01 0.26829646E+03</pdfrwt>
<pdfrwt beam="2">  1        2 0.60127355E-01 0.26737674E+03</pdfrwt>
<totfact> 0.10184146E+02</totfact>
</mgrwt>
</event>
<event>
 5    1  0.3089265E-003  0.3110215E+03  0.7818608E-02  0.1082546E+00
         11   -1    0    0    0    0  0.00000000000E+00  0.00000000000E+00  0.99993990630E+03  0.99993990630E+03  0.51100000000E-03 0. -1.
          2   -1    0    0  501    0 -0.00000000000E+00 -0.00000000000E+00 -0.78088293707E+03  0.78088293708E+03  0.25500000000E-02 0. -1.
         11    1    1    2    0    0  0.25843836500E+02  0.27628015910E+03  0.78909396172E+03  0.83646154163E+03  0.51100000000E-03 0. -1.
         22    1    1    2    0    0  0.63289248226E+01  0.27473855200E+02  0.15503417131E+03  0.15757684565E+03  0.00000000000E+00 0.  1.
          2    1    1    2  501    0 -0.32172761322E+02 -0.30375401430E+03 -0.72507116381E+03  0.78678445610E+03  0.25500000000E-02 0. -1.
<mgrwt>
<rscale>  0 0.30545309E+03</rscale>
<asrwt>0</asrwt>
<pdfrwt beam="1">  1       11 0.10000000E+01 0.31102152E+03</pdfrwt>
<pdfrwt beam="2">  1        2 0.12012861E+00 0.30545309E+03</pdfrwt>
<totfact> 0.45520204E+01</totfact>
</mgrwt>
</event>
<event>
 5    1  0.2804411E-003  0.1076284E+03  0.7818608E-02  0.1265026E+00
         11   -1    0    0    0    0  0.00000000000E+00  0.00000000000E+00  0.10000033565E+04  0.10000033565E+04  0.51100000000E-03 0. -1.
          2   -1    0    0  501    0 -0.00000000000E+00 -0.00000000000E+00 -0.15292214937E+02  0.15292215149E+02  0.25500000000E-02 0. -1.
         11    1    1    2    0    0 -0.18231730889E+02  0.16552901234E+02  0.69384640154E+02  0.73624879219E+02  0.51100000000E-03 0. -1.
         22    1    1    2    0    0 -0.97773091651E+02 -0.30045868817E+02  0.36322275339E+03  0.37735010304E+03  0.00000000000E+00 0. -1.
          2    1    1    2  501    0  0.11600482254E+03  0.13492967583E+02  0.55210374800E+03  0.56432058937E+03  0.25500000000E-02 0. -1.
<mgrwt>
<rscale>  0 0.10762841E+03</rscale>
<asrwt>0</asrwt>
<pdfrwt beam="1">  1       11 0.10000000E+01 0.24625092E+02</pdfrwt>
<pdfrwt beam="2">  1        2 0.23526563E-02 0.10762841E+03</pdfrwt>
<totfact> 0.48790729E+03</totfact>
</mgrwt>
</event>
<event>
 5    1  0.2804411E-003  0.5992248E+02  0.7818608E-02  0.1416612E+00
         11   -1    0    0    0    0  0.00000000000E+00  0.00000000000E+00  0.99985266995E+03  0.99985266995E+03  0.51100000000E-03 0. -1.
          2   -1    0    0  501    0 -0.00000000000E+00 -0.00000000000E+00 -0.51498398849E+01  0.51498405163E+01  0.25500000000E-02 0. -1.
         11    1    1    2    0    0  0.16838892925E+02  0.25149043136E+02  0.79418974813E+02  0.84990565630E+02  0.51100000000E-03 0. -1.
         22    1    1    2    0    0  0.23718979399E+02  0.13093247640E+02  0.13226292595E+03  0.13500927634E+03  0.00000000000E+00 0. -1.
          2    1    1    2  501    0 -0.40557872324E+02 -0.38242290776E+02  0.78302092930E+03  0.78500266849E+03  0.25500000000E-02 0. -1.
<mgrwt>
<rscale>  0 0.55744182E+02</rscale>
<asrwt>0</asrwt>
<pdfrwt beam="1">  1       11 0.10000000E+01 0.59922478E+02</pdfrwt>
<pdfrwt beam="2">  1        2 0.79216636E-03 0.55744182E+02</pdfrwt>
<totfact> 0.19259761E+04</totfact>
</mgrwt>
</event>
<event>
 5    1  0.2804411E-003  0.4680185E+02  0.7818608E-02  0.1548190E+00
         11   -1    0    0    0    0  0.00000000000E+00  0.00000000000E+00  0.10001424955E+04  0.10001424955E+04  0.51100000000E-03 0. -1.
          2   -1    0    0  501    0 -0.00000000000E+00 -0.00000000000E+00 -0.49366817552E+02  0.49366817618E+02  0.25500000000E-02 0. -1.
         11    1    1    2    0    0 -0.30943214379E+02  0.44500893401E+02 -0.25993625577E+02  0.60112233368E+02  0.51100000000E-03 0. -1.
         22    1    1    2    0    0 -0.11027729150E+02 -0.23814006207E+02  0.24259113479E+02  0.35738246860E+02  0.00000000000E+00 0.  1.
          2    1    1    2  501    0  0.41970943529E+02 -0.20686887194E+02  0.95251019006E+03  0.95365883291E+03  0.25500000000E-02 0. -1.
<mgrwt>
<rscale>  0 0.35046264E+02</rscale>
<asrwt>0</asrwt>
<pdfrwt beam="1">  1       11 0.10000000E+01 0.46801852E+02</pdfrwt>
<pdfrwt beam="2">  1        2 0.75959770E-02 0.35046264E+02</pdfrwt>
<totfact> 0.96045544E+02</totfact>
</mgrwt>
</event>
<event>
 5    1  0.2804411E-003  0.7186043E+02  0.7818608E-02  0.1357598E+00
         11   -1    0    0    0    0  0.00000000000E+00  0.00000000000E+00  0.10001545864E+04  0.10001545864E+04  0.51100000000E-03 0. -1.
          2   -1    0    0  501    0 -0.00000000000E+00 -0.00000000000E+00 -0.12440924418E+02  0.12440924680E+02  0.25500000000E-02 0. -1.
         11    1    1    2    0    0 -0.11690411817E+02  0.50612006691E+02  0.67638198909E+02  0.85282864056E+02  0.51100000000E-03 0. -1.
         22    1    1    2    0    0 -0.17430125788E+01  0.18839672250E+02  0.38441275825E+02  0.42845105093E+02  0.00000000000E+00 0.  1.
          2    1    1    2  501    0  0.13433424396E+02 -0.69451678941E+02  0.88163418721E+03  0.88446754190E+03  0.25500000000E-02 0. -1.
<mgrwt>
<rscale>  0 0.70738904E+02</rscale>
<asrwt>0</asrwt>
<pdfrwt beam="1">  1       11 0.10000000E+01 0.71860431E+02</pdfrwt>
<pdfrwt beam="2">  1        2 0.19142842E-02 0.70738904E+02</pdfrwt>
<totfact> 0.60994894E+03</totfact>
</mgrwt>
</event>
<event>
 5    1  0.2804411E-003  0.1711070E+03  0.7818608E-02  0.1180160E+00
         11   -1    0    0    0    0  0.00000000000E+00  0.00000000000E+00  0.10001103735E+04  0.10001103735E+04  0.51100000000E-03 0. -1.
          2   -1    0    0  501    0 -0.00000000000E+00 -0.00000000000E+00 -0.29051214132E+02  0.29051214244E+02  0.25500000000E-02 0. -1.
         11    1    1    2    0    0 -0.22305647100E+02 -0.15438531265E+03  0.48727695170E+03  0.51163580242E+03  0.51100000000E-03 0. -1.
         22    1    1    2    0    0 -0.10734947102E+02 -0.10131116523E+02  0.58569674201E+02  0.60401037634E+02  0.00000000000E+00 0.  1.
          2    1    1    2  501    0  0.33040594202E+02  0.16451642917E+03  0.42521253349E+03  0.45712474772E+03  0.25500000000E-02 0. -1.
<mgrwt>
<rscale>  0 0.16780148E+03</rscale>
<asrwt>0</asrwt>
<pdfrwt beam="1">  1       11 0.10000000E+01 0.17110701E+03</pdfrwt>
<pdfrwt beam="2">  1        2 0.44699107E-02 0.16780148E+03</pdfrwt>
<totfact> 0.21607635E+03</totfact>
</mgrwt>
</event>
<event>
 5    1  0.2804411E-003  0.4319858E+02  0.7818608E-02  0.1485911E+00
         11   -1    0    0    0    0  0.00000000000E+00  0.00000000000E+00  0.10001672520E+04  0.10001672520E+04  0.51100000000E-03 0.  1.
         -2   -1    0    0    0  501 -0.00000000000E+00 -0.00000000000E+00 -0.10877259825E+02  0.10877260124E+02  0.25500000000E-02 0.  1.
         11    1    1    2    0    0  0.32919000331E+02 -0.19259022694E+01  0.12764326338E+03  0.13183388172E+03  0.51100000000E-03 0.  1.
         22    1    1    2    0    0  0.39171561520E+02  0.12444215742E+02  0.51948076292E+02  0.66241017261E+02  0.00000000000E+00 0.  1.
         -2    1    1    2    0  501 -0.72090561851E+02 -0.10518313473E+02  0.80969865251E+03  0.81296961316E+03  0.25500000000E-02 0.  1.
<mgrwt>
<rscale>  0 0.43198584E+02</rscale>
<asrwt>0</asrwt>
<pdfrwt beam="1">  1       11 0.10000000E+01 0.32975305E+02</pdfrwt>
<pdfrwt beam="2">  1       -2 0.16737044E-02 0.43198584E+02</pdfrwt>
<totfact> 0.62275721E+03</totfact>
</mgrwt>
</event>
<event>
 5    1  0.2804411E-003  0.1033857E+03  0.7818608E-02  0.1273333E+00
         11   -1    0    0    0    0  0.00000000000E+00  0.00000000000E+00  0.10003182539E+04  0.10003182539E+04  0.51100000000E-03 0.  1.
          2   -1    0    0  501    0 -0.00000000000E+00 -0.00000000000E+00 -0.10754742294E+02  0.10754742597E+02  0.25500000000E-02 0.  1.
         11    1    1    2    0    0 -0.97595848346E+02  0.23983996226E+02  0.58123365042E+03  0.58985823557E+03  0.51100000000E-03 0.  1.
         22    1    1    2    0    0  0.76336436019E+01 -0.95479549482E+01  0.52604197288E+02  0.54005902739E+02  0.00000000000E+00 0.  1.
          2    1    1    2  501    0  0.89962204744E+02 -0.14436041277E+02  0.35572566393E+03  0.36720885822E+03  0.25500000000E-02 0.  1.
<mgrwt>
<rscale>  0 0.10338568E+03</rscale>
<asrwt>0</asrwt>
<pdfrwt beam="1">  1       11 0.10000000E+01 0.10049966E+03</pdfrwt>
<pdfrwt beam="2">  1        2 0.16551023E-02 0.10338568E+03</pdfrwt>
<totfact> 0.78177079E+03</totfact>
</mgrwt>
</event>
<event>
 5    1  0.2804411E-003  0.8683396E+02  0.7818608E-02  0.1310705E+00
         11   -1    0    0    0    0  0.00000000000E+00  0.00000000000E+00  0.10000273052E+04  0.10000273052E+04  0.51100000000E-03 0. -1.
          2   -1    0    0  501    0 -0.00000000000E+00 -0.00000000000E+00 -0.40672327827E+03  0.40672327828E+03  0.25500000000E-02 0. -1.
         11    1    1    2    0    0  0.36243425362E+02 -0.62868274378E+02  0.22934074870E+03  0.24054767681E+03  0.51100000000E-03 0. -1.
         22    1    1    2    0    0 -0.12184801631E+03  0.49309208700E+02  0.75465277234E+03  0.76601510686E+03  0.00000000000E+00 0. -1.
          2    1    1    2  501    0  0.85604590947E+02  0.13559065678E+02 -0.39068949414E+03  0.40018779977E+03  0.25500000000E-02 0. -1.
<mgrwt>
<rscale>  0 0.86833958E+02</rscale>
<asrwt>0</asrwt>
<pdfrwt beam="1">  1       11 0.10000000E+01 0.72567250E+02</pdfrwt>
<pdfrwt beam="2">  1        2 0.62574519E-01 0.86833958E+02</pdfrwt>
<totfact> 0.98246169E+01</totfact>
</mgrwt>
</event>
<event>
 5    1  0.2804411E-003  0.2062981E+03  0.7818608E-02  0.1228250E+00
         11   -1    0    0    0    0  0.00000000000E+00  0.00000000000E+00  0.10001873466E+04  0.10001873466E+04  0.51100000000E-03 0.  1.
          2   -1    0    0  501    0 -0.00000000000E+00 -0.00000000000E+00 -0.13195960051E+03  0.13195960053E+03  0.25500000000E-02 0.  1.
         11    1    1    2    0    0 -0.15385012191E+03 -0.54177195079E+02  0.33340190748E+03  0.37116284888E+03  0.51100000000E-03 0.  1.
         22    1    1    2    0    0  0.28328748777E+03  0.51444058763E+02  0.55945458929E+03  0.62919609772E+03  0.00000000000E+00 0.  1.
          2    1    1    2  501    0 -0.12943736586E+03  0.27331363157E+01 -0.24628750683E+02  0.13178800053E+03  0.25500000000E-02 0.  1.
<mgrwt>
<rscale>  0 0.12946622E+03</rscale>
<asrwt>0</asrwt>
<pdfrwt beam="1">  1       11 0.10000000E+01 0.20629812E+03</pdfrwt>
<pdfrwt beam="2">  1        2 0.20305280E-01 0.12946622E+03</pdfrwt>
<totfact> 0.32977312E+02</totfact>
</mgrwt>
</event>
<event>
 5    1  0.2804411E-003  0.1171853E+03  0.7818608E-02  0.1253981E+00
         11   -1    0    0    0    0  0.00000000000E+00  0.00000000000E+00  0.10002364795E+04  0.10002364795E+04  0.51100000000E-03 0.  1.
          2   -1    0    0  501    0 -0.00000000000E+00 -0.00000000000E+00 -0.14960044313E+02  0.14960044530E+02  0.25500000000E-02 0.  1.
         11    1    1    2    0    0  0.17428282911E+02  0.14585431780E+02  0.10504150413E+03  0.10747184495E+03  0.51100000000E-03 0.  1.
         22    1    1    2    0    0  0.78943470417E+02  0.45627805634E+02  0.22611034806E+03  0.24380290743E+03  0.00000000000E+00 0.  1.
          2    1    1    2  501    0 -0.96371753329E+02 -0.60213237414E+02  0.65412458299E+03  0.66392177165E+03  0.25500000000E-02 0.  1.
<mgrwt>
<rscale>  0 0.11363604E+03</rscale>
<asrwt>0</asrwt>
<pdfrwt beam="1">  1       11 0.10000000E+01 0.11718533E+03</pdfrwt>
<pdfrwt beam="2">  1        2 0.23020895E-02 0.11363604E+03</pdfrwt>
<totfact> 0.50563274E+03</totfact>
</mgrwt>
</event>
<event>
 5    1  0.2804411E-003  0.1820609E+03  0.7818608E-02  0.1175708E+00
         11   -1    0    0    0    0  0.00000000000E+00  0.00000000000E+00  0.10002692683E+04  0.10002692683E+04  0.51100000000E-03 0. -1.
         -2   -1    0    0    0  501 -0.00000000000E+00 -0.00000000000E+00 -0.44790993956E+02  0.44790994029E+02  0.25500000000E-02 0. -1.
         11    1    1    2    0    0 -0.46022421436E+02  0.14704920193E+03  0.65980474960E+03  0.67755725858E+03  0.51100000000E-03 0. -1.
         22    1    1    2    0    0 -0.26455400798E+02  0.90100376647E+01  0.11359858666E+03  0.11698593036E+03  0.00000000000E+00 0. -1.
         -2    1    1    2    0  501  0.72477822234E+02 -0.15605923959E+03  0.18207493811E+03  0.25051707342E+03  0.25500000000E-02 0. -1.
<mgrwt>
<rscale>  0 0.17206836E+03</rscale>
<asrwt>0</asrwt>
<pdfrwt beam="1">  1       11 0.10000000E+01 0.18206086E+03</pdfrwt>
<pdfrwt beam="2">  1       -2 0.68927775E-02 0.17206836E+03</pdfrwt>
<totfact> 0.92419224E+02</totfact>
</mgrwt>
</event>
<event>
 5    1  0.2804411E-003  0.6600505E+03  0.7818608E-02  0.9792699E-01
         11   -1    0    0    0    0  0.00000000000E+00  0.00000000000E+00  0.10003649632E+04  0.10003649632E+04  0.51100000000E-03 0.  1.
          2   -1    0    0  501    0 -0.00000000000E+00 -0.00000000000E+00 -0.43528678451E+03  0.43528678451E+03  0.25500000000E-02 0.  1.
         11    1    1    2    0    0  0.19283760721E+03 -0.60931258198E+03  0.23066997573E+03  0.67945331188E+03  0.51100000000E-03 0.  1.
         22    1    1    2    0    0 -0.34084530082E+01 -0.20369243995E+02  0.11373172238E+02  0.23576952721E+02  0.00000000000E+00 0. -1.
          2    1    1    2  501    0 -0.18942915421E+03  0.62968182598E+03  0.32303503070E+03  0.73262148310E+03  0.25500000000E-02 0.  1.
<mgrwt>
<rscale>  0 0.65755806E+03</rscale>
<asrwt>0</asrwt>
<pdfrwt beam="1">  1       11 0.10000000E+01 0.66005050E+03</pdfrwt>
<pdfrwt beam="2">  1        2 0.66991636E-01 0.65755806E+03</pdfrwt>
<totfact> 0.89492562E+01</totfact>
</mgrwt>
</event>
<event>
 5    1  0.2804411E-003  0.2931710E+03  0.7818608E-02  0.1094670E+00
         11   -1    0    0    0    0  0.00000000000E+00  0.00000000000E+00  0.10006488616E+04  0.10006488616E+04  0.51100000000E-03 0. -1.
          2   -1    0    0  501    0 -0.00000000000E+00 -0.00000000000E+00 -0.84664295050E+02  0.84664295088E+02  0.25500000000E-02 0. -1.
         11    1    1    2    0    0  0.15066347659E+03 -0.67310786434E+02  0.15663771582E+03  0.22752054669E+03  0.51100000000E-03 0. -1.
         22    1    1    2    0    0  0.10238141734E+03 -0.56869562727E+02  0.22573155675E+03  0.25430461556E+03  0.00000000000E+00 0. -1.
          2    1    1    2  501    0 -0.25304489393E+03  0.12418034916E+03  0.53361529402E+03  0.60348799448E+03  0.25500000000E-02 0. -1.
<mgrwt>
<rscale>  0 0.28187316E+03</rscale>
<asrwt>0</asrwt>
<pdfrwt beam="1">  1       11 0.10000000E+01 0.29317098E+03</pdfrwt>
<pdfrwt beam="2">  1        2 0.13033727E-01 0.28187316E+03</pdfrwt>
<totfact> 0.56975381E+02</totfact>
</mgrwt>
</event>
<event>
 5    1  0.2804411E-003  0.1304332E+03  0.7818608E-02  0.1228897E+00
         11   -1    0    0    0    0  0.00000000000E+00  0.00000000000E+00  0.10005197711E+04  0.10005197711E+04  0.51100000000E-03 0.  1.
          2   -1    0    0  501    0 -0.00000000000E+00 -0.00000000000E+00 -0.16857810882E+02  0.16857811075E+02  0.25500000000E-02 0.  1.
         11    1    1    2    0    0  0.94219486254E+02 -0.69143593859E+02  0.40125301168E+03  0.41792598333E+03  0.51100000000E-03 0.  1.
         22    1    1    2    0    0  0.98727007380E+01 -0.71089139103E+01  0.69779584511E+02  0.70832176949E+02  0.00000000000E+00 0.  1.
          2    1    1    2  501    0 -0.10409218699E+03  0.76252507769E+02  0.51262936401E+03  0.52861942188E+03  0.25500000000E-02 0.  1.
<mgrwt>
<rscale>  0 0.12903344E+03</rscale>
<asrwt>0</asrwt>
<pdfrwt beam="1">  1       11 0.10000000E+01 0.13043325E+03</pdfrwt>
<pdfrwt beam="2">  1        2 0.25948573E-02 0.12903344E+03</pdfrwt>
<totfact> 0.43634461E+03</totfact>
</mgrwt>
</event>
<event>
 5    1  0.2804411E-003  0.6702690E+03  0.7818608E-02  0.9769472E-01
         11   -1    0    0    0    0  0.00000000000E+00  0.00000000000E+00  0.10004412835E+04  0.10004412835E+04  0.51100000000E-03 0. -1.
          2   -1    0    0  501    0 -0.00000000000E+00 -0.00000000000E+00 -0.10469946644E+04  0.10469946644E+04  0.25500000000E-02 0.  1.
         11    1    1    2    0    0  0.64408820572E+03 -0.16201153189E+03  0.57251456492E+03  0.87685248489E+03  0.51100000000E-03 0. -1.
         22    1    1    2    0    0  0.16176289747E+02  0.39512055394E+02  0.14628530179E+03  0.15238853103E+03  0.00000000000E+00 0. -1.
          2    1    1    2  501    0 -0.66026449547E+03  0.12249947650E+03 -0.76535324760E+03  0.10181949319E+04  0.25500000000E-02 0.  1.
<mgrwt>
<rscale>  0 0.67026898E+03</rscale>
<asrwt>0</asrwt>
<pdfrwt beam="1">  1       11 0.10000000E+01 0.42695139E+02</pdfrwt>
<pdfrwt beam="2">  1        2 0.16114718E+00 0.67026898E+03</pdfrwt>
<totfact> 0.29395538E+01</totfact>
</mgrwt>
</event>
<event>
 5    1  0.2804411E-003  0.9134495E+03  0.7818608E-02  0.9511806E-01
         11   -1    0    0    0    0  0.00000000000E+00  0.00000000000E+00  0.10001714897E+04  0.10001714897E+04  0.51100000000E-03 0. -1.
          2   -1    0    0  501    0 -0.00000000000E+00 -0.00000000000E+00 -0.18522593366E+04  0.18522593366E+04  0.25500000000E-02 0. -1.
         11    1    1    2    0    0  0.63563462218E+03 -0.30004734755E+02  0.43876634473E+03  0.77294732181E+03  0.51100000000E-03 0. -1.
         22    1    1    2    0    0  0.17872002536E+03  0.21083494192E+03  0.22025057218E+03  0.35341552703E+03  0.00000000000E+00 0. -1.
          2    1    1    2  501    0 -0.81435464755E+03 -0.18083020716E+03 -0.15111047637E+04  0.17260679775E+04  0.25500000000E-02 0. -1.
<mgrwt>
<rscale>  0 0.83419006E+03</rscale>
<asrwt>0</asrwt>
<pdfrwt beam="1">  1       11 0.10000000E+01 0.91344949E+03</pdfrwt>
<pdfrwt beam="2">  1        2 0.28501183E+00 0.83419006E+03</pdfrwt>
<totfact> 0.10100498E+01</totfact>
</mgrwt>
</event>
<event>
 5    1  0.2804411E-003  0.3101211E+03  0.7818608E-02  0.1086078E+00
         11   -1    0    0    0    0  0.00000000000E+00  0.00000000000E+00  0.99983930467E+03  0.99983930467E+03  0.51100000000E-03 0. -1.
          2   -1    0    0  501    0 -0.00000000000E+00 -0.00000000000E+00 -0.44154136454E+03  0.44154136455E+03  0.25500000000E-02 0. -1.
         11    1    1    2    0    0  0.23019147347E+03  0.13974666025E+03  0.73199223021E+03  0.77995504267E+03  0.51100000000E-03 0. -1.
         22    1    1    2    0    0  0.32931191004E+02  0.85087032996E+00  0.18897182489E+03  0.19182163049E+03  0.00000000000E+00 0. -1.
          2    1    1    2  501    0 -0.26312266448E+03 -0.14059753058E+03 -0.36266611496E+03  0.46960399606E+03  0.25500000000E-02 0. -1.
<mgrwt>
<rscale>  0 0.29833069E+03</rscale>
<asrwt>0</asrwt>
<pdfrwt beam="1">  1       11 0.10000000E+01 0.31012112E+03</pdfrwt>
<pdfrwt beam="2">  1        2 0.67918523E-01 0.29833069E+03</pdfrwt>
<totfact> 0.88980366E+01</totfact>
</mgrwt>
</event>
<event>
 5    1  0.2804411E-003  0.2908538E+03  0.7818608E-02  0.1132151E+00
         11   -1    0    0    0    0  0.00000000000E+00  0.00000000000E+00  0.10003806961E+04  0.10003806961E+04  0.51100000000E-03 0. -1.
          2   -1    0    0  501    0 -0.00000000000E+00 -0.00000000000E+00 -0.15568518091E+03  0.15568518093E+03  0.25500000000E-02 0. -1.
         11    1    1    2    0    0 -0.87985415222E+02 -0.22023768659E+03  0.16353843204E+03  0.28808139586E+03  0.51100000000E-03 0. -1.
         22    1    1    2    0    0  0.11597189567E+03 -0.12425100476E+03  0.11688742235E+03  0.20627763396E+03  0.00000000000E+00 0. -1.
          2    1    1    2  501    0 -0.27986480444E+02  0.34448869135E+03  0.56426966084E+03  0.66170684726E+03  0.25500000000E-02 0. -1.
<mgrwt>
<rscale>  0 0.22233911E+03</rscale>
<asrwt>0</asrwt>
<pdfrwt beam="1">  1       11 0.10000000E+01 0.29085381E+03</pdfrwt>
<pdfrwt beam="2">  1        2 0.23960684E-01 0.22233911E+03</pdfrwt>
<totfact> 0.27782200E+02</totfact>
</mgrwt>
</event>
<event>
 5    1  0.2804411E-003  0.1289818E+03  0.7818608E-02  0.1233497E+00
         11   -1    0    0    0    0  0.00000000000E+00  0.00000000000E+00  0.10006275614E+04  0.10006275614E+04  0.51100000000E-03 0. -1.
          2   -1    0    0  501    0 -0.00000000000E+00 -0.00000000000E+00 -0.19760371172E+02  0.19760371336E+02  0.25500000000E-02 0. -1.
         11    1    1    2    0    0 -0.63705464620E+02  0.26549329986E+02  0.16013079074E+03  0.17437064916E+03  0.51100000000E-03 0. -1.
         22    1    1    2    0    0 -0.59681662609E+02 -0.96496294434E+00  0.11982742321E+03  0.13387099521E+03  0.00000000000E+00 0. -1.
          2    1    1    2  501    0  0.12338712723E+03 -0.25584367041E+02  0.70090897631E+03  0.71214628840E+03  0.25500000000E-02 0. -1.
<mgrwt>
<rscale>  0 0.12601168E+03</rscale>
<asrwt>0</asrwt>
<pdfrwt beam="1">  1       11 0.10000000E+01 0.12898182E+03</pdfrwt>
<pdfrwt beam="2">  1        2 0.30419649E-02 0.12601168E+03</pdfrwt>
<totfact> 0.35143330E+03</totfact>
</mgrwt>
</event>
<event>
 5    1  0.2804411E-003  0.1267318E+03  0.7818608E-02  0.1448127E+00
         11   -1    0    0    0    0  0.00000000000E+00  0.00000000000E+00  0.10000741082E+04  0.10000741082E+04  0.51100000000E-03 0.  1.
          2   -1    0    0  501    0 -0.00000000000E+00 -0.00000000000E+00 -0.25019925527E+02  0.25019925657E+02  0.25500000000E-02 0.  1.
         11    1    1    2    0    0 -0.94735988426E+02 -0.79045245081E+02  0.67228534367E+03  0.68351345385E+03  0.51100000000E-03 0.  1.
         22    1    1    2    0    0 -0.19044136424E+02  0.32780284188E+01  0.21862416818E+02  0.29178585839E+02  0.00000000000E+00 0. -1.
          2    1    1    2  501    0  0.11378012485E+03  0.75767216662E+02  0.28090642219E+03  0.31240199418E+03  0.25500000000E-02 0.  1.
<mgrwt>
<rscale>  0 0.49487277E+02</rscale>
<asrwt>0</asrwt>
<pdfrwt beam="1">  1       11 0.10000000E+01 0.12673182E+03</pdfrwt>
<pdfrwt beam="2">  1        2 0.38495045E-02 0.49487277E+02</pdfrwt>
<totfact> 0.23258906E+03</totfact>
</mgrwt>
</event>
<event>
 5    1  0.6644936E-003  0.2476606E+03  0.7818608E-02  0.1115525E+00
         11   -1    0    0    0    0  0.00000000000E+00  0.00000000000E+00  0.10001381893E+04  0.10001381893E+04  0.51100000000E-03 0.  1.
          2   -1    0    0  501    0 -0.00000000000E+00 -0.00000000000E+00 -0.46216209838E+03  0.46216209839E+03  0.25500000000E-02 0. -1.
         11    1    1    2    0    0 -0.23499849730E+03  0.25834583141E+02  0.89025571891E+03  0.92111180889E+03  0.51100000000E-03 0.  1.
         22    1    1    2    0    0 -0.97780329394E+01  0.34190141280E+01  0.59967886243E+02  0.60855952594E+02  0.00000000000E+00 0. -1.
          2    1    1    2  501    0  0.24477653024E+03 -0.29253597269E+02 -0.41224751425E+03  0.48033252619E+03  0.25500000000E-02 0. -1.
<mgrwt>
<rscale>  0 0.24651840E+03</rscale>
<asrwt>0</asrwt>
<pdfrwt beam="1">  1       11 0.10000000E+01 0.24766062E+03</pdfrwt>
<pdfrwt beam="2">  1        2 0.71111685E-01 0.24651840E+03</pdfrwt>
<totfact> 0.84761334E+01</totfact>
</mgrwt>
</event>
<event>
 5    1  0.2804411E-003  0.1569641E+03  0.7818608E-02  0.1192168E+00
         11   -1    0    0    0    0  0.00000000000E+00  0.00000000000E+00  0.99993004956E+03  0.99993004956E+03  0.51100000000E-03 0. -1.
          2   -1    0    0  501    0 -0.00000000000E+00 -0.00000000000E+00 -0.73224458911E+02  0.73224458955E+02  0.25500000000E-02 0. -1.
         11    1    1    2    0    0 -0.21771120520E+02  0.87936144391E+01  0.70276754436E+02  0.74095421977E+02  0.51100000000E-03 0. -1.
         22    1    1    2    0    0 -0.38623321332E+02 -0.15368227643E+03  0.82358121813E+03  0.83868708461E+03  0.00000000000E+00 0. -1.
          2    1    1    2  501    0  0.60394441853E+02  0.14488866199E+03  0.32847618080E+02  0.16037200192E+03  0.25500000000E-02 0. -1.
<mgrwt>
<rscale>  0 0.15696406E+03</rscale>
<asrwt>0</asrwt>
<pdfrwt beam="1">  1       11 0.10000000E+01 0.23479978E+02</pdfrwt>
<pdfrwt beam="2">  1        2 0.11264513E-01 0.15696406E+03</pdfrwt>
<totfact> 0.66285778E+02</totfact>
</mgrwt>
</event>
<event>
 5    1  0.2804411E-003  0.2291721E+03  0.7818608E-02  0.1248650E+00
         11   -1    0    0    0    0  0.00000000000E+00  0.00000000000E+00  0.10000632867E+04  0.10000632867E+04  0.51100000000E-03 0. -1.
          2   -1    0    0  501    0 -0.00000000000E+00 -0.00000000000E+00 -0.20191391835E+04  0.20191391835E+04  0.25500000000E-02 0. -1.
         11    1    1    2    0    0  0.31275702108E+02 -0.25289813499E+03  0.73560526289E+03  0.77849260692E+03  0.51100000000E-03 0. -1.
         22    1    1    2    0    0  0.63758136593E+02  0.18517466736E+03  0.20153390766E+03  0.28101721184E+03  0.00000000000E+00 0. -1.
          2    1    1    2  501    0 -0.95033838701E+02  0.67723467627E+02 -0.19562150673E+04  0.19596926514E+04  0.25500000000E-02 0. -1.
<mgrwt>
<rscale>  0 0.11669575E+03</rscale>
<asrwt>0</asrwt>
<pdfrwt beam="1">  1       11 0.10000000E+01 0.22917215E+03</pdfrwt>
<pdfrwt beam="2">  1        2 0.31065645E+00 0.11669575E+03</pdfrwt>
<totfact> 0.99244785E+00</totfact>
</mgrwt>
</event>
<event>
 5    1  0.2804411E-003  0.1550485E+03  0.7818608E-02  0.1194403E+00
         11   -1    0    0    0    0  0.00000000000E+00  0.00000000000E+00  0.10002847839E+04  0.10002847839E+04  0.51100000000E-03 0. -1.
          2   -1    0    0  501    0 -0.00000000000E+00 -0.00000000000E+00 -0.70274117852E+03  0.70274117852E+03  0.25500000000E-02 0.  1.
         11    1    1    2    0    0 -0.13140275800E+02  0.70785073400E+02  0.34966678504E+03  0.35700147622E+03  0.51100000000E-03 0. -1.
         22    1    1    2    0    0  0.30079014443E+02 -0.22392959770E+03  0.61821378277E+03  0.65820778865E+03  0.00000000000E+00 0. -1.
          2    1    1    2  501    0 -0.16938738643E+02  0.15314452430E+03 -0.67033696244E+03  0.68781669753E+03  0.25500000000E-02 0.  1.
<mgrwt>
<rscale>  0 0.15504847E+03</rscale>
<asrwt>0</asrwt>
<pdfrwt beam="1">  1       11 0.10000000E+01 0.71994399E+02</pdfrwt>
<pdfrwt beam="2">  1        2 0.10814481E+00 0.15504847E+03</pdfrwt>
<totfact> 0.52976692E+01</totfact>
</mgrwt>
</event>
<event>
 5    1  0.2804411E-003  0.2362793E+03  0.7818608E-02  0.1125643E+00
         11   -1    0    0    0    0  0.00000000000E+00  0.00000000000E+00  0.10001516369E+04  0.10001516369E+04  0.51100000000E-03 0. -1.
          2   -1    0    0  501    0 -0.00000000000E+00 -0.00000000000E+00 -0.19729669842E+03  0.19729669844E+03  0.25500000000E-02 0. -1.
         11    1    1    2    0    0  0.22732807762E+02 -0.93508812877E+01  0.68123652016E+02  0.72422727744E+02  0.51100000000E-03 0. -1.
         22    1    1    2    0    0  0.12109249183E+03 -0.17195168917E+03  0.84349536371E+03  0.86931881585E+03  0.00000000000E+00 0. -1.
          2    1    1    2  501    0 -0.14382529959E+03  0.18130257045E+03 -0.10876407723E+03  0.25570679177E+03  0.25500000000E-02 0. -1.
<mgrwt>
<rscale>  0 0.23142243E+03</rscale>
<asrwt>0</asrwt>
<pdfrwt beam="1">  1       11 0.10000000E+01 0.23627929E+03</pdfrwt>
<pdfrwt beam="2">  1        2 0.30357940E-01 0.23142243E+03</pdfrwt>
<totfact> 0.21377175E+02</totfact>
</mgrwt>
</event>
<event>
 5    1  0.2804411E-003  0.1274701E+03  0.7818608E-02  0.1231259E+00
         11   -1    0    0    0    0  0.00000000000E+00  0.00000000000E+00  0.10001747840E+04  0.10001747840E+04  0.51100000000E-03 0. -1.
         -2   -1    0    0    0  501 -0.00000000000E+00 -0.00000000000E+00 -0.26858913577E+02  0.26858913698E+02  0.25500000000E-02 0.  1.
         11    1    1    2    0    0 -0.20947979229E+02 -0.11042447619E+03  0.66116997736E+03  0.67065499457E+03  0.51100000000E-03 0. -1.
         22    1    1    2    0    0  0.20689560248E+02 -0.22531315988E+02  0.11195441387E+03  0.11605821336E+03  0.00000000000E+00 0.  1.
         -2    1    1    2    0  501  0.25841898100E+00  0.13295579218E+03  0.20019147916E+03  0.24032048974E+03  0.25500000000E-02 0.  1.
<mgrwt>
<rscale>  0 0.12747013E+03</rscale>
<asrwt>0</asrwt>
<pdfrwt beam="1">  1       11 0.10000000E+01 0.30589510E+02</pdfrwt>
<pdfrwt beam="2">  1       -2 0.41328627E-02 0.12747013E+03</pdfrwt>
<totfact> 0.19520540E+03</totfact>
</mgrwt>
</event>
<event>
 5    1  0.2804411E-003  0.1441623E+03  0.7818608E-02  0.1215658E+00
         11   -1    0    0    0    0  0.00000000000E+00  0.00000000000E+00  0.10001745267E+04  0.10001745267E+04  0.51100000000E-03 0.  1.
          2   -1    0    0  501    0 -0.00000000000E+00 -0.00000000000E+00 -0.31620351778E+02  0.31620351881E+02  0.25500000000E-02 0.  1.
         11    1    1    2    0    0  0.39231564538E+02  0.61125560480E+02  0.40085504880E+03  0.40738215468E+03  0.51100000000E-03 0.  1.
         22    1    1    2    0    0  0.65088057354E+02  0.29646878484E+02  0.40328192839E+03  0.40957503144E+03  0.00000000000E+00 0. -1.
          2    1    1    2  501    0 -0.10431962189E+03 -0.90772438964E+02  0.16441719773E+03  0.21483769247E+03  0.25500000000E-02 0.  1.
<mgrwt>
<rscale>  0 0.13828311E+03</rscale>
<asrwt>0</asrwt>
<pdfrwt beam="1">  1       11 0.10000000E+01 0.14416229E+03</pdfrwt>
<pdfrwt beam="2">  1        2 0.48655184E-02 0.13828311E+03</pdfrwt>
<totfact> 0.19019828E+03</totfact>
</mgrwt>
</event>
<event>
 5    1  0.2804411E-003  0.1976690E+03  0.7818608E-02  0.1163207E+00
         11   -1    0    0    0    0  0.00000000000E+00  0.00000000000E+00  0.10004470717E+04  0.10004470717E+04  0.51100000000E-03 0.  1.
          2   -1    0    0  501    0 -0.00000000000E+00 -0.00000000000E+00 -0.10316841758E+03  0.10316841761E+03  0.25500000000E-02 0.  1.
         11    1    1    2    0    0 -0.32985338537E+02 -0.94383461917E+02  0.43361203216E+03  0.44498951098E+03  0.51100000000E-03 0.  1.
         22    1    1    2    0    0 -0.84835915121E+02 -0.48027398347E+02  0.46365655281E+03  0.47379443058E+03  0.00000000000E+00 0.  1.
          2    1    1    2  501    0  0.11782125366E+03  0.14241086026E+03  0.10069145909E-01  0.18483154775E+03  0.25500000000E-02 0.  1.
<mgrwt>
<rscale>  0 0.18483155E+03</rscale>
<asrwt>0</asrwt>
<pdfrwt beam="1">  1       11 0.10000000E+01 0.19766896E+03</pdfrwt>
<pdfrwt beam="2">  1        2 0.15879160E-01 0.18483155E+03</pdfrwt>
<totfact> 0.44299310E+02</totfact>
</mgrwt>
</event>
<event>
 5    1  0.2804411E-003  0.1169449E+03  0.7818608E-02  0.1248224E+00
         11   -1    0    0    0    0  0.00000000000E+00  0.00000000000E+00  0.10001411244E+04  0.10001411244E+04  0.51100000000E-03 0. -1.
          2   -1    0    0  501    0 -0.00000000000E+00 -0.00000000000E+00 -0.20810140057E+02  0.20810140214E+02  0.25500000000E-02 0. -1.
         11    1    1    2    0    0  0.30762386318E+02  0.26400848099E+02  0.67666319819E+02  0.78880035690E+02  0.51100000000E-03 0. -1.
         22    1    1    2    0    0  0.94751115506E+02  0.27141487324E+02  0.44970757892E+03  0.46038173374E+03  0.00000000000E+00 0. -1.
          2    1    1    2  501    0 -0.12551350182E+03 -0.53542335422E+02  0.46195708557E+03  0.48168949514E+03  0.25500000000E-02 0. -1.
<mgrwt>
<rscale>  0 0.11694494E+03</rscale>
<asrwt>0</asrwt>
<pdfrwt beam="1">  1       11 0.10000000E+01 0.40538017E+02</pdfrwt>
<pdfrwt beam="2">  1        2 0.32020117E-02 0.11694494E+03</pdfrwt>
<totfact> 0.32562507E+03</totfact>
</mgrwt>
</event>
<event>
 5    1  0.2804411E-003  0.3474874E+02  0.7818608E-02  0.1573434E+00
         11   -1    0    0    0    0  0.00000000000E+00  0.00000000000E+00  0.10003001244E+04  0.10003001244E+04  0.51100000000E-03 0.  1.
          2   -1    0    0  501    0 -0.00000000000E+00 -0.00000000000E+00 -0.21440093739E+01  0.21440108903E+01  0.25500000000E-02 0.  1.
         11    1    1    2    0    0  0.60326449451E+01 -0.96255610728E+01  0.61655461734E+02  0.62693222863E+02  0.51100000000E-03 0.  1.
         22    1    1    2    0    0 -0.48371250577E+01 -0.22706602421E+02  0.10140160087E+03  0.10402534418E+03  0.00000000000E+00 0. -1.
          2    1    1    2  501    0 -0.11955198874E+01  0.32332163494E+02  0.83509905243E+03  0.83572556826E+03  0.25500000000E-02 0.  1.
<mgrwt>
<rscale>  0 0.32354259E+02</rscale>
<asrwt>0</asrwt>
<pdfrwt beam="1">  1       11 0.10000000E+01 0.34748740E+02</pdfrwt>
<pdfrwt beam="2">  1        2 0.32994670E-03 0.32354259E+02</pdfrwt>
<totfact> 0.55291281E+04</totfact>
</mgrwt>
</event>
<event>
 5    1  0.2804411E-003  0.1842600E+03  0.7818608E-02  0.1163743E+00
         11   -1    0    0    0    0  0.00000000000E+00  0.00000000000E+00  0.99985991632E+03  0.99985991632E+03  0.51100000000E-03 0.  1.
          2   -1    0    0  501    0 -0.00000000000E+00 -0.00000000000E+00 -0.93762457330E+02  0.93762457365E+02  0.25500000000E-02 0.  1.
         11    1    1    2    0    0  0.18514513026E+03  0.64699065667E+02  0.78747778803E+03  0.81153308928E+03  0.51100000000E-03 0.  1.
         22    1    1    2    0    0 -0.70363701692E+01 -0.23355586246E+02  0.94576037901E+02  0.97670982687E+02  0.00000000000E+00 0.  1.
          2    1    1    2  501    0 -0.17810876009E+03 -0.41343479420E+02  0.24043633067E+02  0.18441830172E+03  0.25500000000E-02 0.  1.
<mgrwt>
<rscale>  0 0.18425998E+03</rscale>
<asrwt>0</asrwt>
<pdfrwt beam="1">  1       11 0.10000000E+01 0.24392497E+02</pdfrwt>
<pdfrwt beam="2">  1        2 0.14422972E-01 0.18425998E+03</pdfrwt>
<totfact> 0.49615573E+02</totfact>
</mgrwt>
</event>
<event>
 5    1  0.2804411E-003  0.1491719E+03  0.7818608E-02  0.1206320E+00
         11   -1    0    0    0    0  0.00000000000E+00  0.00000000000E+00  0.10001843233E+04  0.10001843233E+04  0.51100000000E-03 0.  1.
          2   -1    0    0  501    0 -0.00000000000E+00 -0.00000000000E+00 -0.29632816373E+02  0.29632816483E+02  0.25500000000E-02 0.  1.
         11    1    1    2    0    0 -0.31142651961E+02  0.93155922024E+01  0.52401532759E+02  0.61664946809E+02  0.51100000000E-03 0.  1.
         22    1    1    2    0    0 -0.78055455690E+02  0.86597612281E+02  0.17076527439E+03  0.20676696920E+03  0.00000000000E+00 0.  1.
          2    1    1    2  501    0  0.10919810765E+03 -0.95913204484E+02  0.74738469982E+03  0.76138522381E+03  0.25500000000E-02 0.  1.
<mgrwt>
<rscale>  0 0.14533950E+03</rscale>
<asrwt>0</asrwt>
<pdfrwt beam="1">  1       11 0.10000000E+01 0.14917195E+03</pdfrwt>
<pdfrwt beam="2">  1        2 0.45597350E-02 0.14533950E+03</pdfrwt>
<totfact> 0.20797100E+03</totfact>
</mgrwt>
</event>
<event>
 5    1  0.2804411E-003  0.1125731E+03  0.7818608E-02  0.1268017E+00
         11   -1    0    0    0    0  0.00000000000E+00  0.00000000000E+00  0.10000850163E+04  0.10000850163E+04  0.51100000000E-03 0. -1.
          2   -1    0    0  501    0 -0.00000000000E+00 -0.00000000000E+00 -0.12776211010E+02  0.12776211265E+02  0.25500000000E-02 0. -1.
         11    1    1    2    0    0  0.75744897493E+02 -0.50048168563E+02  0.53909483877E+03  0.54668579080E+03  0.51100000000E-03 0. -1.
         22    1    1    2    0    0  0.20502637056E+02  0.54586906493E+01  0.96962263819E+02  0.99256415585E+02  0.00000000000E+00 0.  1.
          2    1    1    2  501    0 -0.96247534549E+02  0.44589477914E+02  0.35125170268E+03  0.36691902116E+03  0.25500000000E-02 0. -1.
<mgrwt>
<rscale>  0 0.10607455E+03</rscale>
<asrwt>0</asrwt>
<pdfrwt beam="1">  1       11 0.10000000E+01 0.11257307E+03</pdfrwt>
<pdfrwt beam="2">  1        2 0.19657380E-02 0.10607455E+03</pdfrwt>
<totfact> 0.62095797E+03</totfact>
</mgrwt>
</event>
<event>
 5    1  0.2804411E-003  0.2045912E+03  0.7818608E-02  0.1150908E+00
         11   -1    0    0    0    0  0.00000000000E+00  0.00000000000E+00  0.10002314881E+04  0.10002314881E+04  0.51100000000E-03 0. -1.
         -2   -1    0    0    0  501 -0.00000000000E+00 -0.00000000000E+00 -0.52193300175E+02  0.52193300237E+02  0.25500000000E-02 0. -1.
         11    1    1    2    0    0 -0.10728207609E+03  0.94827770866E+02  0.43660382464E+03  0.45948302435E+03  0.51100000000E-03 0. -1.
         22    1    1    2    0    0 -0.34939163076E+02  0.43819656418E+02  0.29048291712E+03  0.29583987652E+03  0.00000000000E+00 0.  1.
         -2    1    1    2    0  501  0.14222123917E+03 -0.13864742728E+03  0.22095144618E+03  0.29710188747E+03  0.25500000000E-02 0. -1.
<mgrwt>
<rscale>  0 0.19862022E+03</rscale>
<asrwt>0</asrwt>
<pdfrwt beam="1">  1       11 0.10000000E+01 0.20459119E+03</pdfrwt>
<pdfrwt beam="2">  1       -2 0.80315971E-02 0.19862022E+03</pdfrwt>
<totfact> 0.73637579E+02</totfact>
</mgrwt>
</event>
<event>
 5    1  0.2804411E-003  0.1297981E+03  0.7818608E-02  0.1227756E+00
         11   -1    0    0    0    0  0.00000000000E+00  0.00000000000E+00  0.10002518690E+04  0.10002518690E+04  0.51100000000E-03 0.  1.
          2   -1    0    0  501    0 -0.00000000000E+00 -0.00000000000E+00 -0.33235348700E+02  0.33235348798E+02  0.25500000000E-02 0.  1.
         11    1    1    2    0    0  0.11546266720E+02  0.19480893972E+02  0.29243485254E+02  0.36986523697E+02  0.51100000000E-03 0.  1.
         22    1    1    2    0    0 -0.11526569561E+03 -0.91092313524E+02  0.78413094553E+03  0.79777523771E+03  0.00000000000E+00 0.  1.
          2    1    1    2  501    0  0.10371942889E+03  0.71611419552E+02  0.15364208951E+03  0.19872545638E+03  0.25500000000E-02 0.  1.
<mgrwt>
<rscale>  0 0.12979808E+03</rscale>
<asrwt>0</asrwt>
<pdfrwt beam="1">  1       11 0.10000000E+01 0.22645574E+02</pdfrwt>
<pdfrwt beam="2">  1        2 0.51144183E-02 0.12979808E+03</pdfrwt>
<totfact> 0.17728205E+03</totfact>
</mgrwt>
</event>
<event>
 5    1  0.2804411E-003  0.3469534E+03  0.7818608E-02  0.1067931E+00
         11   -1    0    0    0    0  0.00000000000E+00  0.00000000000E+00  0.99985713171E+03  0.99985713171E+03  0.51100000000E-03 0. -1.
         -2   -1    0    0    0  501 -0.00000000000E+00 -0.00000000000E+00 -0.12177448033E+03  0.12177448036E+03  0.25500000000E-02 0.  1.
         11    1    1    2    0    0  0.30101773227E+03  0.38300818678E+02  0.48860228124E+03  0.57516155737E+03  0.51100000000E-03 0. -1.
         22    1    1    2    0    0  0.28804838630E+02  0.32558557593E+02  0.66419254152E+02  0.79380701201E+02  0.00000000000E+00 0. -1.
         -2    1    1    2    0  501 -0.32982257090E+03 -0.70859376270E+02  0.32306111599E+03  0.46708935350E+03  0.25500000000E-02 0.  1.
<mgrwt>
<rscale>  0 0.33734845E+03</rscale>
<asrwt>0</asrwt>
<pdfrwt beam="1">  1       11 0.10000000E+01 0.34695340E+03</pdfrwt>
<pdfrwt beam="2">  1       -2 0.18731858E-01 0.33734845E+03</pdfrwt>
<totfact> 0.18996001E+02</totfact>
</mgrwt>
</event>
<event>
 5    1  0.2804411E-003  0.1663569E+03  0.7818608E-02  0.1188902E+00
         11   -1    0    0    0    0  0.00000000000E+00  0.00000000000E+00  0.10001541092E+04  0.10001541092E+04  0.51100000000E-03 0.  1.
          2   -1    0    0  501    0 -0.00000000000E+00 -0.00000000000E+00 -0.27151343954E+02  0.27151344074E+02  0.25500000000E-02 0.  1.
         11    1    1    2    0    0 -0.42040091597E+01  0.14787590216E+03  0.53755419784E+03  0.55753876255E+03  0.51100000000E-03 0.  1.
         22    1    1    2    0    0 -0.11602241401E+02  0.11158747132E+02  0.32114040324E+02  0.35922711883E+02  0.00000000000E+00 0.  1.
          2    1    1    2  501    0  0.15806250560E+02 -0.15903464929E+03  0.40333452708E+03  0.43384397884E+03  0.25500000000E-02 0.  1.
<mgrwt>
<rscale>  0 0.15981820E+03</rscale>
<asrwt>0</asrwt>
<pdfrwt beam="1">  1       11 0.10000000E+01 0.16635691E+03</pdfrwt>
<pdfrwt beam="2">  1        2 0.41777735E-02 0.15981820E+03</pdfrwt>
<totfact> 0.23536871E+03</totfact>
</mgrwt>
</event>
<event>
 5    1  0.2804411E-003  0.8667833E+02  0.7818608E-02  0.1719211E+00
         11   -1    0    0    0    0  0.00000000000E+00  0.00000000000E+00  0.99997055718E+03  0.99997055718E+03  0.51100000000E-03 0. -1.
          2   -1    0    0  501    0 -0.00000000000E+00 -0.00000000000E+00 -0.44183873802E+02  0.44183873875E+02  0.25500000000E-02 0. -1.
         11    1    1    2    0    0 -0.48168418678E+01  0.80452813831E+02  0.48632671870E+03  0.49295997256E+03  0.51100000000E-03 0. -1.
         22    1    1    2    0    0 -0.10745284023E+02 -0.95112251198E+02  0.50266770474E+03  0.51169973895E+03  0.00000000000E+00 0. -1.
          2    1    1    2  501    0  0.15562125891E+02  0.14659437367E+02 -0.33207740058E+02  0.39494719551E+02  0.25500000000E-02 0. -1.
<mgrwt>
<rscale>  0 0.21379403E+02</rscale>
<asrwt>0</asrwt>
<pdfrwt beam="1">  1       11 0.10000000E+01 0.86678327E+02</pdfrwt>
<pdfrwt beam="2">  1        2 0.67973187E-02 0.21379403E+02</pdfrwt>
<totfact> 0.10401397E+03</totfact>
</mgrwt>
</event>
<event>
 5    1  0.2804411E-003  0.1299253E+03  0.7818608E-02  0.1227567E+00
         11   -1    0    0    0    0  0.00000000000E+00  0.00000000000E+00  0.10002552353E+04  0.10002552353E+04  0.51100000000E-03 0. -1.
          2   -1    0    0  501    0 -0.00000000000E+00 -0.00000000000E+00 -0.53518710175E+03  0.53518710176E+03  0.25500000000E-02 0. -1.
         11    1    1    2    0    0 -0.37935743199E+02 -0.18521450855E+02  0.77505785283E+02  0.88257076240E+02  0.51100000000E-03 0. -1.
         22    1    1    2    0    0  0.13032327377E+03  0.10937305501E+03  0.90137238689E+03  0.91728883166E+03  0.00000000000E+00 0. -1.
          2    1    1    2  501    0 -0.92387530570E+02 -0.90851604156E+02 -0.51381003865E+03  0.52989642913E+03  0.25500000000E-02 0. -1.
<mgrwt>
<rscale>  0 0.12992528E+03</rscale>
<asrwt>0</asrwt>
<pdfrwt beam="1">  1       11 0.10000000E+01 0.42215693E+02</pdfrwt>
<pdfrwt beam="2">  1        2 0.82357490E-01 0.12992528E+03</pdfrwt>
<totfact> 0.72733359E+01</totfact>
</mgrwt>
</event>
<event>
 5    1  0.2804411E-003  0.1148700E+03  0.7818608E-02  0.1587715E+00
         11   -1    0    0    0    0  0.00000000000E+00  0.00000000000E+00  0.10002867215E+04  0.10002867215E+04  0.51100000000E-03 0.  1.
         -2   -1    0    0    0  501 -0.00000000000E+00 -0.00000000000E+00 -0.89311314406E+02  0.89311314442E+02  0.25500000000E-02 0.  1.
         11    1    1    2    0    0  0.58666633247E+02  0.11469718675E+03  0.41735917608E+03  0.43679045361E+03  0.51100000000E-03 0.  1.
         22    1    1    2    0    0 -0.29549041227E+02 -0.10417691578E+03  0.56485035196E+03  0.57513641489E+03  0.00000000000E+00 0.  1.
         -2    1    1    2    0  501 -0.29117592020E+02 -0.10520270971E+02 -0.71234120923E+02  0.77671167472E+02  0.25500000000E-02 0.  1.
<mgrwt>
<rscale>  0 0.30959817E+02</rscale>
<asrwt>0</asrwt>
<pdfrwt beam="1">  1       11 0.10000000E+01 0.11487004E+03</pdfrwt>
<pdfrwt beam="2">  1       -2 0.13744141E-01 0.30959817E+02</pdfrwt>
<totfact> 0.28041323E+02</totfact>
</mgrwt>
</event>
<event>
 5    1  0.2804411E-003  0.3120003E+03  0.7818608E-02  0.1082410E+00
         11   -1    0    0    0    0  0.00000000000E+00  0.00000000000E+00  0.10004104170E+04  0.10004104170E+04  0.51100000000E-03 0. -1.
          2   -1    0    0  501    0 -0.00000000000E+00 -0.00000000000E+00 -0.75944131886E+03  0.75944131886E+03  0.25500000000E-02 0. -1.
         11    1    1    2    0    0  0.18039054379E+03 -0.16972758552E+03  0.83139354872E+03  0.86750414087E+03  0.51100000000E-03 0. -1.
         22    1    1    2    0    0  0.42363765997E+02 -0.39680676004E+02  0.11206901216E+03  0.12620898623E+03  0.00000000000E+00 0. -1.
          2    1    1    2  501    0 -0.22275430979E+03  0.20940826152E+03 -0.70249346278E+03  0.76613860872E+03  0.25500000000E-02 0. -1.
<mgrwt>
<rscale>  0 0.30573077E+03</rscale>
<asrwt>0</asrwt>
<pdfrwt beam="1">  1       11 0.10000000E+01 0.31200028E+03</pdfrwt>
<pdfrwt beam="2">  1        2 0.11688507E+00 0.30573077E+03</pdfrwt>
<totfact> 0.47124000E+01</totfact>
</mgrwt>
</event>
<event>
 5    1  0.2804411E-003  0.5930412E+02  0.7818608E-02  0.1496297E+00
         11   -1    0    0    0    0  0.00000000000E+00  0.00000000000E+00  0.10004126174E+04  0.10004126174E+04  0.51100000000E-03 0.  1.
          2   -1    0    0  501    0 -0.00000000000E+00 -0.00000000000E+00 -0.81707275733E+01  0.81707279712E+01  0.25500000000E-02 0.  1.
         11    1    1    2    0    0  0.23593528276E+02  0.28173172033E+02  0.59474543253E+02  0.69911397457E+02  0.51100000000E-03 0.  1.
         22    1    1    2    0    0  0.10240705954E+02  0.27424304808E+02  0.12927717516E+03  0.13255018888E+03  0.00000000000E+00 0.  1.
          2    1    1    2  501    0 -0.33834234231E+02 -0.55597476841E+02  0.80349017142E+03  0.80612175905E+03  0.25500000000E-02 0.  1.
<mgrwt>
<rscale>  0 0.41666118E+02</rscale>
<asrwt>0</asrwt>
<pdfrwt beam="1">  1       11 0.10000000E+01 0.59304121E+02</pdfrwt>
<pdfrwt beam="2">  1        2 0.12575537E-02 0.41666118E+02</pdfrwt>
<totfact> 0.98210700E+03</totfact>
</mgrwt>
</event>
<event>
 5    1  0.2804411E-003  0.1999624E+03  0.7818608E-02  0.1153729E+00
         11   -1    0    0    0    0  0.00000000000E+00  0.00000000000E+00  0.10000343153E+04  0.10000343153E+04  0.51100000000E-03 0. -1.
         -2   -1    0    0    0  501 -0.00000000000E+00 -0.00000000000E+00 -0.40974286243E+02  0.40974286322E+02  0.25500000000E-02 0.  1.
         11    1    1    2    0    0  0.15213185474E+03  0.54354086350E+02  0.49350082207E+03  0.51927018913E+03  0.51100000000E-03 0. -1.
         22    1    1    2    0    0  0.24297231872E+02  0.29501261130E+02  0.10371403159E+03  0.11053180644E+03  0.00000000000E+00 0.  1.
         -2    1    1    2    0  501 -0.17642908661E+03 -0.83855347480E+02  0.36184517537E+03  0.41120660604E+03  0.25500000000E-02 0.  1.
<mgrwt>
<rscale>  0 0.19534314E+03</rscale>
<asrwt>0</asrwt>
<pdfrwt beam="1">  1       11 0.10000000E+01 0.19996243E+03</pdfrwt>
<pdfrwt beam="2">  1       -2 0.63039525E-02 0.19534314E+03</pdfrwt>
<totfact> 0.10696995E+03</totfact>
</mgrwt>
</event>
<event>
 5    1  0.2804411E-003  0.2494754E+03  0.7818608E-02  0.1123806E+00
         11   -1    0    0    0    0  0.00000000000E+00  0.00000000000E+00  0.10007074361E+04  0.10007074361E+04  0.51100000000E-03 0. -1.
         -2   -1    0    0    0  501 -0.00000000000E+00 -0.00000000000E+00 -0.82857034166E+02  0.82857034206E+02  0.25500000000E-02 0.  1.
         11    1    1    2    0    0 -0.47801324677E+02  0.19739078112E+03  0.59791927372E+03  0.63147093757E+03  0.51100000000E-03 0. -1.
         22    1    1    2    0    0  0.28228729695E+02  0.35861746561E+02  0.16547553866E+03  0.17165395405E+03  0.00000000000E+00 0. -1.
         -2    1    1    2    0  501  0.19572594982E+02 -0.23325252768E+03  0.15445558957E+03  0.28043957870E+03  0.25500000000E-02 0.  1.
<mgrwt>
<rscale>  0 0.23407227E+03</rscale>
<asrwt>0</asrwt>
<pdfrwt beam="1">  1       11 0.10000000E+01 0.24947535E+03</pdfrwt>
<pdfrwt beam="2">  1       -2 0.12756254E-01 0.23407227E+03</pdfrwt>
<totfact> 0.35584740E+02</totfact>
</mgrwt>
</event>
<event>
 5    1  0.2804411E-003  0.4761628E+03  0.7818608E-02  0.1022204E+00
         11   -1    0    0    0    0  0.00000000000E+00  0.00000000000E+00  0.99976226087E+03  0.99976226087E+03  0.51100000000E-03 0. -1.
          2   -1    0    0  501    0 -0.00000000000E+00 -0.00000000000E+00 -0.60918661439E+03  0.60918661439E+03  0.25500000000E-02 0. -1.
         11    1    1    2    0    0 -0.36516809625E+03 -0.21666556015E+03  0.70373068629E+03  0.82190545825E+03  0.51100000000E-03 0. -1.
         22    1    1    2    0    0 -0.45318456020E+02 -0.10177535383E+02  0.13229906086E+03  0.14021549910E+03  0.00000000000E+00 0.  1.
          2    1    1    2  501    0  0.41048655227E+03  0.22684309554E+03 -0.44545410067E+03  0.64682791791E+03  0.25500000000E-02 0. -1.
<mgrwt>
<rscale>  0 0.46899574E+03</rscale>
<asrwt>0</asrwt>
<pdfrwt beam="1">  1       11 0.10000000E+01 0.47616279E+03</pdfrwt>
<pdfrwt beam="2">  1        2 0.93698734E-01 0.46899574E+03</pdfrwt>
<totfact> 0.61024547E+01</totfact>
</mgrwt>
</event>
<event>
 5    1  0.2804411E-003  0.2701012E+03  0.7818608E-02  0.1101222E+00
         11   -1    0    0    0    0  0.00000000000E+00  0.00000000000E+00  0.99980990626E+03  0.99980990626E+03  0.51100000000E-03 0. -1.
          2   -1    0    0  501    0 -0.00000000000E+00 -0.00000000000E+00 -0.44940648506E+03  0.44940648506E+03  0.25500000000E-02 0.  1.
         11    1    1    2    0    0  0.22196454539E+03  0.48577642963E+02  0.73638839174E+03  0.77064642366E+03  0.51100000000E-03 0. -1.
         22    1    1    2    0    0 -0.18010655043E+02  0.13507824206E+03  0.17707691631E+03  0.22344294453E+03  0.00000000000E+00 0.  1.
          2    1    1    2  501    0 -0.20395389034E+03 -0.18365588502E+03 -0.36306188685E+03  0.45512702313E+03  0.25500000000E-02 0.  1.
<mgrwt>
<rscale>  0 0.27010121E+03</rscale>
<asrwt>0</asrwt>
<pdfrwt beam="1">  1       11 0.10000000E+01 0.13627368E+03</pdfrwt>
<pdfrwt beam="2">  1        2 0.69126314E-01 0.27010121E+03</pdfrwt>
<totfact> 0.87362791E+01</totfact>
</mgrwt>
</event>
<event>
 5    1  0.2804411E-003  0.1564422E+03  0.7818608E-02  0.1201701E+00
         11   -1    0    0    0    0  0.00000000000E+00  0.00000000000E+00  0.10002276461E+04  0.10002276461E+04  0.51100000000E-03 0. -1.
         -2   -1    0    0    0  501 -0.00000000000E+00 -0.00000000000E+00 -0.26244302987E+02  0.26244303111E+02  0.25500000000E-02 0.  1.
         11    1    1    2    0    0  0.10414488821E+02 -0.20679611349E+02  0.66918182086E+02  0.70810670078E+02  0.51100000000E-03 0. -1.
         22    1    1    2    0    0  0.12349888585E+03 -0.44663720097E+02  0.60190806909E+03  0.61606829681E+03  0.00000000000E+00 0. -1.
         -2    1    1    2    0  501 -0.13391337467E+03  0.65343331447E+02  0.30515709198E+03  0.33959298237E+03  0.25500000000E-02 0.  1.
<mgrwt>
<rscale>  0 0.14900518E+03</rscale>
<asrwt>0</asrwt>
<pdfrwt beam="1">  1       11 0.10000000E+01 0.15644220E+03</pdfrwt>
<pdfrwt beam="2">  1       -2 0.40385041E-02 0.14900518E+03</pdfrwt>
<totfact> 0.20503266E+03</totfact>
</mgrwt>
</event>
<event>
 5    1  0.2804411E-003  0.5564233E+03  0.7818608E-02  0.1000606E+00
         11   -1    0    0    0    0  0.00000000000E+00  0.00000000000E+00  0.10003008104E+04  0.10003008104E+04  0.51100000000E-03 0. -1.
          2   -1    0    0  501    0 -0.00000000000E+00 -0.00000000000E+00 -0.10237629854E+04  0.10237629854E+04  0.25500000000E-02 0. -1.
         11    1    1    2    0    0 -0.53050185827E+03 -0.12759617073E+03  0.82428792725E+03  0.98851585289E+03  0.51100000000E-03 0. -1.
         22    1    1    2    0    0 -0.94027732671E+01  0.40779813623E+01  0.10133142416E+02  0.14412586594E+02  0.00000000000E+00 0. -1.
          2    1    1    2  501    0  0.53990463154E+03  0.12351818936E+03 -0.85788324474E+03  0.10211353563E+04  0.25500000000E-02 0. -1.
<mgrwt>
<rscale>  0 0.55385355E+03</rscale>
<asrwt>0</asrwt>
<pdfrwt beam="1">  1       11 0.10000000E+01 0.55642334E+03</pdfrwt>
<pdfrwt beam="2">  1        2 0.15754937E+00 0.55385355E+03</pdfrwt>
<totfact> 0.30676326E+01</totfact>
</mgrwt>
</event>
<event>
 5    1  0.2804411E-003  0.3547977E+03  0.7818608E-02  0.1066534E+00
         11   -1    0    0    0    0  0.00000000000E+00  0.00000000000E+00  0.10011031965E+04  0.10011031965E+04  0.51100000000E-03 0.  1.
          2   -1    0    0  501    0 -0.00000000000E+00 -0.00000000000E+00 -0.12885787353E+04  0.12885787353E+04  0.25500000000E-02 0.  1.
         11    1    1    2    0    0 -0.19580856478E+02 -0.31718561530E+02  0.14514549432E+03  0.14985556916E+03  0.51100000000E-03 0.  1.
         22    1    1    2    0    0 -0.31013049928E+03 -0.53777187682E+02  0.80069440182E+03  0.86033972220E+03  0.00000000000E+00 0.  1.
          2    1    1    2  501    0  0.32971135576E+03  0.85495749211E+02 -0.12333154349E+04  0.12794866405E+04  0.25500000000E-02 0.  1.
<mgrwt>
<rscale>  0 0.34061577E+03</rscale>
<asrwt>0</asrwt>
<pdfrwt beam="1">  1       11 0.10000000E+01 0.35479771E+03</pdfrwt>
<pdfrwt beam="2">  1        2 0.19846158E+00 0.34061577E+03</pdfrwt>
<totfact> 0.21952144E+01</totfact>
</mgrwt>
</event>
<event>
 5    1  0.2804411E-003  0.1531526E+03  0.7818608E-02  0.1196652E+00
         11   -1    0    0    0    0  0.00000000000E+00  0.00000000000E+00  0.10004864014E+04  0.10004864014E+04  0.51100000000E-03 0. -1.
          2   -1    0    0  501    0 -0.00000000000E+00 -0.00000000000E+00 -0.11862624816E+03  0.11862624819E+03  0.25500000000E-02 0. -1.
         11    1    1    2    0    0 -0.10438025803E+01  0.14434441787E+03  0.75422788304E+03  0.76791672729E+03  0.51100000000E-03 0. -1.
         22    1    1    2    0    0 -0.35130633019E+02  0.53755126401E+01  0.18383165432E+03  0.18723550583E+03  0.00000000000E+00 0. -1.
          2    1    1    2  501    0  0.36174435599E+02 -0.14971993051E+03 -0.56199384135E+02  0.16396041646E+03  0.25500000000E-02 0. -1.
<mgrwt>
<rscale>  0 0.15315256E+03</rscale>
<asrwt>0</asrwt>
<pdfrwt beam="1">  1       11 0.10000000E+01 0.35539520E+02</pdfrwt>
<pdfrwt beam="2">  1        2 0.18259068E-01 0.15315256E+03</pdfrwt>
<totfact> 0.37420798E+02</totfact>
</mgrwt>
</event>
<event>
 5    1  0.2804411E-003  0.5214575E+02  0.7818608E-02  0.1596274E+00
         11   -1    0    0    0    0  0.00000000000E+00  0.00000000000E+00  0.99993098828E+03  0.99993098828E+03  0.51100000000E-03 0. -1.
          2   -1    0    0  501    0 -0.00000000000E+00 -0.00000000000E+00 -0.79588036186E+01  0.79588040271E+01  0.25500000000E-02 0. -1.
         11    1    1    2    0    0  0.45762209120E+01  0.64319595784E+02  0.20946110602E+03  0.21916182864E+03  0.51100000000E-03 0. -1.
         22    1    1    2    0    0 -0.23684130421E+02 -0.40978590098E+02  0.20349910669E+03  0.20893077635E+03  0.00000000000E+00 0. -1.
          2    1    1    2  501    0  0.19107909509E+02 -0.23341005687E+02  0.57901197195E+03  0.57979718732E+03  0.25500000000E-02 0. -1.
<mgrwt>
<rscale>  0 0.30164793E+02</rscale>
<asrwt>0</asrwt>
<pdfrwt beam="1">  1       11 0.10000000E+01 0.52145748E+02</pdfrwt>
<pdfrwt beam="2">  1        2 0.12243468E-02 0.30164793E+02</pdfrwt>
<totfact> 0.95700562E+03</totfact>
</mgrwt>
</event>
<event>
 5    1  0.2804411E-003  0.8754948E+02  0.7818608E-02  0.1312438E+00
         11   -1    0    0    0    0  0.00000000000E+00  0.00000000000E+00  0.99997186768E+03  0.99997186768E+03  0.51100000000E-03 0. -1.
          2   -1    0    0  501    0 -0.00000000000E+00 -0.00000000000E+00 -0.82103971902E+01  0.82103975862E+01  0.25500000000E-02 0. -1.
         11    1    1    2    0    0 -0.68244785278E+02 -0.33593091822E+02  0.29834768436E+03  0.30789151872E+03  0.51100000000E-03 0. -1.
         22    1    1    2    0    0 -0.67151337879E+01 -0.88775657728E+01  0.57532983793E+02  0.58599901194E+02  0.00000000000E+00 0.  1.
          2    1    1    2  501    0  0.74959919066E+02  0.42470657595E+02  0.63588080234E+03  0.64169084536E+03  0.25500000000E-02 0. -1.
<mgrwt>
<rscale>  0 0.86155361E+02</rscale>
<asrwt>0</asrwt>
<pdfrwt beam="1">  1       11 0.10000000E+01 0.87549477E+02</pdfrwt>
<pdfrwt beam="2">  1        2 0.12631025E-02 0.86155361E+02</pdfrwt>
<totfact> 0.11007021E+04</totfact>
</mgrwt>
</event>
<event>
 5    1  0.2804411E-003  0.4309569E+03  0.7818608E-02  0.1034291E+00
         11   -1    0    0    0    0  0.00000000000E+00  0.00000000000E+00  0.10002617722E+04  0.10002617722E+04  0.51100000000E-03 0. -1.
          2   -1    0    0  501    0 -0.00000000000E+00 -0.00000000000E+00 -0.58124698019E+03  0.58124698020E+03  0.25500000000E-02 0.  1.
         11    1    1    2    0    0 -0.28109348360E+03  0.31126194574E+03  0.83585462023E+03  0.93517404345E+03  0.51100000000E-03 0. -1.
         22    1    1    2    0    0 -0.11195455212E+02  0.22645247669E+01  0.26992991604E+02  0.29310201050E+02  0.00000000000E+00 0. -1.
          2    1    1    2  501    0  0.29228893881E+03 -0.31352647050E+03 -0.44383281979E+03  0.61702450793E+03  0.25500000000E-02 0.  1.
<mgrwt>
<rscale>  0 0.42863933E+03</rscale>
<asrwt>0</asrwt>
<pdfrwt beam="1">  1       11 0.10000000E+01 0.43095691E+03</pdfrwt>
<pdfrwt beam="2">  1        2 0.89446018E-01 0.42863933E+03</pdfrwt>
<totfact> 0.64614740E+01</totfact>
</mgrwt>
</event>
<event>
 5    1  0.2804411E-003  0.1445370E+03  0.7818608E-02  0.1207351E+00
         11   -1    0    0    0    0  0.00000000000E+00  0.00000000000E+00  0.10004021132E+04  0.10004021132E+04  0.51100000000E-03 0. -1.
         -2   -1    0    0    0  501 -0.00000000000E+00 -0.00000000000E+00 -0.29805274808E+02  0.29805274917E+02  0.25500000000E-02 0. -1.
         11    1    1    2    0    0  0.85872113545E+02  0.10472820855E+03  0.51710570621E+03  0.53454684448E+03  0.51100000000E-03 0. -1.
         22    1    1    2    0    0  0.30482145146E+02 -0.93249135715E+01  0.18637034535E+03  0.18907675904E+03  0.00000000000E+00 0. -1.
         -2    1    1    2    0  501 -0.11635425869E+03 -0.95403294982E+02  0.26712078684E+03  0.30658378460E+03  0.25500000000E-02 0. -1.
<mgrwt>
<rscale>  0 0.14453698E+03</rscale>
<asrwt>0</asrwt>
<pdfrwt beam="1">  1       11 0.10000000E+01 0.31876562E+02</pdfrwt>
<pdfrwt beam="2">  1       -2 0.45872706E-02 0.14453698E+03</pdfrwt>
<totfact> 0.16902737E+03</totfact>
</mgrwt>
</event>
<event>
 5    1  0.2804411E-003  0.1352420E+03  0.7818608E-02  0.1226347E+00
         11   -1    0    0    0    0  0.00000000000E+00  0.00000000000E+00  0.10001253050E+04  0.10001253050E+04  0.51100000000E-03 0.  1.
          2   -1    0    0  501    0 -0.00000000000E+00 -0.00000000000E+00 -0.24532133065E+02  0.24532133197E+02  0.25500000000E-02 0.  1.
         11    1    1    2    0    0  0.10531056448E+03  0.66182961730E+01  0.62054984839E+03  0.62945709240E+03  0.51100000000E-03 0.  1.
         22    1    1    2    0    0  0.25163367422E+02 -0.15113346278E+02  0.14380972704E+03  0.14677481353E+03  0.00000000000E+00 0.  1.
          2    1    1    2  501    0 -0.13047393190E+03  0.84950501053E+01  0.21123359650E+03  0.24842553226E+03  0.25500000000E-02 0.  1.
<mgrwt>
<rscale>  0 0.13075019E+03</rscale>
<asrwt>0</asrwt>
<pdfrwt beam="1">  1       11 0.10000000E+01 0.13524205E+03</pdfrwt>
<pdfrwt beam="2">  1        2 0.37746471E-02 0.13075019E+03</pdfrwt>
<totfact> 0.26448989E+03</totfact>
</mgrwt>
</event>
<event>
 5    1  0.2804411E-003  0.1832951E+03  0.7818608E-02  0.1448367E+00
         11   -1    0    0    0    0  0.00000000000E+00  0.00000000000E+00  0.99998294537E+03  0.99998294537E+03  0.51100000000E-03 0. -1.
          2   -1    0    0  501    0 -0.00000000000E+00 -0.00000000000E+00 -0.37567680012E+02  0.37567680098E+02  0.25500000000E-02 0. -1.
         11    1    1    2    0    0  0.97144001893E+02 -0.15640257044E+03  0.42212087400E+03  0.46052660446E+03  0.51100000000E-03 0. -1.
         22    1    1    2    0    0 -0.12152323923E+02 -0.54958235984E+01  0.11858387433E+02  0.17846691746E+02  0.00000000000E+00 0. -1.
          2    1    1    2  501    0 -0.84991677970E+02  0.16189839404E+03  0.52843600392E+03  0.55917732926E+03  0.25500000000E-02 0. -1.
<mgrwt>
<rscale>  0 0.49443471E+02</rscale>
<asrwt>0</asrwt>
<pdfrwt beam="1">  1       11 0.10000000E+01 0.18329509E+03</pdfrwt>
<pdfrwt beam="2">  1        2 0.57795444E-02 0.49443471E+02</pdfrwt>
<totfact> 0.13894894E+03</totfact>
</mgrwt>
</event>
<event>
 5    1  0.2804411E-003  0.2029725E+03  0.7818608E-02  0.1147255E+00
         11   -1    0    0    0    0  0.00000000000E+00  0.00000000000E+00  0.10004894614E+04  0.10004894614E+04  0.51100000000E-03 0.  1.
          2   -1    0    0  501    0 -0.00000000000E+00 -0.00000000000E+00 -0.71592927509E+03  0.71592927509E+03  0.25500000000E-02 0.  1.
         11    1    1    2    0    0  0.24346457368E+03  0.32920314857E+02  0.50964071435E+03  0.56576709297E+03  0.51100000000E-03 0.  1.
         22    1    1    2    0    0 -0.47930666098E+02 -0.84760220548E+02  0.44250433215E+03  0.45309130174E+03  0.00000000000E+00 0.  1.
          2    1    1    2  501    0 -0.19553390759E+03  0.51839905691E+02 -0.66758486020E+03  0.69756034177E+03  0.25500000000E-02 0.  1.
<mgrwt>
<rscale>  0 0.20297253E+03</rscale>
<asrwt>0</asrwt>
<pdfrwt beam="1">  1       11 0.10000000E+01 0.97373732E+02</pdfrwt>
<pdfrwt beam="2">  1        2 0.11019687E+00 0.20297253E+03</pdfrwt>
<totfact> 0.51364150E+01</totfact>
</mgrwt>
</event>
<event>
 5    1  0.2804411E-003  0.1678467E+03  0.7818608E-02  0.1180112E+00
         11   -1    0    0    0    0  0.00000000000E+00  0.00000000000E+00  0.10001294545E+04  0.10001294545E+04  0.51100000000E-03 0. -1.
          2   -1    0    0  501    0 -0.00000000000E+00 -0.00000000000E+00 -0.25893980205E+03  0.25893980206E+03  0.25500000000E-02 0. -1.
         11    1    1    2    0    0 -0.62557106445E+02 -0.14352288518E+03  0.86179515136E+03  0.87590130326E+03  0.51100000000E-03 0. -1.
         22    1    1    2    0    0 -0.21443616188E+02 -0.22505675816E+01  0.10193316814E+03  0.10418860061E+03  0.00000000000E+00 0.  1.
          2    1    1    2  501    0  0.84000722634E+02  0.14577345276E+03 -0.22253866700E+03  0.27897935273E+03  0.25500000000E-02 0. -1.
<mgrwt>
<rscale>  0 0.16784668E+03</rscale>
<asrwt>0</asrwt>
<pdfrwt beam="1">  1       11 0.10000000E+01 0.21561394E+02</pdfrwt>
<pdfrwt beam="2">  1        2 0.39842049E-01 0.16784668E+03</pdfrwt>
<totfact> 0.15859439E+02</totfact>
</mgrwt>
</event>
<event>
 5    1  0.2804411E-003  0.2974117E+03  0.7818608E-02  0.1089232E+00
         11   -1    0    0    0    0  0.00000000000E+00  0.00000000000E+00  0.99991515394E+03  0.99991515394E+03  0.51100000000E-03 0. -1.
          2   -1    0    0  501    0 -0.00000000000E+00 -0.00000000000E+00 -0.90005058503E+03  0.90005058504E+03  0.25500000000E-02 0. -1.
         11    1    1    2    0    0  0.81063376842E+02 -0.35103834660E+01  0.19476618446E+03  0.21099161231E+03  0.51100000000E-03 0. -1.
         22    1    1    2    0    0  0.20974179869E+03  0.31503529155E+02  0.75816255860E+03  0.78727032189E+03  0.00000000000E+00 0. -1.
          2    1    1    2  501    0 -0.29080517553E+03 -0.27993145689E+02 -0.85306417415E+03  0.90170380478E+03  0.25500000000E-02 0. -1.
<mgrwt>
<rscale>  0 0.29214939E+03</rscale>
<asrwt>0</asrwt>
<pdfrwt beam="1">  1       11 0.10000000E+01 0.29741167E+03</pdfrwt>
<pdfrwt beam="2">  1        2 0.13845757E+00 0.29214939E+03</pdfrwt>
<totfact> 0.37863730E+01</totfact>
</mgrwt>
</event>
<event>
 5    1  0.2804411E-003  0.1372461E+03  0.7818608E-02  0.1217083E+00
         11   -1    0    0    0    0  0.00000000000E+00  0.00000000000E+00  0.10002609463E+04  0.10002609463E+04  0.51100000000E-03 0. -1.
          2   -1    0    0  501    0 -0.00000000000E+00 -0.00000000000E+00 -0.67791173741E+02  0.67791173789E+02  0.25500000000E-02 0. -1.
         11    1    1    2    0    0  0.82304239416E+01 -0.22036091729E+02  0.86956491279E+02  0.90081965969E+02  0.51100000000E-03 0. -1.
         22    1    1    2    0    0 -0.25928552747E+02  0.15615950422E+03  0.82630046596E+03  0.84132665514E+03  0.00000000000E+00 0. -1.
          2    1    1    2  501    0  0.17698128805E+02 -0.13412341249E+03  0.19212815351E+02  0.13664349901E+03  0.25500000000E-02 0. -1.
<mgrwt>
<rscale>  0 0.13724612E+03</rscale>
<asrwt>0</asrwt>
<pdfrwt beam="1">  1       11 0.10000000E+01 0.23522951E+02</pdfrwt>
<pdfrwt beam="2">  1        2 0.10432133E-01 0.13724612E+03</pdfrwt>
<totfact> 0.72273637E+02</totfact>
</mgrwt>
</event>
<event>
 5    1  0.2804411E-003  0.1793341E+03  0.7818608E-02  0.1168449E+00
         11   -1    0    0    0    0  0.00000000000E+00  0.00000000000E+00  0.10004885024E+04  0.10004885024E+04  0.51100000000E-03 0.  1.
          2   -1    0    0  501    0 -0.00000000000E+00 -0.00000000000E+00 -0.43508453249E+03  0.43508453250E+03  0.25500000000E-02 0. -1.
         11    1    1    2    0    0  0.19035329549E+03 -0.18441426953E+02  0.94209361496E+03  0.96130892157E+03  0.51100000000E-03 0.  1.
         22    1    1    2    0    0 -0.17467323859E+02 -0.28504282465E+02  0.20029555737E+02  0.38971587403E+02  0.00000000000E+00 0.  1.
          2    1    1    2  501    0 -0.17288597163E+03  0.46945709418E+02 -0.39671920081E+03  0.43529252592E+03  0.25500000000E-02 0. -1.
<mgrwt>
<rscale>  0 0.17933406E+03</rscale>
<asrwt>0</asrwt>
<pdfrwt beam="1">  1       11 0.10000000E+01 0.33430548E+02</pdfrwt>
<pdfrwt beam="2">  1        2 0.66968778E-01 0.17933406E+03</pdfrwt>
<totfact> 0.90868370E+01</totfact>
</mgrwt>
</event>
<event>
 5    1  0.2804411E-003  0.1572558E+03  0.7818608E-02  0.1198184E+00
         11   -1    0    0    0    0  0.00000000000E+00  0.00000000000E+00  0.10002120858E+04  0.10002120858E+04  0.51100000000E-03 0. -1.
          2   -1    0    0  501    0 -0.00000000000E+00 -0.00000000000E+00 -0.25490366672E+02  0.25490366800E+02  0.25500000000E-02 0. -1.
         11    1    1    2    0    0 -0.15611847796E+02  0.13724297124E+03  0.58084049398E+03  0.59703856023E+03  0.51100000000E-03 0. -1.
         22    1    1    2    0    0  0.92929684335E+01  0.14503405053E+02  0.43116568019E+02  0.46430016780E+02  0.00000000000E+00 0.  1.
          2    1    1    2  501    0  0.63188793624E+01 -0.15174637629E+03  0.35076465709E+03  0.38223387556E+03  0.25500000000E-02 0. -1.
<mgrwt>
<rscale>  0 0.15187788E+03</rscale>
<asrwt>0</asrwt>
<pdfrwt beam="1">  1       11 0.10000000E+01 0.15725582E+03</pdfrwt>
<pdfrwt beam="2">  1        2 0.39224265E-02 0.15187788E+03</pdfrwt>
<totfact> 0.25479034E+03</totfact>
</mgrwt>
</event>
<event>
 5    1  0.2804411E-003  0.1488598E+03  0.7818608E-02  0.1201881E+00
         11   -1    0    0    0    0  0.00000000000E+00  0.00000000000E+00  0.99993480670E+03  0.99993480670E+03  0.51100000000E-03 0. -1.
          2   -1    0    0  501    0 -0.00000000000E+00 -0.00000000000E+00 -0.10649676683E+03  0.10649676686E+03  0.25500000000E-02 0. -1.
         11    1    1    2    0    0  0.41320541941E+02  0.54387811461E+01  0.22032121904E+03  0.22422847073E+03  0.51100000000E-03 0. -1.
         22    1    1    2    0    0 -0.14338068146E+03  0.10036582833E+03  0.70949462804E+03  0.73076257877E+03  0.00000000000E+00 0. -1.
          2    1    1    2  501    0  0.10206013952E+03 -0.10580460947E+03 -0.36377807205E+02  0.15144052406E+03  0.25500000000E-02 0. -1.
<mgrwt>
<rscale>  0 0.14885979E+03</rscale>
<asrwt>0</asrwt>
<pdfrwt beam="1">  1       11 0.10000000E+01 0.41676942E+02</pdfrwt>
<pdfrwt beam="2">  1        2 0.16383049E-01 0.14885979E+03</pdfrwt>
<totfact> 0.42365753E+02</totfact>
</mgrwt>
</event>
<event>
 5    1  0.2804411E-003  0.1381281E+03  0.7818608E-02  0.1365241E+00
         11   -1    0    0    0    0  0.00000000000E+00  0.00000000000E+00  0.10000306694E+04  0.10000306694E+04  0.51100000000E-03 0. -1.
         -2   -1    0    0    0  501 -0.00000000000E+00 -0.00000000000E+00 -0.27177842320E+02  0.27177842439E+02  0.25500000000E-02 0.  1.
         11    1    1    2    0    0 -0.77118310385E+02 -0.99098208917E+02  0.42814200038E+03  0.44617626707E+03  0.51100000000E-03 0. -1.
         22    1    1    2    0    0 -0.20784512527E+01 -0.33914749130E+02  0.36952421341E+02  0.50199717242E+02  0.00000000000E+00 0.  1.
         -2    1    1    2    0  501  0.79196761638E+02  0.13301295805E+03  0.50775840537E+03  0.53083252754E+03  0.25500000000E-02 0.  1.
<mgrwt>
<rscale>  0 0.68508165E+02</rscale>
<asrwt>0</asrwt>
<pdfrwt beam="1">  1       11 0.10000000E+01 0.13812810E+03</pdfrwt>
<pdfrwt beam="2">  1       -2 0.41813346E-02 0.68508165E+02</pdfrwt>
<totfact> 0.17988527E+03</totfact>
</mgrwt>
</event>
<event>
 5    1  0.2804411E-003  0.2166629E+03  0.7818608E-02  0.1136396E+00
         11   -1    0    0    0    0  0.00000000000E+00  0.00000000000E+00  0.10001928619E+04  0.10001928619E+04  0.51100000000E-03 0.  1.
         -2   -1    0    0    0  501 -0.00000000000E+00 -0.00000000000E+00 -0.16321591010E+03  0.16321591012E+03  0.25500000000E-02 0. -1.
         11    1    1    2    0    0 -0.53079276310E+02 -0.12393425872E+03  0.23327431061E+03  0.26943276350E+03  0.51100000000E-03 0.  1.
         22    1    1    2    0    0 -0.58153444267E+02 -0.10501720979E+03  0.62698339654E+03  0.63837184851E+03  0.00000000000E+00 0.  1.
         -2    1    1    2    0  501  0.11123272058E+03  0.22895146850E+03 -0.23280755313E+02  0.25560416004E+03  0.25500000000E-02 0. -1.
<mgrwt>
<rscale>  0 0.21666292E+03</rscale>
<asrwt>0</asrwt>
<pdfrwt beam="1">  1       11 0.10000000E+01 0.12004348E+03</pdfrwt>
<pdfrwt beam="2">  1       -2 0.25114982E-01 0.21666292E+03</pdfrwt>
<totfact> 0.11298285E+02</totfact>
</mgrwt>
</event>
<event>
 5    1  0.2804411E-003  0.9361465E+02  0.7818608E-02  0.1294327E+00
         11   -1    0    0    0    0  0.00000000000E+00  0.00000000000E+00  0.10003402117E+04  0.10003402117E+04  0.51100000000E-03 0. -1.
          2   -1    0    0  501    0 -0.00000000000E+00 -0.00000000000E+00 -0.25004096890E+02  0.25004097020E+02  0.25500000000E-02 0. -1.
         11    1    1    2    0    0  0.86771853637E+02  0.62476152094E+02  0.64085050583E+03  0.64970916185E+03  0.51100000000E-03 0. -1.
         22    1    1    2    0    0 -0.41752351642E+02  0.18602526875E+02  0.23589027147E+03  0.24027803281E+03  0.00000000000E+00 0. -1.
          2    1    1    2  501    0 -0.45019501995E+02 -0.81078678968E+02  0.98595337494E+02  0.13535711405E+03  0.25500000000E-02 0. -1.
<mgrwt>
<rscale>  0 0.93614648E+02</rscale>
<asrwt>0</asrwt>
<pdfrwt beam="1">  1       11 0.10000000E+01 0.45709002E+02</pdfrwt>
<pdfrwt beam="2">  1        2 0.38480928E-02 0.93614648E+02</pdfrwt>
<totfact> 0.24958946E+03</totfact>
</mgrwt>
</event>
<event>
 5    1  0.2804411E-003  0.1558009E+03  0.7818608E-02  0.1198938E+00
         11   -1    0    0    0    0  0.00000000000E+00  0.00000000000E+00  0.10000235510E+04  0.10000235510E+04  0.51100000000E-03 0. -1.
          2   -1    0    0  501    0 -0.00000000000E+00 -0.00000000000E+00 -0.54895265412E+02  0.54895265471E+02  0.25500000000E-02 0. -1.
         11    1    1    2    0    0  0.51694033596E+02 -0.11492570467E+03  0.74329900213E+03  0.75390556257E+03  0.51100000000E-03 0. -1.
         22    1    1    2    0    0  0.24208717103E+02 -0.15906613638E+02  0.13069280602E+03  0.13386445341E+03  0.00000000000E+00 0.  1.
          2    1    1    2  501    0 -0.75902750699E+02  0.13083231831E+03  0.71136477443E+02  0.16714880050E+03  0.25500000000E-02 0. -1.
<mgrwt>
<rscale>  0 0.15125582E+03</rscale>
<asrwt>0</asrwt>
<pdfrwt beam="1">  1       11 0.10000000E+01 0.15580090E+03</pdfrwt>
<pdfrwt beam="2">  1        2 0.84456241E-02 0.15125582E+03</pdfrwt>
<totfact> 0.94387922E+02</totfact>
</mgrwt>
</event>
<event>
 5    1  0.2804411E-003  0.1330592E+03  0.7818608E-02  0.1230769E+00
         11   -1    0    0    0    0  0.00000000000E+00  0.00000000000E+00  0.10001057497E+04  0.10001057497E+04  0.51100000000E-03 0. -1.
          2   -1    0    0  501    0 -0.00000000000E+00 -0.00000000000E+00 -0.17011321082E+02  0.17011321273E+02  0.25500000000E-02 0. -1.
         11    1    1    2    0    0 -0.16148381224E+02 -0.93332961323E+02  0.30664495769E+03  0.32094071409E+03  0.51100000000E-03 0. -1.
         22    1    1    2    0    0  0.35335767972E+01 -0.33835007025E+02  0.20069012092E+03  0.20355298696E+03  0.00000000000E+00 0.  1.
          2    1    1    2  501    0  0.12614804426E+02  0.12716796835E+03  0.47575934997E+03  0.49262336988E+03  0.25500000000E-02 0. -1.
<mgrwt>
<rscale>  0 0.12779212E+03</rscale>
<asrwt>0</asrwt>
<pdfrwt beam="1">  1       11 0.10000000E+01 0.13305924E+03</pdfrwt>
<pdfrwt beam="2">  1        2 0.26174030E-02 0.12779212E+03</pdfrwt>
<totfact> 0.43082188E+03</totfact>
</mgrwt>
</event>
<event>
 5    1  0.2804411E-003  0.2074942E+03  0.7818608E-02  0.1150002E+00
         11   -1    0    0    0    0  0.00000000000E+00  0.00000000000E+00  0.10003849887E+04  0.10003849887E+04  0.51100000000E-03 0.  1.
          2   -1    0    0  501    0 -0.00000000000E+00 -0.00000000000E+00 -0.89016595293E+03  0.89016595294E+03  0.25500000000E-02 0.  1.
         11    1    1    2    0    0  0.69329653678E+02 -0.14613689228E+03  0.79636749550E+03  0.81262770077E+03  0.51100000000E-03 0.  1.
         22    1    1    2    0    0 -0.89018462211E+01 -0.44189272096E+02  0.18179731533E+03  0.18730242523E+03  0.00000000000E+00 0.  1.
          2    1    1    2  501    0 -0.60427807457E+02  0.19032616438E+03 -0.86794577508E+03  0.89062081563E+03  0.25500000000E-02 0.  1.
<mgrwt>
<rscale>  0 0.19968868E+03</rscale>
<asrwt>0</asrwt>
<pdfrwt beam="1">  1       11 0.10000000E+01 0.20749424E+03</pdfrwt>
<pdfrwt beam="2">  1        2 0.13700133E+00 0.19968868E+03</pdfrwt>
<totfact> 0.39020964E+01</totfact>
</mgrwt>
</event>
<event>
 5    1  0.2804411E-003  0.1949188E+03  0.7818608E-02  0.1157076E+00
         11   -1    0    0    0    0  0.00000000000E+00  0.00000000000E+00  0.10002268940E+04  0.10002268940E+04  0.51100000000E-03 0.  1.
          2   -1    0    0  501    0 -0.00000000000E+00 -0.00000000000E+00 -0.75132962978E+03  0.75132962979E+03  0.25500000000E-02 0.  1.
         11    1    1    2    0    0  0.12789658942E+02 -0.10895080084E+01  0.42843675746E+02  0.44725193741E+02  0.51100000000E-03 0.  1.
         22    1    1    2    0    0  0.13723798724E+03 -0.11799371582E+03  0.93540184711E+03  0.95275043831E+03  0.00000000000E+00 0.  1.
          2    1    1    2  501    0 -0.15002764619E+03  0.11908322383E+03 -0.72934825867E+03  0.75408089171E+03  0.25500000000E-02 0.  1.
<mgrwt>
<rscale>  0 0.19154401E+03</rscale>
<asrwt>0</asrwt>
<pdfrwt beam="1">  1       11 0.10000000E+01 0.19491879E+03</pdfrwt>
<pdfrwt beam="2">  1        2 0.11561540E+00 0.19154401E+03</pdfrwt>
<totfact> 0.48523948E+01</totfact>
</mgrwt>
</event>
<event>
 5    1  0.2804411E-003  0.8637483E+02  0.7818608E-02  0.1506066E+00
         11   -1    0    0    0    0  0.00000000000E+00  0.00000000000E+00  0.10003465085E+04  0.10003465085E+04  0.51100000000E-03 0.  1.
          2   -1    0    0  501    0 -0.00000000000E+00 -0.00000000000E+00 -0.12950475433E+02  0.12950475684E+02  0.25500000000E-02 0.  1.
         11    1    1    2    0    0  0.23757041221E+02  0.84966881059E+02  0.47715297641E+03  0.48524089974E+03  0.51100000000E-03 0.  1.
         22    1    1    2    0    0 -0.59442103065E+02 -0.66255863387E+02  0.26564567027E+03  0.28016214088E+03  0.00000000000E+00 0.  1.
          2    1    1    2  501    0  0.35685061844E+02 -0.18711017672E+02  0.24459738644E+03  0.24789394361E+03  0.25500000000E-02 0.  1.
<mgrwt>
<rscale>  0 0.40293000E+02</rscale>
<asrwt>0</asrwt>
<pdfrwt beam="1">  1       11 0.10000000E+01 0.86374833E+02</pdfrwt>
<pdfrwt beam="2">  1        2 0.19930712E-02 0.40293000E+02</pdfrwt>
<totfact> 0.53163466E+03</totfact>
</mgrwt>
</event>
<event>
 5    1  0.2804411E-003  0.2112512E+03  0.7818608E-02  0.1140579E+00
         11   -1    0    0    0    0  0.00000000000E+00  0.00000000000E+00  0.10004240209E+04  0.10004240209E+04  0.51100000000E-03 0. -1.
          2   -1    0    0  501    0 -0.00000000000E+00 -0.00000000000E+00 -0.20826898114E+03  0.20826898116E+03  0.25500000000E-02 0. -1.
         11    1    1    2    0    0  0.23849375369E+02  0.14074570671E+03  0.39432456050E+03  0.41936857974E+03  0.51100000000E-03 0. -1.
         22    1    1    2    0    0 -0.63113278975E+02  0.79268989252E+02  0.52330200292E+03  0.53302143006E+03  0.00000000000E+00 0. -1.
          2    1    1    2  501    0  0.39263903606E+02 -0.22001469596E+03 -0.12547152369E+03  0.25630299223E+03  0.25500000000E-02 0. -1.
<mgrwt>
<rscale>  0 0.21125123E+03</rscale>
<asrwt>0</asrwt>
<pdfrwt beam="1">  1       11 0.10000000E+01 0.10132551E+03</pdfrwt>
<pdfrwt beam="2">  1        2 0.32054967E-01 0.21125123E+03</pdfrwt>
<totfact> 0.20113649E+02</totfact>
</mgrwt>
</event>
<event>
 5    1  0.2804411E-003  0.3490202E+03  0.7818608E-02  0.1063018E+00
         11   -1    0    0    0    0  0.00000000000E+00  0.00000000000E+00  0.10001158583E+04  0.10001158583E+04  0.51100000000E-03 0.  1.
          2   -1    0    0  501    0 -0.00000000000E+00 -0.00000000000E+00 -0.16290584084E+03  0.16290584086E+03  0.25500000000E-02 0.  1.
         11    1    1    2    0    0  0.21372882907E+03  0.26728960607E+03  0.55462777524E+03  0.65171751163E+03  0.51100000000E-03 0.  1.
         22    1    1    2    0    0 -0.39288665236E+02  0.40454578529E+02  0.96076061665E+02  0.11140368829E+03  0.00000000000E+00 0. -1.
          2    1    1    2  501    0 -0.17444016383E+03 -0.30774418460E+03  0.18650618057E+03  0.39990049926E+03  0.25500000000E-02 0.  1.
<mgrwt>
<rscale>  0 0.34902025E+03</rscale>
<asrwt>0</asrwt>
<pdfrwt beam="1">  1       11 0.10000000E+01 0.56393015E+02</pdfrwt>
<pdfrwt beam="2">  1        2 0.25065340E-01 0.34902025E+03</pdfrwt>
<totfact> 0.26647061E+02</totfact>
</mgrwt>
</event>
<event>
 5    1  0.2804411E-003  0.5399175E+02  0.7818608E-02  0.1429281E+00
         11   -1    0    0    0    0  0.00000000000E+00  0.00000000000E+00  0.10001333274E+04  0.10001333274E+04  0.51100000000E-03 0. -1.
          2   -1    0    0  501    0 -0.00000000000E+00 -0.00000000000E+00 -0.40875146638E+01  0.40875154592E+01  0.25500000000E-02 0. -1.
         11    1    1    2    0    0 -0.40747678969E+02  0.14124353185E+01  0.15419273212E+03  0.15949221597E+03  0.51100000000E-03 0. -1.
         22    1    1    2    0    0 -0.12342469816E+02 -0.17358679685E+00  0.72360355612E+02  0.73405638460E+02  0.00000000000E+00 0. -1.
          2    1    1    2  501    0  0.53090148785E+02 -0.12388485216E+01  0.76949272501E+03  0.77132298843E+03  0.25500000000E-02 0. -1.
<mgrwt>
<rscale>  0 0.53104601E+02</rscale>
<asrwt>0</asrwt>
<pdfrwt beam="1">  1       11 0.10000000E+01 0.53991750E+02</pdfrwt>
<pdfrwt beam="2">  1        2 0.62893230E-03 0.53104601E+02</pdfrwt>
<totfact> 0.26065085E+04</totfact>
</mgrwt>
</event>
<event>
 5    1  0.2804411E-003  0.1361278E+03  0.7818608E-02  0.1221976E+00
         11   -1    0    0    0    0  0.00000000000E+00  0.00000000000E+00  0.10001199213E+04  0.10001199213E+04  0.51100000000E-03 0.  1.
          2   -1    0    0  501    0 -0.00000000000E+00 -0.00000000000E+00 -0.21391544378E+02  0.21391544530E+02  0.25500000000E-02 0.  1.
         11    1    1    2    0    0  0.10745263005E+03 -0.59893671208E+02  0.27684831979E+03  0.30294935505E+03  0.51100000000E-03 0.  1.
         22    1    1    2    0    0  0.60378442853E+01 -0.10906411327E+02  0.19139435020E+02  0.22841264075E+02  0.00000000000E+00 0.  1.
          2    1    1    2  501    0 -0.11349047433E+03  0.70800082535E+02  0.68274062211E+03  0.69572084670E+03  0.25500000000E-02 0.  1.
<mgrwt>
<rscale>  0 0.13376374E+03</rscale>
<asrwt>0</asrwt>
<pdfrwt beam="1">  1       11 0.10000000E+01 0.13612779E+03</pdfrwt>
<pdfrwt beam="2">  1        2 0.32914014E-02 0.13376374E+03</pdfrwt>
<totfact> 0.31815769E+03</totfact>
</mgrwt>
</event>
<event>
 5    1  0.2804411E-003  0.2016309E+03  0.7818608E-02  0.1159708E+00
         11   -1    0    0    0    0  0.00000000000E+00  0.00000000000E+00  0.10002880201E+04  0.10002880201E+04  0.51100000000E-03 0.  1.
          2   -1    0    0  501    0 -0.00000000000E+00 -0.00000000000E+00 -0.38778343104E+02  0.38778343187E+02  0.25500000000E-02 0.  1.
         11    1    1    2    0    0 -0.13094631875E+03 -0.22914684299E+02  0.30474256172E+03  0.33247563832E+03  0.51100000000E-03 0.  1.
         22    1    1    2    0    0 -0.47248082469E+02 -0.38938789928E+02  0.26222454840E+03  0.26927741168E+03  0.00000000000E+00 0. -1.
          2    1    1    2  501    0  0.17819440122E+03  0.61853474227E+02  0.39454256692E+03  0.43731331333E+03  0.25500000000E-02 0.  1.
<mgrwt>
<rscale>  0 0.18862422E+03</rscale>
<asrwt>0</asrwt>
<pdfrwt beam="1">  1       11 0.10000000E+01 0.20163092E+03</pdfrwt>
<pdfrwt beam="2">  1        2 0.59676171E-02 0.18862422E+03</pdfrwt>
<totfact> 0.14920614E+03</totfact>
</mgrwt>
</event>
<event>
 5    1  0.2804411E-003  0.1334205E+03  0.7818608E-02  0.1658575E+00
         11   -1    0    0    0    0  0.00000000000E+00  0.00000000000E+00  0.10007920132E+04  0.10007920132E+04  0.51100000000E-03 0.  1.
          2   -1    0    0  501    0 -0.00000000000E+00 -0.00000000000E+00 -0.40957070401E+03  0.40957070402E+03  0.25500000000E-02 0.  1.
         11    1    1    2    0    0 -0.13425686171E+03 -0.42971737489E+02  0.43855655626E+03  0.46065532470E+03  0.51100000000E-03 0.  1.
         22    1    1    2    0    0  0.11477305285E+03  0.58905956150E+02  0.54322680916E+03  0.55833514265E+03  0.00000000000E+00 0.  1.
          2    1    1    2  501    0  0.19483808859E+02 -0.15934218661E+02 -0.39056205627E+03  0.39137224983E+03  0.25500000000E-02 0.  1.
<mgrwt>
<rscale>  0 0.25169786E+02</rscale>
<asrwt>0</asrwt>
<pdfrwt beam="1">  1       11 0.10000000E+01 0.13342049E+03</pdfrwt>
<pdfrwt beam="2">  1        2 0.63060781E-01 0.25169786E+02</pdfrwt>
<totfact> 0.97634627E+01</totfact>
</mgrwt>
</event>
<event>
 5    1  0.2804411E-003  0.8485772E+02  0.7818608E-02  0.1401086E+00
         11   -1    0    0    0    0  0.00000000000E+00  0.00000000000E+00  0.10000191833E+04  0.10000191833E+04  0.51100000000E-03 0.  1.
          2   -1    0    0  501    0 -0.00000000000E+00 -0.00000000000E+00 -0.12373927648E+02  0.12373927910E+02  0.25500000000E-02 0.  1.
         11    1    1    2    0    0  0.25480599443E+02 -0.65853960788E+02  0.23680067238E+03  0.24710435759E+03  0.51100000000E-03 0.  1.
         22    1    1    2    0    0  0.40945673668E+02 -0.57256026266E+01  0.11980895169E+03  0.12674192528E+03  0.00000000000E+00 0.  1.
          2    1    1    2  501    0 -0.66426273111E+02  0.71579563414E+02  0.63103563154E+03  0.63854682830E+03  0.25500000000E-02 0.  1.
<mgrwt>
<rscale>  0 0.59231412E+02</rscale>
<asrwt>0</asrwt>
<pdfrwt beam="1">  1       11 0.10000000E+01 0.84857716E+02</pdfrwt>
<pdfrwt beam="2">  1        2 0.19037177E-02 0.59231412E+02</pdfrwt>
<totfact> 0.59908218E+03</totfact>
</mgrwt>
</event>
<event>
 5    1  0.2804411E-003  0.1950052E+03  0.7818608E-02  0.1154902E+00
         11   -1    0    0    0    0  0.00000000000E+00  0.00000000000E+00  0.10003018867E+04  0.10003018867E+04  0.51100000000E-03 0. -1.
          2   -1    0    0  501    0 -0.00000000000E+00 -0.00000000000E+00 -0.46847290644E+02  0.46847290714E+02  0.25500000000E-02 0.  1.
         11    1    1    2    0    0 -0.86319097968E+02  0.16233926696E+03  0.68192080794E+03  0.70627261915E+03  0.51100000000E-03 0. -1.
         22    1    1    2    0    0 -0.26643842061E+01  0.10050634357E+02  0.25633739646E+02  0.27662299298E+02  0.00000000000E+00 0.  1.
          2    1    1    2  501    0  0.88983482174E+02 -0.17238990131E+03  0.24590004849E+03  0.31321425898E+03  0.25500000000E-02 0.  1.
<mgrwt>
<rscale>  0 0.19400087E+03</rscale>
<asrwt>0</asrwt>
<pdfrwt beam="1">  1       11 0.10000000E+01 0.19500520E+03</pdfrwt>
<pdfrwt beam="2">  1        2 0.72094511E-02 0.19400087E+03</pdfrwt>
<totfact> 0.11712717E+03</totfact>
</mgrwt>
</event>
<event>
 5    1  0.2804411E-003  0.3610711E+03  0.7818608E-02  0.1062007E+00
         11   -1    0    0    0    0  0.00000000000E+00  0.00000000000E+00  0.10002127594E+04  0.10002127594E+04  0.51100000000E-03 0. -1.
          2   -1    0    0  501    0 -0.00000000000E+00 -0.00000000000E+00 -0.16908620538E+03  0.16908620540E+03  0.25500000000E-02 0. -1.
         11    1    1    2    0    0 -0.11686081848E+03  0.16848860033E+03  0.92100777281E+02  0.22478303431E+03  0.51100000000E-03 0. -1.
         22    1    1    2    0    0 -0.28616922079E+02  0.15147613789E+03  0.35672686956E+02  0.15822922984E+03  0.00000000000E+00 0. -1.
          2    1    1    2  501    0  0.14547774056E+03 -0.31996473822E+03  0.70335308979E+03  0.78628670066E+03  0.25500000000E-02 0. -1.
<mgrwt>
<rscale>  0 0.35148429E+03</rscale>
<asrwt>0</asrwt>
<pdfrwt beam="1">  1       11 0.10000000E+01 0.36107110E+03</pdfrwt>
<pdfrwt beam="2">  1        2 0.26018796E-01 0.35148429E+03</pdfrwt>
<totfact> 0.25549816E+02</totfact>
</mgrwt>
</event>
<event>
 5    1  0.2804411E-003  0.7236648E+02  0.7818608E-02  0.1532151E+00
         11   -1    0    0    0    0  0.00000000000E+00  0.00000000000E+00  0.10002518869E+04  0.10002518869E+04  0.51100000000E-03 0.  1.
          2   -1    0    0  501    0 -0.00000000000E+00 -0.00000000000E+00 -0.19424478831E+02  0.19424478998E+02  0.25500000000E-02 0.  1.
         11    1    1    2    0    0  0.56218919446E+02  0.62175821074E+02  0.93485921160E+02  0.12556280136E+03  0.51100000000E-03 0.  1.
         22    1    1    2    0    0 -0.18790343279E+02 -0.13651662864E+01  0.45460045352E+02  0.49209312157E+02  0.00000000000E+00 0. -1.
          2    1    1    2  501    0 -0.37428576167E+02 -0.60810654788E+02  0.84188144160E+03  0.84490425243E+03  0.25500000000E-02 0.  1.
<mgrwt>
<rscale>  0 0.36923899E+02</rscale>
<asrwt>0</asrwt>
<pdfrwt beam="1">  1       11 0.10000000E+01 0.72366480E+02</pdfrwt>
<pdfrwt beam="2">  1        2 0.29891340E-02 0.36923899E+02</pdfrwt>
<totfact> 0.30988809E+03</totfact>
</mgrwt>
</event>
<event>
 5    1  0.2804411E-003  0.1557150E+03  0.7818608E-02  0.1245092E+00
         11   -1    0    0    0    0  0.00000000000E+00  0.00000000000E+00  0.99962755027E+03  0.99962755027E+03  0.51100000000E-03 0.  1.
          2   -1    0    0  501    0 -0.00000000000E+00 -0.00000000000E+00 -0.12532792963E+04  0.12532792963E+04  0.25500000000E-02 0.  1.
         11    1    1    2    0    0  0.92994306916E+02  0.99151713682E+02  0.45813586107E+03  0.47787809182E+03  0.51100000000E-03 0.  1.
         22    1    1    2    0    0 -0.20680909165E+03 -0.65102180334E+02  0.50650439825E+03  0.55095825587E+03  0.00000000000E+00 0. -1.
          2    1    1    2  501    0  0.11381478473E+03 -0.34049533348E+02 -0.12182920053E+04  0.12240704989E+04  0.25500000000E-02 0.  1.
<mgrwt>
<rscale>  0 0.11879889E+03</rscale>
<asrwt>0</asrwt>
<pdfrwt beam="1">  1       11 0.10000000E+01 0.15571502E+03</pdfrwt>
<pdfrwt beam="2">  1        2 0.19274038E+00 0.11879889E+03</pdfrwt>
<totfact> 0.24614823E+01</totfact>
</mgrwt>
</event>
<event>
 5    1  0.2804411E-003  0.4551842E+02  0.7818608E-02  0.1577184E+00
         11   -1    0    0    0    0  0.00000000000E+00  0.00000000000E+00  0.10004667823E+04  0.10004667823E+04  0.51100000000E-03 0.  1.
          2   -1    0    0  501    0 -0.00000000000E+00 -0.00000000000E+00 -0.55012971603E+01  0.55012977513E+01  0.25500000000E-02 0.  1.
         11    1    1    2    0    0  0.47182138399E+02  0.15022996769E+02  0.23371794456E+03  0.23890567642E+03  0.51100000000E-03 0.  1.
         22    1    1    2    0    0 -0.22163290618E+01 -0.22358183145E+02  0.55918229480E+02  0.60263163344E+02  0.00000000000E+00 0. -1.
          2    1    1    2  501    0 -0.44965809338E+02  0.73351863760E+01  0.70532931108E+03  0.70679924027E+03  0.25500000000E-02 0.  1.
<mgrwt>
<rscale>  0 0.31979629E+02</rscale>
<asrwt>0</asrwt>
<pdfrwt beam="1">  1       11 0.10000000E+01 0.45518421E+02</pdfrwt>
<pdfrwt beam="2">  1        2 0.84674849E-03 0.31979629E+02</pdfrwt>
<totfact> 0.15750285E+04</totfact>
</mgrwt>
</event>
<event>
 5    1  0.2804411E-003  0.2718447E+03  0.7818608E-02  0.1109813E+00
         11   -1    0    0    0    0  0.00000000000E+00  0.00000000000E+00  0.99990388639E+03  0.99990388639E+03  0.51100000000E-03 0. -1.
         -2   -1    0    0    0  501 -0.00000000000E+00 -0.00000000000E+00 -0.15915230588E+04  0.15915230588E+04  0.25500000000E-02 0.  1.
         11    1    1    2    0    0 -0.10091318006E+03  0.10059293255E+03  0.65041643648E+03  0.66584078340E+03  0.51100000000E-03 0. -1.
         22    1    1    2    0    0 -0.36714154206E+02  0.11479595041E+03  0.32043230175E+03  0.34234908990E+03  0.00000000000E+00 0. -1.
         -2    1    1    2    0  501  0.13762733427E+03 -0.21538888296E+03 -0.15624679106E+04  0.15832370719E+04  0.25500000000E-02 0.  1.
<mgrwt>
<rscale>  0 0.25560449E+03</rscale>
<asrwt>0</asrwt>
<pdfrwt beam="1">  1       11 0.10000000E+01 0.27184471E+03</pdfrwt>
<pdfrwt beam="2">  1       -2 0.24482616E+00 0.25560449E+03</pdfrwt>
<totfact> 0.62820192E-01</totfact>
</mgrwt>
</event>
<event>
 5    1  0.2804411E-003  0.1644002E+03  0.7818608E-02  0.1183817E+00
         11   -1    0    0    0    0  0.00000000000E+00  0.00000000000E+00  0.10002069556E+04  0.10002069556E+04  0.51100000000E-03 0.  1.
          2   -1    0    0  501    0 -0.00000000000E+00 -0.00000000000E+00 -0.35756312859E+02  0.35756312949E+02  0.25500000000E-02 0.  1.
         11    1    1    2    0    0  0.26190498680E+02 -0.23944989414E+02  0.55038360121E+02  0.65486837030E+02  0.51100000000E-03 0.  1.
         22    1    1    2    0    0 -0.39389605496E+01  0.17363513413E+03  0.34670702908E+03  0.38777627471E+03  0.00000000000E+00 0.  1.
          2    1    1    2  501    0 -0.22251538130E+02 -0.14969014472E+03  0.56270525355E+03  0.58270015682E+03  0.25500000000E-02 0.  1.
<mgrwt>
<rscale>  0 0.16440021E+03</rscale>
<asrwt>0</asrwt>
<pdfrwt beam="1">  1       11 0.10000000E+01 0.35486702E+02</pdfrwt>
<pdfrwt beam="2">  1        2 0.55021095E-02 0.16440021E+03</pdfrwt>
<totfact> 0.16420587E+03</totfact>
</mgrwt>
</event>
<event>
 5    1  0.2804411E-003  0.3652506E+03  0.7818608E-02  0.1071232E+00
         11   -1    0    0    0    0  0.00000000000E+00  0.00000000000E+00  0.10000616988E+04  0.10000616988E+04  0.51100000000E-03 0. -1.
          2   -1    0    0  501    0 -0.00000000000E+00 -0.00000000000E+00 -0.57131937291E+03  0.57131937292E+03  0.25500000000E-02 0. -1.
         11    1    1    2    0    0  0.66505422521E+02 -0.98150476790E+02  0.15596357824E+03  0.19591101311E+03  0.51100000000E-03 0. -1.
         22    1    1    2    0    0  0.47702579968E+02 -0.21122710025E+03  0.75825796170E+03  0.78857311678E+03  0.00000000000E+00 0. -1.
          2    1    1    2  501    0 -0.11420800249E+03  0.30937757704E+03 -0.48547921408E+03  0.58689694182E+03  0.25500000000E-02 0. -1.
<mgrwt>
<rscale>  0 0.32978471E+03</rscale>
<asrwt>0</asrwt>
<pdfrwt beam="1">  1       11 0.10000000E+01 0.36525057E+03</pdfrwt>
<pdfrwt beam="2">  1        2 0.87900709E-01 0.32978471E+03</pdfrwt>
<totfact> 0.66324916E+01</totfact>
</mgrwt>
</event>
<event>
 5    1  0.2804411E-003  0.2249067E+03  0.7818608E-02  0.1131097E+00
         11   -1    0    0    0    0  0.00000000000E+00  0.00000000000E+00  0.10001979477E+04  0.10001979477E+04  0.51100000000E-03 0. -1.
          2   -1    0    0  501    0 -0.00000000000E+00 -0.00000000000E+00 -0.50320020744E+02  0.50320020808E+02  0.25500000000E-02 0. -1.
         11    1    1    2    0    0  0.54953313324E+02  0.20690933016E+03  0.44928983274E+03  0.49768734297E+03  0.51100000000E-03 0. -1.
         22    1    1    2    0    0 -0.21252190555E+01  0.10544604925E+02  0.25599167787E+02  0.27767294439E+02  0.00000000000E+00 0.  1.
          2    1    1    2  501    0 -0.52828094268E+02 -0.21745393508E+03  0.47498892644E+03  0.52506333111E+03  0.25500000000E-02 0. -1.
<mgrwt>
<rscale>  0 0.22377896E+03</rscale>
<asrwt>0</asrwt>
<pdfrwt beam="1">  1       11 0.10000000E+01 0.22490668E+03</pdfrwt>
<pdfrwt beam="2">  1        2 0.77430739E-02 0.22377896E+03</pdfrwt>
<totfact> 0.10782895E+03</totfact>
</mgrwt>
</event>
<event>
 5    1  0.2804411E-003  0.2691102E+02  0.7818608E-02  0.1777440E+00
         11   -1    0    0    0    0  0.00000000000E+00  0.00000000000E+00  0.10002643653E+04  0.10002643653E+04  0.51100000000E-03 0. -1.
         -2   -1    0    0    0  501 -0.00000000000E+00 -0.00000000000E+00 -0.29546902790E+01  0.29546913793E+01  0.25500000000E-02 0. -1.
         11    1    1    2    0    0  0.55830034604E+01 -0.19412253467E+02  0.79447282133E+02  0.81974850722E+02  0.51100000000E-03 0. -1.
         22    1    1    2    0    0  0.12435907480E+02 -0.25044262621E+01  0.25990334607E+02  0.28920951553E+02  0.00000000000E+00 0.  1.
         -2    1    1    2    0  501 -0.18018910940E+02  0.21916679729E+02  0.89187205826E+03  0.89232325439E+03  0.25500000000E-02 0. -1.
<mgrwt>
<rscale>  0 0.18476519E+02</rscale>
<asrwt>0</asrwt>
<pdfrwt beam="1">  1       11 0.10000000E+01 0.26911023E+02</pdfrwt>
<pdfrwt beam="2">  1       -2 0.45468798E-03 0.18476519E+02</pdfrwt>
<totfact> 0.30244663E+04</totfact>
</mgrwt>
</event>
<event>
 5    1  0.2804411E-003  0.2518597E+03  0.7818608E-02  0.1113004E+00
         11   -1    0    0    0    0  0.00000000000E+00  0.00000000000E+00  0.10000638474E+04  0.10000638474E+04  0.51100000000E-03 0. -1.
          2   -1    0    0  501    0 -0.00000000000E+00 -0.00000000000E+00 -0.15399058366E+03  0.15399058368E+03  0.25500000000E-02 0. -1.
         11    1    1    2    0    0  0.10111460740E+03  0.20981061850E+03  0.77993663259E+03  0.81396917037E+03  0.51100000000E-03 0. -1.
         22    1    1    2    0    0  0.10555464324E+02  0.14396105938E+02  0.86932293247E+02  0.88746207256E+02  0.00000000000E+00 0. -1.
          2    1    1    2  501    0 -0.11167007172E+03 -0.22420672444E+03 -0.20795662136E+02  0.25133905341E+03  0.25500000000E-02 0. -1.
<mgrwt>
<rscale>  0 0.25047726E+03</rscale>
<asrwt>0</asrwt>
<pdfrwt beam="1">  1       11 0.10000000E+01 0.25185972E+03</pdfrwt>
<pdfrwt beam="2">  1        2 0.23692371E-01 0.25047726E+03</pdfrwt>
<totfact> 0.28211197E+02</totfact>
</mgrwt>
</event>
<event>
 5    1  0.2804411E-003  0.1418719E+03  0.7818608E-02  0.1215063E+00
         11   -1    0    0    0    0  0.00000000000E+00  0.00000000000E+00  0.10003641142E+04  0.10003641142E+04  0.51100000000E-03 0. -1.
          2   -1    0    0  501    0 -0.00000000000E+00 -0.00000000000E+00 -0.22497194798E+02  0.22497194943E+02  0.25500000000E-02 0. -1.
         11    1    1    2    0    0 -0.70360259781E+02 -0.10713179233E+03  0.61180339080E+03  0.62508493509E+03  0.51100000000E-03 0. -1.
         22    1    1    2    0    0 -0.13215701686E+02 -0.35846275922E+01  0.63042651431E+02  0.64512636169E+02  0.00000000000E+00 0.  1.
          2    1    1    2  501    0  0.83575961466E+02  0.11071641993E+03  0.30302087713E+03  0.33326373784E+03  0.25500000000E-02 0. -1.
<mgrwt>
<rscale>  0 0.13871938E+03</rscale>
<asrwt>0</asrwt>
<pdfrwt beam="1">  1       11 0.10000000E+01 0.14187188E+03</pdfrwt>
<pdfrwt beam="2">  1        2 0.34623670E-02 0.13871938E+03</pdfrwt>
<totfact> 0.29837802E+03</totfact>
</mgrwt>
</event>
<event>
 5    1  0.2804411E-003  0.2666444E+03  0.7818608E-02  0.1397348E+00
         11   -1    0    0    0    0  0.00000000000E+00  0.00000000000E+00  0.99951886370E+03  0.99951886370E+03  0.51100000000E-03 0. -1.
          2   -1    0    0  501    0 -0.00000000000E+00 -0.00000000000E+00 -0.25300321237E+04  0.25300321237E+04  0.25500000000E-02 0.  1.
         11    1    1    2    0    0  0.23704890077E+03 -0.15545219119E+03  0.52222103641E+03  0.59419893636E+03  0.51100000000E-03 0. -1.
         22    1    1    2    0    0 -0.18059325829E+03  0.17610730302E+03  0.40486638047E+03  0.47701623992E+03  0.00000000000E+00 0. -1.
          2    1    1    2  501    0 -0.56455642484E+02 -0.20655111828E+02 -0.24576006769E+04  0.24583358112E+04  0.25500000000E-02 0.  1.
<mgrwt>
<rscale>  0 0.60115499E+02</rscale>
<asrwt>0</asrwt>
<pdfrwt beam="1">  1       11 0.10000000E+01 0.26664437E+03</pdfrwt>
<pdfrwt beam="2">  1        2 0.38904842E+00 0.60115499E+02</pdfrwt>
<totfact> 0.59248162E+00</totfact>
</mgrwt>
</event>
<event>
 5    1  0.2804411E-003  0.9322883E+02  0.7818608E-02  0.1295216E+00
         11   -1    0    0    0    0  0.00000000000E+00  0.00000000000E+00  0.10001424460E+04  0.10001424460E+04  0.51100000000E-03 0. -1.
         -2   -1    0    0    0  501 -0.00000000000E+00 -0.00000000000E+00 -0.61359448733E+02  0.61359448786E+02  0.25500000000E-02 0.  1.
         11    1    1    2    0    0  0.60794584959E+02 -0.13040250732E+03  0.63626255662E+03  0.65232724643E+03  0.51100000000E-03 0. -1.
         22    1    1    2    0    0  0.12582169070E+02  0.76667201780E+02  0.30840053379E+03  0.31803625587E+03  0.00000000000E+00 0. -1.
         -2    1    1    2    0  501 -0.73376754029E+02  0.53735305542E+02 -0.58800930886E+01  0.91138392540E+02  0.25500000000E-02 0.  1.
<mgrwt>
<rscale>  0 0.93228827E+02</rscale>
<asrwt>0</asrwt>
<pdfrwt beam="1">  1       11 0.10000000E+01 0.77692798E+02</pdfrwt>
<pdfrwt beam="2">  1       -2 0.94412596E-02 0.93228827E+02</pdfrwt>
<totfact> 0.54481620E+02</totfact>
</mgrwt>
</event>
<event>
 5    1  0.2804411E-003  0.1840754E+03  0.7818608E-02  0.1171785E+00
         11   -1    0    0    0    0  0.00000000000E+00  0.00000000000E+00  0.10001338487E+04  0.10001338487E+04  0.51100000000E-03 0.  1.
          2   -1    0    0  501    0 -0.00000000000E+00 -0.00000000000E+00 -0.48429186478E+02  0.48429186545E+02  0.25500000000E-02 0.  1.
         11    1    1    2    0    0 -0.20266203337E+02  0.94712736659E+02  0.31394551224E+03  0.32854680966E+03  0.51100000000E-03 0.  1.
         22    1    1    2    0    0 -0.29523647359E+02  0.74041792647E+02  0.47067199339E+03  0.47737402335E+03  0.00000000000E+00 0.  1.
          2    1    1    2  501    0  0.49789850696E+02 -0.16875452931E+03  0.16708715656E+03  0.24264220220E+03  0.25500000000E-02 0.  1.
<mgrwt>
<rscale>  0 0.17594636E+03</rscale>
<asrwt>0</asrwt>
<pdfrwt beam="1">  1       11 0.10000000E+01 0.18407542E+03</pdfrwt>
<pdfrwt beam="2">  1        2 0.74516411E-02 0.17594636E+03</pdfrwt>
<totfact> 0.11159746E+03</totfact>
</mgrwt>
</event>
<event>
 5    1  0.2804411E-003  0.1600363E+03  0.7818608E-02  0.1281357E+00
         11   -1    0    0    0    0  0.00000000000E+00  0.00000000000E+00  0.10001990297E+04  0.10001990297E+04  0.51100000000E-03 0. -1.
          2   -1    0    0  501    0 -0.00000000000E+00 -0.00000000000E+00 -0.57672896160E+02  0.57672896217E+02  0.25500000000E-02 0. -1.
         11    1    1    2    0    0  0.58612094094E+02  0.14407508433E+03  0.33771832389E+03  0.37181537594E+03  0.51100000000E-03 0. -1.
         22    1    1    2    0    0 -0.14699304666E+03 -0.98375261766E+02  0.53769851091E+03  0.56604269850E+03  0.00000000000E+00 0. -1.
          2    1    1    2  501    0  0.88380952566E+02 -0.45699822568E+02  0.67109298736E+02  0.12001385146E+03  0.25500000000E-02 0. -1.
<mgrwt>
<rscale>  0 0.99497068E+02</rscale>
<asrwt>0</asrwt>
<pdfrwt beam="1">  1       11 0.10000000E+01 0.16003626E+03</pdfrwt>
<pdfrwt beam="2">  1        2 0.88745189E-02 0.99497068E+02</pdfrwt>
<totfact> 0.86426244E+02</totfact>
</mgrwt>
</event>
<event>
 5    1  0.2804411E-003  0.1180146E+03  0.7818608E-02  0.1254219E+00
         11   -1    0    0    0    0  0.00000000000E+00  0.00000000000E+00  0.10003874758E+04  0.10003874758E+04  0.51100000000E-03 0. -1.
          2   -1    0    0  501    0 -0.00000000000E+00 -0.00000000000E+00 -0.13620674647E+02  0.13620674886E+02  0.25500000000E-02 0. -1.
         11    1    1    2    0    0  0.18339430197E+02  0.13330422986E+02  0.88840247143E+02  0.91687645786E+02  0.51100000000E-03 0. -1.
         22    1    1    2    0    0  0.26101800717E+02  0.91109091461E+02  0.47928413986E+03  0.48856469098E+03  0.00000000000E+00 0. -1.
          2    1    1    2  501    0 -0.44441230913E+02 -0.10443951445E+03  0.41864241418E+03  0.43375581395E+03  0.25500000000E-02 0. -1.
<mgrwt>
<rscale>  0 0.11350170E+03</rscale>
<asrwt>0</asrwt>
<pdfrwt beam="1">  1       11 0.10000000E+01 0.11801464E+03</pdfrwt>
<pdfrwt beam="2">  1        2 0.20963003E-02 0.11350170E+03</pdfrwt>
<totfact> 0.57388031E+03</totfact>
</mgrwt>
</event>
<event>
 5    1  0.2804411E-003  0.9425130E+02  0.7818608E-02  0.1296907E+00
         11   -1    0    0    0    0  0.00000000000E+00  0.00000000000E+00  0.10004698621E+04  0.10004698621E+04  0.51100000000E-03 0. -1.
          2   -1    0    0  501    0 -0.00000000000E+00 -0.00000000000E+00 -0.24036454377E+02  0.24036454512E+02  0.25500000000E-02 0. -1.
         11    1    1    2    0    0  0.76488585751E+02 -0.31692950345E+02  0.68622415856E+02  0.10753596054E+03  0.51100000000E-03 0. -1.
         22    1    1    2    0    0  0.11107450246E+02  0.19735354900E+01  0.12282244918E+02  0.16677045107E+02  0.00000000000E+00 0. -1.
          2    1    1    2  501    0 -0.87596035997E+02  0.29719414855E+02  0.89552874690E+03  0.90029331091E+03  0.25500000000E-02 0. -1.
<mgrwt>
<rscale>  0 0.92500320E+02</rscale>
<asrwt>0</asrwt>
<pdfrwt beam="1">  1       11 0.10000000E+01 0.94251295E+02</pdfrwt>
<pdfrwt beam="2">  1        2 0.36996535E-02 0.92500320E+02</pdfrwt>
<totfact> 0.26250759E+03</totfact>
</mgrwt>
</event>
<event>
 5    1  0.2804411E-003  0.1539368E+03  0.7818608E-02  0.1197400E+00
         11   -1    0    0    0    0  0.00000000000E+00  0.00000000000E+00  0.99992744218E+03  0.99992744218E+03  0.51100000000E-03 0.  1.
          2   -1    0    0  501    0 -0.00000000000E+00 -0.00000000000E+00 -0.25968876001E+02  0.25968876126E+02  0.25500000000E-02 0.  1.
         11    1    1    2    0    0 -0.45963490369E+02 -0.12545177688E+03  0.55140614994E+03  0.56736190651E+03  0.51100000000E-03 0.  1.
         22    1    1    2    0    0  0.50035146453E+00 -0.20143296093E+02  0.96334799655E+02  0.98419491736E+02  0.00000000000E+00 0.  1.
          2    1    1    2  501    0  0.45463138905E+02  0.14559507297E+03  0.32621761659E+03  0.36011492006E+03  0.25500000000E-02 0.  1.
<mgrwt>
<rscale>  0 0.15252810E+03</rscale>
<asrwt>0</asrwt>
<pdfrwt beam="1">  1       11 0.10000000E+01 0.15393678E+03</pdfrwt>
<pdfrwt beam="2">  1        2 0.39949217E-02 0.15252810E+03</pdfrwt>
<totfact> 0.24875716E+03</totfact>
</mgrwt>
</event>
<event>
 5    1  0.2804411E-003  0.7077887E+02  0.7818608E-02  0.1508561E+00
         11   -1    0    0    0    0  0.00000000000E+00  0.00000000000E+00  0.10000209084E+04  0.10000209084E+04  0.51100000000E-03 0. -1.
         -2   -1    0    0    0  501 -0.00000000000E+00 -0.00000000000E+00 -0.11164995983E+02  0.11164996274E+02  0.25500000000E-02 0. -1.
         11    1    1    2    0    0  0.39817458165E+02 -0.44619449471E+02  0.16033714541E+03  0.17112663570E+03  0.51100000000E-03 0. -1.
         22    1    1    2    0    0  0.22351291576E+02  0.30018788964E+01  0.27545836504E+02  0.35600064898E+02  0.00000000000E+00 0. -1.
         -2    1    1    2    0  501 -0.62168749741E+02  0.41617570574E+02  0.80097293046E+03  0.80445920404E+03  0.25500000000E-02 0. -1.
<mgrwt>
<rscale>  0 0.39952501E+02</rscale>
<asrwt>0</asrwt>
<pdfrwt beam="1">  1       11 0.10000000E+01 0.70778866E+02</pdfrwt>
<pdfrwt beam="2">  1       -2 0.17177276E-02 0.39952501E+02</pdfrwt>
<totfact> 0.59252615E+03</totfact>
</mgrwt>
</event>
<event>
 5    1  0.2804411E-003  0.2412396E+03  0.7818608E-02  0.1118970E+00
         11   -1    0    0    0    0  0.00000000000E+00  0.00000000000E+00  0.10011826290E+04  0.10011826290E+04  0.51100000000E-03 0. -1.
          2   -1    0    0  501    0 -0.00000000000E+00 -0.00000000000E+00 -0.15438590540E+04  0.15438590540E+04  0.25500000000E-02 0. -1.
         11    1    1    2    0    0 -0.31786476327E+03  0.23919012431E+02  0.68675236513E+03  0.75712544396E+03  0.51100000000E-03 0. -1.
         22    1    1    2    0    0  0.97139606801E+02  0.71410589211E+02  0.25609826719E+03  0.28305811756E+03  0.00000000000E+00 0. -1.
          2    1    1    2  501    0  0.22072515647E+03 -0.95329601642E+02 -0.14855270573E+04  0.15048581214E+04  0.25500000000E-02 0. -1.
<mgrwt>
<rscale>  0 0.24123956E+03</rscale>
<asrwt>0</asrwt>
<pdfrwt beam="1">  1       11 0.10000000E+01 0.12056357E+03</pdfrwt>
<pdfrwt beam="2">  1        2 0.23779766E+00 0.24123956E+03</pdfrwt>
<totfact> 0.16316224E+01</totfact>
</mgrwt>
</event>
<event>
 5    1  0.2804411E-003  0.4415075E+02  0.7818608E-02  0.1489169E+00
         11   -1    0    0    0    0  0.00000000000E+00  0.00000000000E+00  0.10002312925E+04  0.10002312925E+04  0.51100000000E-03 0.  1.
          2   -1    0    0  501    0 -0.00000000000E+00 -0.00000000000E+00 -0.10080505247E+02  0.10080505570E+02  0.25500000000E-02 0.  1.
         11    1    1    2    0    0  0.10026093335E+01 -0.25480756141E+02  0.16835560787E+02  0.30556673024E+02  0.51100000000E-03 0.  1.
         22    1    1    2    0    0 -0.19072351421E+00 -0.17221033511E+02  0.24325837751E+02  0.29805146417E+02  0.00000000000E+00 0.  1.
          2    1    1    2  501    0 -0.81188581926E+00  0.42701789653E+02  0.94898938869E+03  0.94994997861E+03  0.25500000000E-02 0.  1.
<mgrwt>
<rscale>  0 0.42709507E+02</rscale>
<asrwt>0</asrwt>
<pdfrwt beam="1">  1       11 0.10000000E+01 0.44150748E+02</pdfrwt>
<pdfrwt beam="2">  1        2 0.15512056E-02 0.42709507E+02</pdfrwt>
<totfact> 0.74678823E+03</totfact>
</mgrwt>
</event>
<event>
 5    1  0.2804411E-003  0.1383789E+03  0.7818608E-02  0.1215527E+00
         11   -1    0    0    0    0  0.00000000000E+00  0.00000000000E+00  0.10002016533E+04  0.10002016533E+04  0.51100000000E-03 0. -1.
          2   -1    0    0  501    0 -0.00000000000E+00 -0.00000000000E+00 -0.35587778006E+02  0.35587778097E+02  0.25500000000E-02 0. -1.
         11    1    1    2    0    0 -0.50035794552E+02  0.58022174362E+02  0.15632383703E+03  0.17408990631E+03  0.51100000000E-03 0. -1.
         22    1    1    2    0    0 -0.27289613654E+02  0.87718357807E+02  0.53220051100E+03  0.54007093720E+03  0.00000000000E+00 0. -1.
          2    1    1    2  501    0  0.77325408207E+02 -0.14574053217E+03  0.27608952728E+03  0.32162858789E+03  0.25500000000E-02 0. -1.
<mgrwt>
<rscale>  0 0.13837885E+03</rscale>
<asrwt>0</asrwt>
<pdfrwt beam="1">  1       11 0.10000000E+01 0.76616965E+02</pdfrwt>
<pdfrwt beam="2">  1        2 0.54761467E-02 0.13837885E+03</pdfrwt>
<totfact> 0.16304926E+03</totfact>
</mgrwt>
</event>
<event>
 5    1  0.2804411E-003  0.1261935E+03  0.7818608E-02  0.1233216E+00
         11   -1    0    0    0    0  0.00000000000E+00  0.00000000000E+00  0.10000324313E+04  0.10000324313E+04  0.51100000000E-03 0. -1.
         -2   -1    0    0    0  501 -0.00000000000E+00 -0.00000000000E+00 -0.36542637755E+02  0.36542637844E+02  0.25500000000E-02 0. -1.
         11    1    1    2    0    0  0.10373116775E+03  0.35320210497E+02  0.15068485267E+03  0.18631585347E+03  0.51100000000E-03 0. -1.
         22    1    1    2    0    0  0.64495967803E+02  0.98800414806E+01  0.34409754978E+03  0.35022916618E+03  0.00000000000E+00 0. -1.
         -2    1    1    2    0  501 -0.16822713555E+03 -0.45200251978E+02  0.46870739114E+03  0.50003004953E+03  0.25500000000E-02 0. -1.
<mgrwt>
<rscale>  0 0.12619346E+03</rscale>
<asrwt>0</asrwt>
<pdfrwt beam="1">  1       11 0.10000000E+01 0.65248334E+02</pdfrwt>
<pdfrwt beam="2">  1       -2 0.56221264E-02 0.12619346E+03</pdfrwt>
<totfact> 0.12305559E+03</totfact>
</mgrwt>
</event>
<event>
 5    1  0.2804411E-003  0.1368328E+03  0.7818608E-02  0.1423261E+00
         11   -1    0    0    0    0  0.00000000000E+00  0.00000000000E+00  0.99991956270E+03  0.99991956270E+03  0.51100000000E-03 0.  1.
          2   -1    0    0  501    0 -0.00000000000E+00 -0.00000000000E+00 -0.23892508306E+02  0.23892508442E+02  0.25500000000E-02 0.  1.
         11    1    1    2    0    0  0.11888737177E+03 -0.67724933270E+02  0.59388880717E+03  0.60944629709E+03  0.51100000000E-03 0.  1.
         22    1    1    2    0    0  0.10179259354E+02  0.19025455051E+02  0.66093469999E+02  0.69526484431E+02  0.00000000000E+00 0. -1.
          2    1    1    2  501    0 -0.12906663113E+03  0.48699478219E+02  0.31604477723E+03  0.34483928962E+03  0.25500000000E-02 0.  1.
<mgrwt>
<rscale>  0 0.54336911E+02</rscale>
<asrwt>0</asrwt>
<pdfrwt beam="1">  1       11 0.10000000E+01 0.13683282E+03</pdfrwt>
<pdfrwt beam="2">  1        2 0.36754747E-02 0.54336911E+02</pdfrwt>
<totfact> 0.24962862E+03</totfact>
</mgrwt>
</event>
<event>
 5    1  0.2804411E-003  0.2278801E+03  0.7818608E-02  0.1134516E+00
         11   -1    0    0    0    0  0.00000000000E+00  0.00000000000E+00  0.10002678031E+04  0.10002678031E+04  0.51100000000E-03 0. -1.
         -2   -1    0    0    0  501 -0.00000000000E+00 -0.00000000000E+00 -0.61056452479E+02  0.61056452533E+02  0.25500000000E-02 0.  1.
         11    1    1    2    0    0 -0.83825971379E+02  0.17910895561E+03  0.60437906357E+03  0.63590947779E+03  0.51100000000E-03 0. -1.
         22    1    1    2    0    0  0.11508163429E+02  0.27767869721E+02  0.99058859484E+02  0.10351883914E+03  0.00000000000E+00 0.  1.
         -2    1    1    2    0  501  0.72317807949E+02 -0.20687682533E+03  0.23577342759E+03  0.32189593873E+03  0.25500000000E-02 0.  1.
<mgrwt>
<rscale>  0 0.21915266E+03</rscale>
<asrwt>0</asrwt>
<pdfrwt beam="1">  1       11 0.10000000E+01 0.22788007E+03</pdfrwt>
<pdfrwt beam="2">  1       -2 0.93958157E-02 0.21915266E+03</pdfrwt>
<totfact> 0.57897337E+02</totfact>
</mgrwt>
</event>
<event>
 5    1  0.2804411E-003  0.2093151E+03  0.7818608E-02  0.1144983E+00
         11   -1    0    0    0    0  0.00000000000E+00  0.00000000000E+00  0.10004165628E+04  0.10004165628E+04  0.51100000000E-03 0. -1.
          2   -1    0    0  501    0 -0.00000000000E+00 -0.00000000000E+00 -0.59112812540E+02  0.59112812595E+02  0.25500000000E-02 0. -1.
         11    1    1    2    0    0  0.15211008396E+03  0.10678730511E+03  0.16575825436E+03  0.24903173505E+03  0.51100000000E-03 0. -1.
         22    1    1    2    0    0  0.22072778428E+02  0.27126785331E+01  0.31698447724E+02  0.38721541298E+02  0.00000000000E+00 0.  1.
          2    1    1    2  501    0 -0.17418286239E+03 -0.10949998364E+03  0.74384704813E+03  0.77177609900E+03  0.25500000000E-02 0. -1.
<mgrwt>
<rscale>  0 0.20574235E+03</rscale>
<asrwt>0</asrwt>
<pdfrwt beam="1">  1       11 0.10000000E+01 0.20931507E+03</pdfrwt>
<pdfrwt beam="2">  1        2 0.90980669E-02 0.20574235E+03</pdfrwt>
<totfact> 0.87514382E+02</totfact>
</mgrwt>
</event>
<event>
 5    1  0.2804411E-003  0.6776206E+02  0.7818608E-02  0.1367873E+00
         11   -1    0    0    0    0  0.00000000000E+00  0.00000000000E+00  0.10000050788E+04  0.10000050788E+04  0.51100000000E-03 0.  1.
          2   -1    0    0  501    0 -0.00000000000E+00 -0.00000000000E+00 -0.13153756491E+02  0.13153756738E+02  0.25500000000E-02 0.  1.
         11    1    1    2    0    0  0.24194832647E+02  0.61860228698E+02  0.91577450829E+02  0.11313048803E+03  0.51100000000E-03 0.  1.
         22    1    1    2    0    0  0.47158014351E+01  0.11180105121E+02  0.71999753926E+02  0.73015053921E+02  0.00000000000E+00 0. -1.
          2    1    1    2  501    0 -0.28910634082E+02 -0.73040333819E+02  0.82327411752E+03  0.82701329355E+03  0.25500000000E-02 0.  1.
<mgrwt>
<rscale>  0 0.67762064E+02</rscale>
<asrwt>0</asrwt>
<pdfrwt beam="1">  1       11 0.10000000E+01 0.12133983E+02</pdfrwt>
<pdfrwt beam="2">  1        2 0.20236651E-02 0.67762064E+02</pdfrwt>
<totfact> 0.56288959E+03</totfact>
</mgrwt>
</event>
<event>
 5    1  0.2804411E-003  0.1051406E+03  0.7818608E-02  0.1558742E+00
         11   -1    0    0    0    0  0.00000000000E+00  0.00000000000E+00  0.10000199460E+04  0.10000199460E+04  0.51100000000E-03 0.  1.
          2   -1    0    0  501    0 -0.00000000000E+00 -0.00000000000E+00 -0.54164504442E+02  0.54164504502E+02  0.25500000000E-02 0. -1.
         11    1    1    2    0    0 -0.27003717250E+02 -0.93939916317E+02  0.57056675742E+03  0.57887851341E+03  0.51100000000E-03 0.  1.
         22    1    1    2    0    0  0.88631370805E+01  0.12255867936E+03  0.40926967522E+03  0.42731820947E+03  0.00000000000E+00 0.  1.
          2    1    1    2  501    0  0.18140580169E+02 -0.28618763042E+02 -0.33980991044E+02  0.47987727658E+02  0.25500000000E-02 0. -1.
<mgrwt>
<rscale>  0 0.33883835E+02</rscale>
<asrwt>0</asrwt>
<pdfrwt beam="1">  1       11 0.10000000E+01 0.10514063E+03</pdfrwt>
<pdfrwt beam="2">  1        2 0.83331667E-02 0.33883835E+02</pdfrwt>
<totfact> 0.85678924E+02</totfact>
</mgrwt>
</event>
<event>
 5    1  0.2804411E-003  0.1779499E+03  0.7818608E-02  0.1174552E+00
         11   -1    0    0    0    0  0.00000000000E+00  0.00000000000E+00  0.99993559631E+03  0.99993559631E+03  0.51100000000E-03 0.  1.
          2   -1    0    0  501    0 -0.00000000000E+00 -0.00000000000E+00 -0.71173390523E+02  0.71173390569E+02  0.25500000000E-02 0.  1.
         11    1    1    2    0    0 -0.12168189772E+03 -0.25101824248E+02  0.70210413655E+03  0.71301248543E+03  0.51100000000E-03 0.  1.
         22    1    1    2    0    0 -0.46244633301E+02 -0.17308128769E+02  0.16820014619E+03  0.17529810784E+03  0.00000000000E+00 0. -1.
          2    1    1    2  501    0  0.16792653102E+03  0.42409953017E+02  0.58457923041E+02  0.18279839362E+03  0.25500000000E-02 0.  1.
<mgrwt>
<rscale>  0 0.17319909E+03</rscale>
<asrwt>0</asrwt>
<pdfrwt beam="1">  1       11 0.10000000E+01 0.17794990E+03</pdfrwt>
<pdfrwt beam="2">  1        2 0.10949047E-01 0.17319909E+03</pdfrwt>
<totfact> 0.68959715E+02</totfact>
</mgrwt>
</event>
<event>
 5    1  0.2804411E-003  0.2081418E+03  0.7818608E-02  0.1148398E+00
         11   -1    0    0    0    0  0.00000000000E+00  0.00000000000E+00  0.10002709913E+04  0.10002709913E+04  0.51100000000E-03 0. -1.
          2   -1    0    0  501    0 -0.00000000000E+00 -0.00000000000E+00 -0.46025766150E+02  0.46025766221E+02  0.25500000000E-02 0. -1.
         11    1    1    2    0    0 -0.21385273708E+02  0.15392968194E+03  0.42420273317E+03  0.45177387678E+03  0.51100000000E-03 0. -1.
         22    1    1    2    0    0  0.11288315915E+02  0.47414980134E+02  0.21533187194E+03  0.22077912376E+03  0.00000000000E+00 0.  1.
          2    1    1    2  501    0  0.10096957792E+02 -0.20134466207E+03  0.31471062002E+03  0.37374375695E+03  0.25500000000E-02 0. -1.
<mgrwt>
<rscale>  0 0.20159767E+03</rscale>
<asrwt>0</asrwt>
<pdfrwt beam="1">  1       11 0.10000000E+01 0.20814184E+03</pdfrwt>
<pdfrwt beam="2">  1        2 0.70828058E-02 0.20159767E+03</pdfrwt>
<totfact> 0.12010338E+03</totfact>
</mgrwt>
</event>
<event>
 5    1  0.2804411E-003  0.1191954E+03  0.7818608E-02  0.1346631E+00
         11   -1    0    0    0    0  0.00000000000E+00  0.00000000000E+00  0.99998749441E+03  0.99998749441E+03  0.51100000000E-03 0. -1.
         -2   -1    0    0    0  501 -0.00000000000E+00 -0.00000000000E+00 -0.81534210429E+02  0.81534210469E+02  0.25500000000E-02 0. -1.
         11    1    1    2    0    0 -0.36035792899E+02  0.10244269516E+03  0.50400303222E+03  0.51556972434E+03  0.51100000000E-03 0. -1.
         22    1    1    2    0    0  0.11011718423E+03 -0.10470471502E+03  0.45623184442E+03  0.48087042691E+03  0.00000000000E+00 0. -1.
         -2    1    1    2    0  501 -0.74081391330E+02  0.22620198596E+01 -0.41781592671E+02  0.85081553629E+02  0.25500000000E-02 0. -1.
<mgrwt>
<rscale>  0 0.74115918E+02</rscale>
<asrwt>0</asrwt>
<pdfrwt beam="1">  1       11 0.10000000E+01 0.11919542E+03</pdfrwt>
<pdfrwt beam="2">  1       -2 0.12543567E-01 0.74115918E+02</pdfrwt>
<totfact> 0.34414988E+02</totfact>
</mgrwt>
</event>
<event>
 5    1  0.2804411E-003  0.1919598E+03  0.7818608E-02  0.1161870E+00
         11   -1    0    0    0    0  0.00000000000E+00  0.00000000000E+00  0.10004288644E+04  0.10004288644E+04  0.51100000000E-03 0. -1.
          2   -1    0    0  501    0 -0.00000000000E+00 -0.00000000000E+00 -0.73458697641E+02  0.73458697686E+02  0.25500000000E-02 0. -1.
         11    1    1    2    0    0  0.98891506941E+02  0.79246697159E+02  0.64656027989E+03  0.65886247783E+03  0.51100000000E-03 0. -1.
         22    1    1    2    0    0  0.33620998891E+02  0.51660253612E+02  0.20500769596E+03  0.21407313883E+03  0.00000000000E+00 0. -1.
          2    1    1    2  501    0 -0.13251250583E+03 -0.13090695077E+03  0.75402190884E+02  0.20095194540E+03  0.25500000000E-02 0. -1.
<mgrwt>
<rscale>  0 0.18626914E+03</rscale>
<asrwt>0</asrwt>
<pdfrwt beam="1">  1       11 0.10000000E+01 0.19195982E+03</pdfrwt>
<pdfrwt beam="2">  1        2 0.11306185E-01 0.18626914E+03</pdfrwt>
<totfact> 0.66544812E+02</totfact>
</mgrwt>
</event>
<event>
 5    1  0.2804411E-003  0.1299491E+03  0.7818608E-02  0.1227531E+00
         11   -1    0    0    0    0  0.00000000000E+00  0.00000000000E+00  0.99996347801E+03  0.99996347801E+03  0.51100000000E-03 0. -1.
          2   -1    0    0  501    0 -0.00000000000E+00 -0.00000000000E+00 -0.25935548657E+02  0.25935548782E+02  0.25500000000E-02 0. -1.
         11    1    1    2    0    0  0.10342702051E+02 -0.16771237756E+02  0.45246619505E+02  0.49350810312E+02  0.51100000000E-03 0. -1.
         22    1    1    2    0    0 -0.11639660869E+03 -0.58722788505E+02  0.71077017227E+03  0.72262768712E+03  0.00000000000E+00 0. -1.
          2    1    1    2  501    0  0.10605390664E+03  0.75494026261E+02  0.21801113758E+03  0.25392052936E+03  0.25500000000E-02 0. -1.
<mgrwt>
<rscale>  0 0.12994909E+03</rscale>
<asrwt>0</asrwt>
<pdfrwt beam="1">  1       11 0.10000000E+01 0.19703966E+02</pdfrwt>
<pdfrwt beam="2">  1        2 0.39899386E-02 0.12994909E+03</pdfrwt>
<totfact> 0.24560694E+03</totfact>
</mgrwt>
</event>
<event>
 5    1  0.2804411E-003  0.3843060E+02  0.7818608E-02  0.1692937E+00
         11   -1    0    0    0    0  0.00000000000E+00  0.00000000000E+00  0.10000381750E+04  0.10000381750E+04  0.51100000000E-03 0. -1.
          2   -1    0    0  501    0 -0.00000000000E+00 -0.00000000000E+00 -0.58467307760E+01  0.58467313321E+01  0.25500000000E-02 0. -1.
         11    1    1    2    0    0  0.27249810093E+02 -0.12494324564E+02  0.13717536810E+03  0.14041275551E+03  0.51100000000E-03 0. -1.
         22    1    1    2    0    0  0.55551265312E+01 -0.12479641089E+02  0.87883958567E+01  0.16243053107E+02  0.00000000000E+00 0. -1.
          2    1    1    2  501    0 -0.32804936624E+02  0.24973965654E+02  0.84822768026E+03  0.84922909771E+03  0.25500000000E-02 0. -1.
<mgrwt>
<rscale>  0 0.22912204E+02</rscale>
<asrwt>0</asrwt>
<pdfrwt beam="1">  1       11 0.10000000E+01 0.38430596E+02</pdfrwt>
<pdfrwt beam="2">  1        2 0.89953140E-03 0.22912204E+02</pdfrwt>
<totfact> 0.13504621E+04</totfact>
</mgrwt>
</event>
<event>
 5    1  0.2804411E-003  0.2461569E+03  0.7818608E-02  0.1117896E+00
         11   -1    0    0    0    0  0.00000000000E+00  0.00000000000E+00  0.10001175577E+04  0.10001175577E+04  0.51100000000E-03 0.  1.
          2   -1    0    0  501    0 -0.00000000000E+00 -0.00000000000E+00 -0.12760340294E+03  0.12760340297E+03  0.25500000000E-02 0.  1.
         11    1    1    2    0    0 -0.19289180093E+03 -0.76038084158E+02  0.75650769906E+03  0.78440610391E+03  0.51100000000E-03 0.  1.
         22    1    1    2    0    0 -0.29023413237E+02 -0.22649278468E+02  0.92203740780E+02  0.99281811753E+02  0.00000000000E+00 0. -1.
          2    1    1    2  501    0  0.22191521417E+03  0.98687362626E+02  0.23802714943E+02  0.24403304503E+03  0.25500000000E-02 0.  1.
<mgrwt>
<rscale>  0 0.24286943E+03</rscale>
<asrwt>0</asrwt>
<pdfrwt beam="1">  1       11 0.10000000E+01 0.24615691E+03</pdfrwt>
<pdfrwt beam="2">  1        2 0.19633600E-01 0.24286943E+03</pdfrwt>
<totfact> 0.34922102E+02</totfact>
</mgrwt>
</event>
<event>
 5    1  0.2804411E-003  0.9497348E+02  0.7818608E-02  0.1309576E+00
         11   -1    0    0    0    0  0.00000000000E+00  0.00000000000E+00  0.10001312466E+04  0.10001312466E+04  0.51100000000E-03 0.  1.
          2   -1    0    0  501    0 -0.00000000000E+00 -0.00000000000E+00 -0.28036527237E+02  0.28036527353E+02  0.25500000000E-02 0.  1.
         11    1    1    2    0    0  0.79804793434E+02  0.41523422976E+02  0.27439022948E+03  0.28876114307E+03  0.51100000000E-03 0.  1.
         22    1    1    2    0    0 -0.26846492319E+02 -0.11090048627E+03  0.58924061471E+03  0.60018676595E+03  0.00000000000E+00 0.  1.
          2    1    1    2  501    0 -0.52958301115E+02  0.69377063289E+02  0.10846387517E+03  0.13921986493E+03  0.25500000000E-02 0.  1.
<mgrwt>
<rscale>  0 0.87279772E+02</rscale>
<asrwt>0</asrwt>
<pdfrwt beam="1">  1       11 0.10000000E+01 0.94973482E+02</pdfrwt>
<pdfrwt beam="2">  1        2 0.43138779E-02 0.87279772E+02</pdfrwt>
<totfact> 0.21348106E+03</totfact>
</mgrwt>
</event>
<event>
 5    1  0.2804411E-003  0.4668940E+03  0.7818608E-02  0.1025318E+00
         11   -1    0    0    0    0  0.00000000000E+00  0.00000000000E+00  0.10008181534E+04  0.10008181534E+04  0.51100000000E-03 0.  1.
          2   -1    0    0  501    0 -0.00000000000E+00 -0.00000000000E+00 -0.23903838540E+04  0.23903838540E+04  0.25500000000E-02 0.  1.
         11    1    1    2    0    0 -0.32848849237E+03  0.75169345578E+01  0.73709175287E+03  0.80701018957E+03  0.51100000000E-03 0.  1.
         22    1    1    2    0    0 -0.12953783260E+03 -0.18377235656E+02  0.18554544783E+03  0.22703498865E+03  0.00000000000E+00 0. -1.
          2    1    1    2  501    0  0.45802632497E+03  0.10860301098E+02 -0.23122029013E+04  0.23571568291E+04  0.25500000000E-02 0.  1.
<mgrwt>
<rscale>  0 0.45815506E+03</rscale>
<asrwt>0</asrwt>
<pdfrwt beam="1">  1       11 0.10000000E+01 0.46689402E+03</pdfrwt>
<pdfrwt beam="2">  1        2 0.36805223E+00 0.45815506E+03</pdfrwt>
<totfact> 0.54253709E+00</totfact>
</mgrwt>
</event>
<event>
 5    1  0.2804411E-003  0.4083169E+02  0.7818608E-02  0.1502179E+00
         11   -1    0    0    0    0  0.00000000000E+00  0.00000000000E+00  0.10003250327E+04  0.10003250327E+04  0.51100000000E-03 0. -1.
          2   -1    0    0  501    0 -0.00000000000E+00 -0.00000000000E+00 -0.78789909594E+01  0.78789913720E+01  0.25500000000E-02 0. -1.
         11    1    1    2    0    0 -0.39351995468E+02 -0.70256397105E+01  0.55885335374E+02  0.68710333071E+02  0.51100000000E-03 0. -1.
         22    1    1    2    0    0 -0.13707295635E+02  0.53134709283E+01  0.83615225029E+02  0.84897754880E+02  0.00000000000E+00 0. -1.
          2    1    1    2  501    0  0.53059291103E+02  0.17121687822E+01  0.85294548135E+03  0.85459593613E+03  0.25500000000E-02 0. -1.
<mgrwt>
<rscale>  0 0.40831692E+02</rscale>
<asrwt>0</asrwt>
<pdfrwt beam="1">  1       11 0.10000000E+01 0.14701120E+02</pdfrwt>
<pdfrwt beam="2">  1        2 0.12125464E-02 0.40831692E+02</pdfrwt>
<totfact> 0.10270130E+04</totfact>
</mgrwt>
</event>
<event>
 5    1  0.2804411E-003  0.3357124E+03  0.7818608E-02  0.1068637E+00
         11   -1    0    0    0    0  0.00000000000E+00  0.00000000000E+00  0.10000361409E+04  0.10000361409E+04  0.51100000000E-03 0. -1.
          2   -1    0    0  501    0 -0.00000000000E+00 -0.00000000000E+00 -0.40256051725E+03  0.40256051726E+03  0.25500000000E-02 0. -1.
         11    1    1    2    0    0 -0.34575213130E+03 -0.14023412521E+02  0.87227430218E+03  0.93840484368E+03  0.51100000000E-03 0. -1.
         22    1    1    2    0    0  0.12388498237E+02 -0.17717696296E+02  0.10713456453E+02  0.24128195121E+02  0.00000000000E+00 0.  1.
          2    1    1    2  501    0  0.33336363306E+03  0.31741108817E+02 -0.28551213500E+03  0.44006361935E+03  0.25500000000E-02 0. -1.
<mgrwt>
<rscale>  0 0.33571240E+03</rscale>
<asrwt>0</asrwt>
<pdfrwt beam="1">  1       11 0.10000000E+01 0.21619243E+02</pdfrwt>
<pdfrwt beam="2">  1        2 0.61934624E-01 0.33571240E+03</pdfrwt>
<totfact> 0.98408231E+01</totfact>
</mgrwt>
</event>
<event>
 5    1  0.2804411E-003  0.1440277E+03  0.7818608E-02  0.1208010E+00
         11   -1    0    0    0    0  0.00000000000E+00  0.00000000000E+00  0.99986982732E+03  0.99986982732E+03  0.51100000000E-03 0.  1.
          2   -1    0    0  501    0 -0.00000000000E+00 -0.00000000000E+00 -0.70181374880E+03  0.70181374880E+03  0.25500000000E-02 0.  1.
         11    1    1    2    0    0  0.56967965433E+02  0.14702229563E+03  0.92451834349E+03  0.93786729975E+03  0.51100000000E-03 0.  1.
         22    1    1    2    0    0  0.86129262085E+01 -0.18907010693E+02  0.59445273531E+02  0.62971406975E+02  0.00000000000E+00 0.  1.
          2    1    1    2  501    0 -0.65580891641E+02 -0.12811528493E+03 -0.68590753850E+03  0.70084486940E+03  0.25500000000E-02 0.  1.
<mgrwt>
<rscale>  0 0.14402765E+03</rscale>
<asrwt>0</asrwt>
<pdfrwt beam="1">  1       11 0.10000000E+01 0.20776370E+02</pdfrwt>
<pdfrwt beam="2">  1        2 0.10795729E+00 0.14402765E+03</pdfrwt>
<totfact> 0.53205053E+01</totfact>
</mgrwt>
</event>
<event>
 5    1  0.2804411E-003  0.4447574E+02  0.7818608E-02  0.1508481E+00
         11   -1    0    0    0    0  0.00000000000E+00  0.00000000000E+00  0.99993358816E+03  0.99993358816E+03  0.51100000000E-03 0.  1.
          2   -1    0    0  501    0 -0.00000000000E+00 -0.00000000000E+00 -0.48051813516E+01  0.48051820282E+01  0.25500000000E-02 0.  1.
         11    1    1    2    0    0 -0.14979599712E+02  0.27951054456E+02  0.73698428931E+02  0.80231591533E+02  0.51100000000E-03 0.  1.
         22    1    1    2    0    0  0.61452115491E+01  0.11023575286E+02  0.35506708039E+02  0.37683008808E+02  0.00000000000E+00 0.  1.
          2    1    1    2  501    0  0.88343881625E+01 -0.38974629742E+02  0.88592326983E+03  0.88682416984E+03  0.25500000000E-02 0.  1.
<mgrwt>
<rscale>  0 0.39963335E+02</rscale>
<asrwt>0</asrwt>
<pdfrwt beam="1">  1       11 0.10000000E+01 0.44475735E+02</pdfrwt>
<pdfrwt beam="2">  1        2 0.73920961E-03 0.39963335E+02</pdfrwt>
<totfact> 0.19783073E+04</totfact>
</mgrwt>
</event>
<event>
 5    1  0.2804411E-003  0.9072457E+02  0.7818608E-02  0.1302897E+00
         11   -1    0    0    0    0  0.00000000000E+00  0.00000000000E+00  0.10000013348E+04  0.10000013348E+04  0.51100000000E-03 0. -1.
         -2   -1    0    0    0  501 -0.00000000000E+00 -0.00000000000E+00 -0.31563148491E+02  0.31563148594E+02  0.25500000000E-02 0. -1.
         11    1    1    2    0    0  0.90275128152E+02 -0.90193560673E+01  0.31143968505E+03  0.32438499499E+03  0.51100000000E-03 0. -1.
         22    1    1    2    0    0 -0.84253264401E+02 -0.82009970344E+02  0.56688236440E+03  0.57894720214E+03  0.00000000000E+00 0. -1.
         -2    1    1    2    0  501 -0.60218637512E+01  0.91029326412E+02  0.90116136818E+02  0.12823228623E+03  0.25500000000E-02 0. -1.
<mgrwt>
<rscale>  0 0.89981241E+02</rscale>
<asrwt>0</asrwt>
<pdfrwt beam="1">  1       11 0.10000000E+01 0.90724570E+02</pdfrwt>
<pdfrwt beam="2">  1       -2 0.48558753E-02 0.89981241E+02</pdfrwt>
<totfact> 0.14854859E+03</totfact>
</mgrwt>
</event>
<event>
 5    1  0.2804411E-003  0.3319722E+03  0.7818608E-02  0.1077209E+00
         11   -1    0    0    0    0  0.00000000000E+00  0.00000000000E+00  0.10001592065E+04  0.10001592065E+04  0.51100000000E-03 0. -1.
          2   -1    0    0  501    0 -0.00000000000E+00 -0.00000000000E+00 -0.87503503556E+03  0.87503503556E+03  0.25500000000E-02 0. -1.
         11    1    1    2    0    0  0.44663418968E+02 -0.25010236518E+03  0.82238526833E+03  0.86073430490E+03  0.51100000000E-03 0. -1.
         22    1    1    2    0    0 -0.21061057448E+02 -0.65650811849E+02  0.11978253798E+03  0.13820800860E+03  0.00000000000E+00 0.  1.
          2    1    1    2  501    0 -0.23602361520E+02  0.31575317702E+03 -0.81704363535E+03  0.87625192858E+03  0.25500000000E-02 0. -1.
<mgrwt>
<rscale>  0 0.31663408E+03</rscale>
<asrwt>0</asrwt>
<pdfrwt beam="1">  1       11 0.10000000E+01 0.33197224E+03</pdfrwt>
<pdfrwt beam="2">  1        2 0.13464220E+00 0.31663408E+03</pdfrwt>
<totfact> 0.39180526E+01</totfact>
</mgrwt>
</event>
<event>
 5    1  0.2804411E-003  0.2160706E+03  0.7818608E-02  0.1141988E+00
         11   -1    0    0    0    0  0.00000000000E+00  0.00000000000E+00  0.99999526360E+03  0.99999526360E+03  0.51100000000E-03 0. -1.
         -2   -1    0    0    0  501 -0.00000000000E+00 -0.00000000000E+00 -0.47916236371E+02  0.47916236439E+02  0.25500000000E-02 0.  1.
         11    1    1    2    0    0 -0.20004409209E+02 -0.56338400284E+01  0.21322904025E+02  0.29775539921E+02  0.51100000000E-03 0. -1.
         22    1    1    2    0    0 -0.17353903560E+03  0.85745749611E+02  0.33860222075E+03  0.39002512015E+03  0.00000000000E+00 0. -1.
         -2    1    1    2    0  501  0.19354344481E+03 -0.80111909583E+02  0.59215390246E+03  0.62811083997E+03  0.25500000000E-02 0.  1.
<mgrwt>
<rscale>  0 0.20946833E+03</rscale>
<asrwt>0</asrwt>
<pdfrwt beam="1">  1       11 0.10000000E+01 0.21607059E+03</pdfrwt>
<pdfrwt beam="2">  1       -2 0.73716936E-02 0.20946833E+03</pdfrwt>
<totfact> 0.84423211E+02</totfact>
</mgrwt>
</event>
<event>
 5    1  0.2804411E-003  0.2617074E+03  0.7818608E-02  0.1106122E+00
         11   -1    0    0    0    0  0.00000000000E+00  0.00000000000E+00  0.10003958508E+04  0.10003958508E+04  0.51100000000E-03 0.  1.
          2   -1    0    0  501    0 -0.00000000000E+00 -0.00000000000E+00 -0.12246400013E+03  0.12246400016E+03  0.25500000000E-02 0.  1.
         11    1    1    2    0    0 -0.24403021889E+03 -0.63139613541E+02  0.75174386960E+03  0.79287842952E+03  0.51100000000E-03 0.  1.
         22    1    1    2    0    0 -0.16300258763E+02  0.18816620630E+02  0.48825787740E+02  0.54806214940E+02  0.00000000000E+00 0. -1.
          2    1    1    2  501    0  0.26033047765E+03  0.44322992911E+02  0.77362193298E+02  0.27517520646E+03  0.25500000000E-02 0.  1.
<mgrwt>
<rscale>  0 0.26170742E+03</rscale>
<asrwt>0</asrwt>
<pdfrwt beam="1">  1       11 0.10000000E+01 0.24895053E+02</pdfrwt>
<pdfrwt beam="2">  1        2 0.18848073E-01 0.26170742E+03</pdfrwt>
<totfact> 0.36685254E+02</totfact>
</mgrwt>
</event>
<event>
 5    1  0.2804411E-003  0.1240809E+03  0.7818608E-02  0.1396413E+00
         11   -1    0    0    0    0  0.00000000000E+00  0.00000000000E+00  0.10002070725E+04  0.10002070725E+04  0.51100000000E-03 0. -1.
          2   -1    0    0  501    0 -0.00000000000E+00 -0.00000000000E+00 -0.28644197508E+02  0.28644197622E+02  0.25500000000E-02 0. -1.
         11    1    1    2    0    0  0.12781990735E+03 -0.28855643805E+02  0.19136192595E+03  0.23192663409E+03  0.51100000000E-03 0. -1.
         22    1    1    2    0    0 -0.48825225418E+01  0.28933452737E+02  0.66119371073E+02  0.72337783659E+02  0.00000000000E+00 0. -1.
          2    1    1    2  501    0 -0.12293738481E+03 -0.77808931573E-01  0.71408157797E+03  0.72458685238E+03  0.25500000000E-02 0. -1.
<mgrwt>
<rscale>  0 0.60339417E+02</rscale>
<asrwt>0</asrwt>
<pdfrwt beam="1">  1       11 0.10000000E+01 0.12408091E+03</pdfrwt>
<pdfrwt beam="2">  1        2 0.44077120E-02 0.60339417E+02</pdfrwt>
<totfact> 0.19992132E+03</totfact>
</mgrwt>
</event>
<event>
 5    1  0.2804411E-003  0.2971832E+03  0.7818608E-02  0.1086657E+00
         11   -1    0    0    0    0  0.00000000000E+00  0.00000000000E+00  0.10003758229E+04  0.10003758229E+04  0.51100000000E-03 0. -1.
          2   -1    0    0  501    0 -0.00000000000E+00 -0.00000000000E+00 -0.46741119672E+03  0.46741119673E+03  0.25500000000E-02 0. -1.
         11    1    1    2    0    0  0.27736931556E+03  0.42107422369E+01  0.89442992838E+03  0.93645948356E+03  0.51100000000E-03 0. -1.
         22    1    1    2    0    0  0.20305231199E+02  0.14919311382E+02  0.29993708671E+02  0.39172832754E+02  0.00000000000E+00 0. -1.
          2    1    1    2  501    0 -0.29767454676E+03 -0.19130053619E+02 -0.39145901091E+03  0.49215470328E+03  0.25500000000E-02 0. -1.
<mgrwt>
<rscale>  0 0.29718322E+03</rscale>
<asrwt>0</asrwt>
<pdfrwt beam="1">  1       11 0.10000000E+01 0.25196989E+02</pdfrwt>
<pdfrwt beam="2">  1        2 0.71936438E-01 0.29718322E+03</pdfrwt>
<totfact> 0.83471801E+01</totfact>
</mgrwt>
</event>
<event>
 5    1  0.2804411E-003  0.3165072E+03  0.7818608E-02  0.1111122E+00
         11   -1    0    0    0    0  0.00000000000E+00  0.00000000000E+00  0.10004281053E+04  0.10004281053E+04  0.51100000000E-03 0. -1.
          2   -1    0    0  501    0 -0.00000000000E+00 -0.00000000000E+00 -0.22358292043E+03  0.22358292044E+03  0.25500000000E-02 0. -1.
         11    1    1    2    0    0 -0.23887958500E+03 -0.25797838589E+03  0.56215205925E+03  0.66304693758E+03  0.51100000000E-03 0. -1.
         22    1    1    2    0    0 -0.51989482465E+02  0.19624253251E+03  0.16636140869E+02  0.20369290374E+03  0.00000000000E+00 0. -1.
          2    1    1    2  501    0  0.29086906747E+03  0.61735853381E+02  0.19805698476E+03  0.35727118443E+03  0.25500000000E-02 0. -1.
<mgrwt>
<rscale>  0 0.25348548E+03</rscale>
<asrwt>0</asrwt>
<pdfrwt beam="1">  1       11 0.10000000E+01 0.31650719E+03</pdfrwt>
<pdfrwt beam="2">  1        2 0.34412097E-01 0.25348548E+03</pdfrwt>
<totfact> 0.18656373E+02</totfact>
</mgrwt>
</event>
<event>
 5    1  0.2804411E-003  0.1534190E+03  0.7818608E-02  0.1255317E+00
         11   -1    0    0    0    0  0.00000000000E+00  0.00000000000E+00  0.10000112240E+04  0.10000112240E+04  0.51100000000E-03 0.  1.
          2   -1    0    0  501    0 -0.00000000000E+00 -0.00000000000E+00 -0.27076870032E+03  0.27076870033E+03  0.25500000000E-02 0.  1.
         11    1    1    2    0    0  0.46598760932E+02 -0.15414097150E+03  0.41685271394E+03  0.44687477970E+03  0.51100000000E-03 0.  1.
         22    1    1    2    0    0  0.66254035344E+02  0.15141317865E+03  0.54275874916E+03  0.56736461615E+03  0.00000000000E+00 0.  1.
          2    1    1    2  501    0 -0.11285279628E+03  0.27277928485E+01 -0.23036893943E+03  0.25654052846E+03  0.25500000000E-02 0.  1.
<mgrwt>
<rscale>  0 0.11288576E+03</rscale>
<asrwt>0</asrwt>
<pdfrwt beam="1">  1       11 0.10000000E+01 0.15341896E+03</pdfrwt>
<pdfrwt beam="2">  1        2 0.41657189E-01 0.11288576E+03</pdfrwt>
<totfact> 0.15073064E+02</totfact>
</mgrwt>
</event>
<event>
 5    1  0.2804411E-003  0.2443998E+03  0.7818608E-02  0.1117596E+00
         11   -1    0    0    0    0  0.00000000000E+00  0.00000000000E+00  0.10002681603E+04  0.10002681603E+04  0.51100000000E-03 0. -1.
          2   -1    0    0  501    0 -0.00000000000E+00 -0.00000000000E+00 -0.12811670235E+03  0.12811670237E+03  0.25500000000E-02 0. -1.
         11    1    1    2    0    0  0.74306721472E+01  0.10069464133E+02  0.46876190493E+02  0.48517895996E+02  0.51100000000E-03 0. -1.
         22    1    1    2    0    0  0.49408199723E+02  0.22652553473E+03  0.80267944748E+03  0.83549343713E+03  0.00000000000E+00 0. -1.
          2    1    1    2  501    0 -0.56838871870E+02 -0.23659499887E+03  0.22595819960E+02  0.24437352952E+03  0.25500000000E-02 0. -1.
<mgrwt>
<rscale>  0 0.24332663E+03</rscale>
<asrwt>0</asrwt>
<pdfrwt beam="1">  1       11 0.10000000E+01 0.24439979E+03</pdfrwt>
<pdfrwt beam="2">  1        2 0.19715547E-01 0.24332663E+03</pdfrwt>
<totfact> 0.34756856E+02</totfact>
</mgrwt>
</event>
<event>
 5    1  0.2804411E-003  0.4793642E+03  0.7818608E-02  0.1030172E+00
         11   -1    0    0    0    0  0.00000000000E+00  0.00000000000E+00  0.99947782502E+03  0.99947782502E+03  0.51100000000E-03 0. -1.
          2   -1    0    0  501    0 -0.00000000000E+00 -0.00000000000E+00 -0.20217863618E+04  0.20217863618E+04  0.25500000000E-02 0. -1.
         11    1    1    2    0    0 -0.26051450093E+02  0.15539980007E+03  0.15475072073E+03  0.22085189943E+03  0.51100000000E-03 0. -1.
         22    1    1    2    0    0 -0.42652109284E+01  0.28543807565E+03  0.76091373421E+03  0.81270092775E+03  0.00000000000E+00 0. -1.
          2    1    1    2  501    0  0.30316661021E+02 -0.44083787572E+03 -0.19379729917E+04  0.19877113596E+04  0.25500000000E-02 0. -1.
<mgrwt>
<rscale>  0 0.44187909E+03</rscale>
<asrwt>0</asrwt>
<pdfrwt beam="1">  1       11 0.10000000E+01 0.47936422E+03</pdfrwt>
<pdfrwt beam="2">  1        2 0.31088163E+00 0.44187909E+03</pdfrwt>
<totfact> 0.86645468E+00</totfact>
</mgrwt>
</event>
<event>
 5    1  0.2804411E-003  0.1883725E+03  0.7818608E-02  0.1160947E+00
         11   -1    0    0    0    0  0.00000000000E+00  0.00000000000E+00  0.10003619104E+04  0.10003619104E+04  0.51100000000E-03 0. -1.
         -2   -1    0    0    0  501 -0.00000000000E+00 -0.00000000000E+00 -0.38655080466E+02  0.38655080550E+02  0.25500000000E-02 0. -1.
         11    1    1    2    0    0  0.36347701892E+02  0.17202262549E+03  0.57732188123E+03  0.60350103037E+03  0.51100000000E-03 0. -1.
         22    1    1    2    0    0  0.40794853184E+01  0.10831396406E+02  0.58690250216E+02  0.59820622021E+02  0.00000000000E+00 0.  1.
         -2    1    1    2    0  501 -0.40427187210E+02 -0.18285402189E+03  0.32569469852E+03  0.37569533859E+03  0.25500000000E-02 0. -1.
<mgrwt>
<rscale>  0 0.18726973E+03</rscale>
<asrwt>0</asrwt>
<pdfrwt beam="1">  1       11 0.10000000E+01 0.18837246E+03</pdfrwt>
<pdfrwt beam="2">  1       -2 0.59490876E-02 0.18726973E+03</pdfrwt>
<totfact> 0.11652936E+03</totfact>
</mgrwt>
</event>
<event>
 5    1  0.2804411E-003  0.1393049E+03  0.7818608E-02  0.1217493E+00
         11   -1    0    0    0    0  0.00000000000E+00  0.00000000000E+00  0.10001790905E+04  0.10001790905E+04  0.51100000000E-03 0.  1.
          2   -1    0    0  501    0 -0.00000000000E+00 -0.00000000000E+00 -0.25773198649E+02  0.25773198775E+02  0.25500000000E-02 0.  1.
         11    1    1    2    0    0 -0.95366135257E+02 -0.64045783875E+02  0.64753794436E+03  0.65764880565E+03  0.51100000000E-03 0.  1.
         22    1    1    2    0    0 -0.12591041965E+02 -0.20219260923E+02  0.10422823119E+03  0.10691527967E+03  0.00000000000E+00 0.  1.
          2    1    1    2  501    0  0.10795717722E+03  0.84265044798E+02  0.22263971633E+03  0.26138820399E+03  0.25500000000E-02 0.  1.
<mgrwt>
<rscale>  0 0.13695017E+03</rscale>
<asrwt>0</asrwt>
<pdfrwt beam="1">  1       11 0.10000000E+01 0.13930491E+03</pdfrwt>
<pdfrwt beam="2">  1        2 0.39658175E-02 0.13695017E+03</pdfrwt>
<totfact> 0.24877338E+03</totfact>
</mgrwt>
</event>
<event>
 5    1  0.2804411E-003  0.1065170E+03  0.7818608E-02  0.1286493E+00
         11   -1    0    0    0    0  0.00000000000E+00  0.00000000000E+00  0.10000597352E+04  0.10000597352E+04  0.51100000000E-03 0.  1.
          2   -1    0    0  501    0 -0.00000000000E+00 -0.00000000000E+00 -0.15460590352E+02  0.15460590563E+02  0.25500000000E-02 0.  1.
         11    1    1    2    0    0 -0.68830171834E+00 -0.41084619893E+02  0.46304096814E+02  0.61907100829E+02  0.51100000000E-03 0.  1.
         22    1    1    2    0    0  0.12418359961E+02 -0.55314451365E+02  0.16995955005E+03  0.17916515523E+03  0.00000000000E+00 0.  1.
          2    1    1    2  501    0 -0.11730058243E+02  0.96399071258E+02  0.76833549799E+03  0.77444806972E+03  0.25500000000E-02 0.  1.
<mgrwt>
<rscale>  0 0.97110119E+02</rscale>
<asrwt>0</asrwt>
<pdfrwt beam="1">  1       11 0.10000000E+01 0.10651698E+03</pdfrwt>
<pdfrwt beam="2">  1        2 0.23786944E-02 0.97110119E+02</pdfrwt>
<totfact> 0.47487714E+03</totfact>
</mgrwt>
</event>
<event>
 5    1  0.2804411E-003  0.3448349E+02  0.7818608E-02  0.1562278E+00
         11   -1    0    0    0    0  0.00000000000E+00  0.00000000000E+00  0.10000367897E+04  0.10000367897E+04  0.51100000000E-03 0.  1.
          2   -1    0    0  501    0 -0.00000000000E+00 -0.00000000000E+00 -0.21707916309E+01  0.21707931286E+01  0.25500000000E-02 0.  1.
         11    1    1    2    0    0 -0.49256644998E+01  0.16864069154E+02  0.75674481743E+02  0.77687104378E+02  0.51100000000E-03 0.  1.
         22    1    1    2    0    0  0.28393544734E+01  0.16577348678E+02  0.84413688612E+02  0.86072883350E+02  0.00000000000E+00 0.  1.
          2    1    1    2  501    0  0.20863100263E+01 -0.33441417832E+02  0.83777782776E+03  0.83844759515E+03  0.25500000000E-02 0.  1.
<mgrwt>
<rscale>  0 0.33506434E+02</rscale>
<asrwt>0</asrwt>
<pdfrwt beam="1">  1       11 0.10000000E+01 0.34483493E+02</pdfrwt>
<pdfrwt beam="2">  1        2 0.33398034E-03 0.33506434E+02</pdfrwt>
<totfact> 0.54901061E+04</totfact>
</mgrwt>
</event>
<event>
 5    1  0.2804411E-003  0.1861447E+03  0.7818608E-02  0.1165086E+00
         11   -1    0    0    0    0  0.00000000000E+00  0.00000000000E+00  0.10002740889E+04  0.10002740889E+04  0.51100000000E-03 0.  1.
          2   -1    0    0  501    0 -0.00000000000E+00 -0.00000000000E+00 -0.15355889682E+03  0.15355889684E+03  0.25500000000E-02 0.  1.
         11    1    1    2    0    0  0.10370351267E+03  0.11578308242E+03  0.77799646670E+03  0.79337169278E+03  0.51100000000E-03 0.  1.
         22    1    1    2    0    0  0.66791062447E+01  0.29973027922E+02  0.15519628444E+03  0.15820518186E+03  0.00000000000E+00 0.  1.
          2    1    1    2  501    0 -0.11038261891E+03 -0.14575611034E+03 -0.86477559045E+02  0.20225611112E+03  0.25500000000E-02 0.  1.
<mgrwt>
<rscale>  0 0.18283645E+03</rscale>
<asrwt>0</asrwt>
<pdfrwt beam="1">  1       11 0.10000000E+01 0.18614467E+03</pdfrwt>
<pdfrwt beam="2">  1        2 0.23630920E-01 0.18283645E+03</pdfrwt>
<totfact> 0.28087689E+02</totfact>
</mgrwt>
</event>
<event>
 5    1  0.2804411E-003  0.2193063E+03  0.7818608E-02  0.1156172E+00
         11   -1    0    0    0    0  0.00000000000E+00  0.00000000000E+00  0.10003448592E+04  0.10003448592E+04  0.51100000000E-03 0. -1.
         -2   -1    0    0    0  501 -0.00000000000E+00 -0.00000000000E+00 -0.50592903384E+02  0.50592903448E+02  0.25500000000E-02 0. -1.
         11    1    1    2    0    0  0.28300772390E+02 -0.12397239391E+03  0.34433259959E+03  0.36706270215E+03  0.51100000000E-03 0. -1.
         22    1    1    2    0    0  0.80212050575E+02 -0.35101992783E+02  0.36754269535E+03  0.37782768011E+03  0.00000000000E+00 0. -1.
         -2    1    1    2    0  501 -0.10851282297E+03  0.15907438669E+03  0.23787666091E+03  0.30604738042E+03  0.25500000000E-02 0. -1.
<mgrwt>
<rscale>  0 0.19256088E+03</rscale>
<asrwt>0</asrwt>
<pdfrwt beam="1">  1       11 0.10000000E+01 0.21930628E+03</pdfrwt>
<pdfrwt beam="2">  1       -2 0.77862076E-02 0.19256088E+03</pdfrwt>
<totfact> 0.77132301E+02</totfact>
</mgrwt>
</event>
<event>
 5    1  0.2804411E-003  0.8128703E+02  0.7818608E-02  0.1325438E+00
         11   -1    0    0    0    0  0.00000000000E+00  0.00000000000E+00  0.10002271767E+04  0.10002271767E+04  0.51100000000E-03 0. -1.
          2   -1    0    0  501    0 -0.00000000000E+00 -0.00000000000E+00 -0.69695678957E+02  0.69695679003E+02  0.25500000000E-02 0. -1.
         11    1    1    2    0    0 -0.18519217242E+02 -0.94528994495E+02  0.56050838784E+03  0.56872519291E+03  0.51100000000E-03 0. -1.
         22    1    1    2    0    0 -0.55099354032E+02  0.57741013100E+02  0.40425889738E+03  0.41206215492E+03  0.00000000000E+00 0. -1.
          2    1    1    2  501    0  0.73618571274E+02  0.36787981395E+02 -0.34235787484E+02  0.89135507867E+02  0.25500000000E-02 0. -1.
<mgrwt>
<rscale>  0 0.81287030E+02</rscale>
<asrwt>0</asrwt>
<pdfrwt beam="1">  1       11 0.10000000E+01 0.79812051E+02</pdfrwt>
<pdfrwt beam="2">  1        2 0.10724848E-01 0.81287030E+02</pdfrwt>
<totfact> 0.67779696E+02</totfact>
</mgrwt>
</event>
<event>
 5    1  0.2804411E-003  0.2121120E+03  0.7818608E-02  0.1139904E+00
         11   -1    0    0    0    0  0.00000000000E+00  0.00000000000E+00  0.10000628383E+04  0.10000628383E+04  0.51100000000E-03 0. -1.
          2   -1    0    0  501    0 -0.00000000000E+00 -0.00000000000E+00 -0.56595303865E+03  0.56595303866E+03  0.25500000000E-02 0. -1.
         11    1    1    2    0    0 -0.20066442901E+03  0.80694220480E+01  0.89220117606E+03  0.91452406596E+03  0.51100000000E-03 0. -1.
         22    1    1    2    0    0 -0.11063510339E+02 -0.24938525071E+02  0.73842079339E+02  0.78720924631E+02  0.00000000000E+00 0.  1.
          2    1    1    2  501    0  0.21172793935E+03  0.16869103023E+02 -0.53193345574E+03  0.57277088638E+03  0.25500000000E-02 0. -1.
<mgrwt>
<rscale>  0 0.21211200E+03</rscale>
<asrwt>0</asrwt>
<pdfrwt beam="1">  1       11 0.10000000E+01 0.27282436E+02</pdfrwt>
<pdfrwt beam="2">  1        2 0.87075167E-01 0.21211200E+03</pdfrwt>
<totfact> 0.67676052E+01</totfact>
</mgrwt>
</event>
<event>
 5    1  0.2804411E-003  0.3157816E+02  0.7818608E-02  0.1724066E+00
         11   -1    0    0    0    0  0.00000000000E+00  0.00000000000E+00  0.10005849103E+04  0.10005849103E+04  0.51100000000E-03 0. -1.
          2   -1    0    0  501    0 -0.00000000000E+00 -0.00000000000E+00 -0.43319492368E+01  0.43319499873E+01  0.25500000000E-02 0. -1.
         11    1    1    2    0    0  0.32436975922E+02  0.89096824336E+01  0.80876225232E+02  0.87592828793E+02  0.51100000000E-03 0. -1.
         22    1    1    2    0    0 -0.12131623579E+01 -0.14063376371E+02  0.72950873477E+02  0.74303972027E+02  0.00000000000E+00 0. -1.
          2    1    1    2  501    0 -0.31223813564E+02  0.51536939376E+01  0.84242586234E+03  0.84302005945E+03  0.25500000000E-02 0. -1.
<mgrwt>
<rscale>  0 0.21112665E+02</rscale>
<asrwt>0</asrwt>
<pdfrwt beam="1">  1       11 0.10000000E+01 0.31578160E+02</pdfrwt>
<pdfrwt beam="2">  1        2 0.66684358E-03 0.21112665E+02</pdfrwt>
<totfact> 0.19564772E+04</totfact>
</mgrwt>
</event>
<event>
 5    1  0.2804411E-003  0.1818399E+03  0.7818608E-02  0.1169788E+00
         11   -1    0    0    0    0  0.00000000000E+00  0.00000000000E+00  0.10002087448E+04  0.10002087448E+04  0.51100000000E-03 0.  1.
          2   -1    0    0  501    0 -0.00000000000E+00 -0.00000000000E+00 -0.32864636800E+02  0.32864636899E+02  0.25500000000E-02 0.  1.
         11    1    1    2    0    0 -0.12287412760E+03 -0.35568919448E+02  0.34435259851E+03  0.36734440429E+03  0.51100000000E-03 0.  1.
         22    1    1    2    0    0 -0.50910043634E+02 -0.27759811078E+01  0.20857847727E+03  0.21471963067E+03  0.00000000000E+00 0. -1.
          2    1    1    2  501    0  0.17378417123E+03  0.38344900555E+02  0.41441303223E+03  0.45100934675E+03  0.25500000000E-02 0.  1.
<mgrwt>
<rscale>  0 0.17796424E+03</rscale>
<asrwt>0</asrwt>
<pdfrwt beam="1">  1       11 0.10000000E+01 0.18183995E+03</pdfrwt>
<pdfrwt beam="2">  1        2 0.50571533E-02 0.17796424E+03</pdfrwt>
<totfact> 0.18446912E+03</totfact>
</mgrwt>
</event>
<event>
 5    1  0.2804411E-003  0.1738925E+03  0.7818608E-02  0.1312856E+00
         11   -1    0    0    0    0  0.00000000000E+00  0.00000000000E+00  0.99978750887E+03  0.99978750887E+03  0.51100000000E-03 0. -1.
          2   -1    0    0  501    0 -0.00000000000E+00 -0.00000000000E+00 -0.47301983033E+02  0.47301983101E+02  0.25500000000E-02 0. -1.
         11    1    1    2    0    0  0.18062993163E+03  0.32469674847E+02  0.53531721286E+03  0.56590279233E+03  0.51100000000E-03 0. -1.
         22    1    1    2    0    0 -0.27907428368E+02  0.32086792299E+02  0.13218476486E+02  0.44532178465E+02  0.00000000000E+00 0. -1.
          2    1    1    2  501    0 -0.15272250326E+03 -0.64556467146E+02  0.40394983649E+03  0.43665452117E+03  0.25500000000E-02 0. -1.
<mgrwt>
<rscale>  0 0.85993037E+02</rscale>
<asrwt>0</asrwt>
<pdfrwt beam="1">  1       11 0.10000000E+01 0.17389252E+03</pdfrwt>
<pdfrwt beam="2">  1        2 0.72756816E-02 0.85993037E+02</pdfrwt>
<totfact> 0.10942094E+03</totfact>
</mgrwt>
</event>
<event>
 5    1  0.2804411E-003  0.1734096E+03  0.7818608E-02  0.1569263E+00
         11   -1    0    0    0    0  0.00000000000E+00  0.00000000000E+00  0.10002812469E+04  0.10002812469E+04  0.51100000000E-03 0. -1.
          2   -1    0    0  501    0 -0.00000000000E+00 -0.00000000000E+00 -0.94478233069E+03  0.94478233069E+03  0.25500000000E-02 0.  1.
         11    1    1    2    0    0  0.15511184285E+03 -0.65434520763E+02  0.30835812548E+03  0.35132050018E+03  0.51100000000E-03 0. -1.
         22    1    1    2    0    0 -0.14798778116E+03  0.97429401289E+02  0.65843609351E+03  0.68185846100E+03  0.00000000000E+00 0. -1.
          2    1    1    2  501    0 -0.71240616897E+01 -0.31994880526E+02 -0.91129530282E+03  0.91188461637E+03  0.25500000000E-02 0.  1.
<mgrwt>
<rscale>  0 0.32778417E+02</rscale>
<asrwt>0</asrwt>
<pdfrwt beam="1">  1       11 0.10000000E+01 0.17340957E+03</pdfrwt>
<pdfrwt beam="2">  1        2 0.14539200E+00 0.32778417E+02</pdfrwt>
<totfact> 0.39280249E+01</totfact>
</mgrwt>
</event>
<event>
 5    1  0.2804411E-003  0.2560255E+03  0.7818608E-02  0.1109555E+00
         11   -1    0    0    0    0  0.00000000000E+00  0.00000000000E+00  0.10003260406E+04  0.10003260406E+04  0.51100000000E-03 0.  1.
          2   -1    0    0  501    0 -0.00000000000E+00 -0.00000000000E+00 -0.39009929158E+03  0.39009929159E+03  0.25500000000E-02 0.  1.
         11    1    1    2    0    0 -0.13334673970E+03  0.67166648681E+02  0.37448935139E+03  0.40315627986E+03  0.51100000000E-03 0.  1.
         22    1    1    2    0    0  0.14331505085E+03  0.19336484616E+03  0.53722900246E+03  0.58868002227E+03  0.00000000000E+00 0.  1.
          2    1    1    2  501    0 -0.99683111557E+01 -0.26053149484E+03 -0.30149160487E+03  0.39858903002E+03  0.25500000000E-02 0.  1.
<mgrwt>
<rscale>  0 0.25602550E+03</rscale>
<asrwt>0</asrwt>
<pdfrwt beam="1">  1       11 0.10000000E+01 0.14930744E+03</pdfrwt>
<pdfrwt beam="2">  1        2 0.60034841E-01 0.25602550E+03</pdfrwt>
<totfact> 0.10204384E+02</totfact>
</mgrwt>
</event>
<event>
 5    1  0.2804411E-003  0.2897101E+03  0.7818608E-02  0.1090501E+00
         11   -1    0    0    0    0  0.00000000000E+00  0.00000000000E+00  0.10002463890E+04  0.10002463890E+04  0.51100000000E-03 0.  1.
          2   -1    0    0  501    0 -0.00000000000E+00 -0.00000000000E+00 -0.18671522845E+03  0.18671522847E+03  0.25500000000E-02 0.  1.
         11    1    1    2    0    0  0.11448540431E+02  0.33446792827E+02  0.30176203586E+02  0.46479676113E+02  0.51100000000E-03 0.  1.
         22    1    1    2    0    0 -0.29782924069E+03 -0.59963119618E+02  0.79660519330E+03  0.85257120894E+03  0.00000000000E+00 0.  1.
          2    1    1    2  501    0  0.28638070026E+03  0.26516326790E+02 -0.13250236348E+02  0.28791073241E+03  0.25500000000E-02 0.  1.
<mgrwt>
<rscale>  0 0.28971009E+03</rscale>
<asrwt>0</asrwt>
<pdfrwt beam="1">  1       11 0.10000000E+01 0.35351920E+02</pdfrwt>
<pdfrwt beam="2">  1        2 0.28732497E-01 0.28971009E+03</pdfrwt>
<totfact> 0.22794425E+02</totfact>
</mgrwt>
</event>
<event>
 5    1  0.2804411E-003  0.1761122E+03  0.7818608E-02  0.1393991E+00
         11   -1    0    0    0    0  0.00000000000E+00  0.00000000000E+00  0.10000356874E+04  0.10000356874E+04  0.51100000000E-03 0.  1.
         -2   -1    0    0    0  501 -0.00000000000E+00 -0.00000000000E+00 -0.48318478324E+02  0.48318478391E+02  0.25500000000E-02 0. -1.
         11    1    1    2    0    0 -0.11630741690E+03 -0.12957904298E+03  0.70870727106E+03  0.72978362523E+03  0.51100000000E-03 0.  1.
         22    1    1    2    0    0  0.88082843725E+01 -0.19147802853E+02  0.37780460933E+02  0.43261847580E+02  0.00000000000E+00 0. -1.
         -2    1    1    2    0  501  0.10749913253E+03  0.14872684583E+03  0.20522947712E+03  0.27530869302E+03  0.25500000000E-02 0. -1.
<mgrwt>
<rscale>  0 0.60924961E+02</rscale>
<asrwt>0</asrwt>
<pdfrwt beam="1">  1       11 0.10000000E+01 0.17611218E+03</pdfrwt>
<pdfrwt beam="2">  1       -2 0.74338771E-02 0.60924961E+02</pdfrwt>
<totfact> 0.75833436E+02</totfact>
</mgrwt>
</event>
<event>
 5    1  0.2804411E-003  0.1714648E+03  0.7818608E-02  0.1185558E+00
         11   -1    0    0    0    0  0.00000000000E+00  0.00000000000E+00  0.10000345207E+04  0.10000345207E+04  0.51100000000E-03 0. -1.
          2   -1    0    0  501    0 -0.00000000000E+00 -0.00000000000E+00 -0.28877105140E+03  0.28877105141E+03  0.25500000000E-02 0. -1.
         11    1    1    2    0    0  0.25087201454E+02 -0.19754667119E+03  0.46552141951E+03  0.50632425085E+03  0.51100000000E-03 0. -1.
         22    1    1    2    0    0 -0.15324590313E+03  0.97132368221E+02  0.47088932065E+03  0.50463427953E+03  0.00000000000E+00 0. -1.
          2    1    1    2  501    0  0.12815870168E+03  0.10041430297E+03 -0.22514727081E+03  0.27784704176E+03  0.25500000000E-02 0. -1.
<mgrwt>
<rscale>  0 0.16281181E+03</rscale>
<asrwt>0</asrwt>
<pdfrwt beam="1">  1       11 0.10000000E+01 0.17146482E+03</pdfrwt>
<pdfrwt beam="2">  1        2 0.44427848E-01 0.16281181E+03</pdfrwt>
<totfact> 0.14115555E+02</totfact>
</mgrwt>
</event>
<event>
 5    1  0.2804411E-003  0.1488899E+03  0.7818608E-02  0.1205417E+00
         11   -1    0    0    0    0  0.00000000000E+00  0.00000000000E+00  0.99997458518E+03  0.99997458518E+03  0.51100000000E-03 0. -1.
          2   -1    0    0  501    0 -0.00000000000E+00 -0.00000000000E+00 -0.28622419908E+02  0.28622420021E+02  0.25500000000E-02 0. -1.
         11    1    1    2    0    0 -0.80985797118E+02  0.95152429085E+02  0.60060835043E+03  0.61346807146E+03  0.51100000000E-03 0. -1.
         22    1    1    2    0    0 -0.21868128998E+02  0.85325732510E+01  0.14067407508E+03  0.14261912660E+03  0.00000000000E+00 0.  1.
          2    1    1    2  501    0  0.10285392612E+03 -0.10368500234E+03  0.23006973976E+03  0.27250980713E+03  0.25500000000E-02 0. -1.
<mgrwt>
<rscale>  0 0.14604626E+03</rscale>
<asrwt>0</asrwt>
<pdfrwt beam="1">  1       11 0.10000000E+01 0.14888995E+03</pdfrwt>
<pdfrwt beam="2">  1        2 0.44033372E-02 0.14604626E+03</pdfrwt>
<totfact> 0.21784953E+03</totfact>
</mgrwt>
</event>
<event>
 5    1  0.2804411E-003  0.1515198E+03  0.7818608E-02  0.1202802E+00
         11   -1    0    0    0    0  0.00000000000E+00  0.00000000000E+00  0.10004410481E+04  0.10004410481E+04  0.51100000000E-03 0. -1.
          2   -1    0    0  501    0 -0.00000000000E+00 -0.00000000000E+00 -0.32325335080E+02  0.32325335181E+02  0.25500000000E-02 0. -1.
         11    1    1    2    0    0  0.11388439756E+02 -0.10913705726E+01  0.66811678035E+02  0.67784127729E+02  0.51100000000E-03 0. -1.
         22    1    1    2    0    0  0.86806303349E+02 -0.10980179436E+03  0.70666135045E+03  0.72039019466E+03  0.00000000000E+00 0. -1.
          2    1    1    2  501    0 -0.98194743105E+02  0.11089316494E+03  0.19464268456E+03  0.24459206092E+03  0.25500000000E-02 0. -1.
<mgrwt>
<rscale>  0 0.14811989E+03</rscale>
<asrwt>0</asrwt>
<pdfrwt beam="1">  1       11 0.10000000E+01 0.15151976E+03</pdfrwt>
<pdfrwt beam="2">  1        2 0.49753217E-02 0.14811989E+03</pdfrwt>
<totfact> 0.18576045E+03</totfact>
</mgrwt>
</event>
<event>
 5    1  0.2804411E-003  0.3534172E+02  0.7818608E-02  0.1545587E+00
         11   -1    0    0    0    0  0.00000000000E+00  0.00000000000E+00  0.10000901212E+04  0.10000901212E+04  0.51100000000E-03 0. -1.
          2   -1    0    0  501    0 -0.00000000000E+00 -0.00000000000E+00 -0.54950457739E+01  0.54950463656E+01  0.25500000000E-02 0. -1.
         11    1    1    2    0    0 -0.94792235644E+01 -0.17462257421E+02  0.38068805825E+02  0.42942055038E+02  0.51100000000E-03 0. -1.
         22    1    1    2    0    0 -0.68400056688E+01  0.36616136452E+02  0.11800844660E+03  0.12374781047E+03  0.00000000000E+00 0.  1.
          2    1    1    2  501    0  0.16319229233E+02 -0.19153879031E+02  0.83851782298E+03  0.83889530205E+03  0.25500000000E-02 0. -1.
<mgrwt>
<rscale>  0 0.35341722E+02</rscale>
<asrwt>0</asrwt>
<pdfrwt beam="1">  1       11 0.10000000E+01 0.19869235E+02</pdfrwt>
<pdfrwt beam="2">  1        2 0.84546787E-03 0.35341722E+02</pdfrwt>
<totfact> 0.16120677E+04</totfact>
</mgrwt>
</event>
<event>
 5    1  0.2804411E-003  0.2619318E+03  0.7818608E-02  0.1109822E+00
         11   -1    0    0    0    0  0.00000000000E+00  0.00000000000E+00  0.10002464421E+04  0.10002464421E+04  0.51100000000E-03 0. -1.
          2   -1    0    0  501    0 -0.00000000000E+00 -0.00000000000E+00 -0.18582950304E+04  0.18582950304E+04  0.25500000000E-02 0. -1.
         11    1    1    2    0    0  0.90002836535E+02  0.99679297143E+02  0.49832211330E+03  0.51610212310E+03  0.51100000000E-03 0. -1.
         22    1    1    2    0    0  0.36899945455E+02  0.12218069870E+03  0.47575199739E+03  0.49257455490E+03  0.00000000000E+00 0. -1.
          2    1    1    2  501    0 -0.12690278199E+03 -0.22185999584E+03 -0.18321226989E+04  0.18498647945E+04  0.25500000000E-02 0. -1.
<mgrwt>
<rscale>  0 0.25558985E+03</rscale>
<asrwt>0</asrwt>
<pdfrwt beam="1">  1       11 0.10000000E+01 0.26193180E+03</pdfrwt>
<pdfrwt beam="2">  1        2 0.28596199E+00 0.25558985E+03</pdfrwt>
<totfact> 0.11111502E+01</totfact>
</mgrwt>
</event>
<event>
 5    1  0.2804411E-003  0.1410116E+03  0.7818608E-02  0.1215846E+00
         11   -1    0    0    0    0  0.00000000000E+00  0.00000000000E+00  0.10001972050E+04  0.10001972050E+04  0.51100000000E-03 0. -1.
         -2   -1    0    0    0  501 -0.00000000000E+00 -0.00000000000E+00 -0.23535661642E+02  0.23535661780E+02  0.25500000000E-02 0.  1.
         11    1    1    2    0    0 -0.77832305003E+02  0.92799597952E+02  0.61778008828E+03  0.62954099990E+03  0.51100000000E-03 0. -1.
         22    1    1    2    0    0 -0.18823654345E+02  0.59017470469E+01  0.87214752527E+02  0.89417971568E+02  0.00000000000E+00 0. -1.
         -2    1    1    2    0  501  0.96655959347E+02 -0.98701344999E+02  0.27166670257E+03  0.30477389533E+03  0.25500000000E-02 0.  1.
<mgrwt>
<rscale>  0 0.13814605E+03</rscale>
<asrwt>0</asrwt>
<pdfrwt beam="1">  1       11 0.10000000E+01 0.14101162E+03</pdfrwt>
<pdfrwt beam="2">  1       -2 0.36215850E-02 0.13814605E+03</pdfrwt>
<totfact> 0.23930795E+03</totfact>
</mgrwt>
</event>
<event>
 5    1  0.2804411E-003  0.2510062E+03  0.7818608E-02  0.1126131E+00
         11   -1    0    0    0    0  0.00000000000E+00  0.00000000000E+00  0.99994657864E+03  0.99994657864E+03  0.51100000000E-03 0.  1.
          2   -1    0    0  501    0 -0.00000000000E+00 -0.00000000000E+00 -0.58055870402E+02  0.58055870458E+02  0.25500000000E-02 0.  1.
         11    1    1    2    0    0 -0.92345931050E+02  0.41999193118E+02  0.11770890196E+03  0.15539333578E+03  0.51100000000E-03 0.  1.
         22    1    1    2    0    0 -0.10684104774E+03  0.74439606248E+02  0.38636430284E+03  0.40771759708E+03  0.00000000000E+00 0.  1.
          2    1    1    2  501    0  0.19918697880E+03 -0.11643879937E+03  0.43781750344E+03  0.49489151624E+03  0.25500000000E-02 0.  1.
<mgrwt>
<rscale>  0 0.23072375E+03</rscale>
<asrwt>0</asrwt>
<pdfrwt beam="1">  1       11 0.10000000E+01 0.25100623E+03</pdfrwt>
<pdfrwt beam="2">  1        2 0.89311950E-02 0.23072375E+03</pdfrwt>
<totfact> 0.90126323E+02</totfact>
</mgrwt>
</event>
<event>
 5    1  0.2804411E-003  0.3106939E+03  0.7818608E-02  0.1084304E+00
         11   -1    0    0    0    0  0.00000000000E+00  0.00000000000E+00  0.10002705410E+04  0.10002705410E+04  0.51100000000E-03 0.  1.
          2   -1    0    0  501    0 -0.00000000000E+00 -0.00000000000E+00 -0.44147011435E+03  0.44147011436E+03  0.25500000000E-02 0.  1.
         11    1    1    2    0    0  0.81300872173E+02 -0.91944452898E+02  0.28489802182E+03  0.31021040774E+03  0.51100000000E-03 0.  1.
         22    1    1    2    0    0  0.15674752323E+03 -0.93702195251E+02  0.63507499203E+03  0.66081020947E+03  0.00000000000E+00 0.  1.
          2    1    1    2  501    0 -0.23804839541E+03  0.18564664815E+03 -0.36117258722E+03  0.47072003812E+03  0.25500000000E-02 0.  1.
<mgrwt>
<rscale>  0 0.30188030E+03</rscale>
<asrwt>0</asrwt>
<pdfrwt beam="1">  1       11 0.10000000E+01 0.31069389E+03</pdfrwt>
<pdfrwt beam="2">  1        2 0.67936852E-01 0.30188030E+03</pdfrwt>
<totfact> 0.88941339E+01</totfact>
</mgrwt>
</event>
<event>
 5    1  0.2804411E-003  0.1253598E+03  0.7818608E-02  0.1406192E+00
         11   -1    0    0    0    0  0.00000000000E+00  0.00000000000E+00  0.10009845869E+04  0.10009845869E+04  0.51100000000E-03 0. -1.
          2   -1    0    0  501    0 -0.00000000000E+00 -0.00000000000E+00 -0.16013496379E+04  0.16013496379E+04  0.25500000000E-02 0.  1.
         11    1    1    2    0    0  0.11894203324E+03 -0.15373545010E+02  0.27094895480E+03  0.29630539865E+03  0.51100000000E-03 0. -1.
         22    1    1    2    0    0 -0.12511418110E+03 -0.42349753111E+02  0.71074020309E+03  0.72290988109E+03  0.00000000000E+00 0. -1.
          2    1    1    2  501    0  0.61721478586E+01  0.57723298120E+02 -0.15820542089E+04  0.15831189451E+04  0.25500000000E-02 0.  1.
<mgrwt>
<rscale>  0 0.58052343E+02</rscale>
<asrwt>0</asrwt>
<pdfrwt beam="1">  1       11 0.10000000E+01 0.12535983E+03</pdfrwt>
<pdfrwt beam="2">  1        2 0.24660404E+00 0.58052343E+02</pdfrwt>
<totfact> 0.17186623E+01</totfact>
</mgrwt>
</event>
<event>
 5    1  0.2804411E-003  0.2614952E+03  0.7818608E-02  0.1211937E+00
         11   -1    0    0    0    0  0.00000000000E+00  0.00000000000E+00  0.10001251709E+04  0.10001251709E+04  0.51100000000E-03 0. -1.
          2   -1    0    0  501    0 -0.00000000000E+00 -0.00000000000E+00 -0.10272410816E+04  0.10272410816E+04  0.25500000000E-02 0. -1.
         11    1    1    2    0    0 -0.12532976354E+03 -0.16870877929E+03  0.26520287286E+03  0.33838257285E+03  0.51100000000E-03 0. -1.
         22    1    1    2    0    0  0.26595032919E+03  0.17957009692E+03  0.65597494801E+03  0.73025894703E+03  0.00000000000E+00 0. -1.
          2    1    1    2  501    0 -0.14062056565E+03 -0.10861317624E+02 -0.94829373151E+03  0.95872473261E+03  0.25500000000E-02 0. -1.
<mgrwt>
<rscale>  0 0.14103940E+03</rscale>
<asrwt>0</asrwt>
<pdfrwt beam="1">  1       11 0.10000000E+01 0.26149519E+03</pdfrwt>
<pdfrwt beam="2">  1        2 0.15805687E+00 0.14103940E+03</pdfrwt>
<totfact> 0.32659228E+01</totfact>
</mgrwt>
</event>
<event>
 5    1  0.2804411E-003  0.1474553E+03  0.7818608E-02  0.1203635E+00
         11   -1    0    0    0    0  0.00000000000E+00  0.00000000000E+00  0.10002197693E+04  0.10002197693E+04  0.51100000000E-03 0. -1.
          2   -1    0    0  501    0 -0.00000000000E+00 -0.00000000000E+00 -0.10396188803E+03  0.10396188806E+03  0.25500000000E-02 0. -1.
         11    1    1    2    0    0  0.29950488917E+02  0.94029261408E+02  0.27262105073E+03  0.28993235606E+03  0.51100000000E-03 0. -1.
         22    1    1    2    0    0 -0.16957202479E+03 -0.46987285774E+02  0.64209052096E+03  0.66576475855E+03  0.00000000000E+00 0. -1.
          2    1    1    2  501    0  0.13962153587E+03 -0.47041975635E+02 -0.18453690391E+02  0.14848454278E+03  0.25500000000E-02 0. -1.
<mgrwt>
<rscale>  0 0.14745534E+03</rscale>
<asrwt>0</asrwt>
<pdfrwt beam="1">  1       11 0.10000000E+01 0.98684010E+02</pdfrwt>
<pdfrwt beam="2">  1        2 0.15997651E-01 0.14745534E+03</pdfrwt>
<totfact> 0.43538910E+02</totfact>
</mgrwt>
</event>
<event>
 5    1  0.2804411E-003  0.1030116E+03  0.7818608E-02  0.1723008E+00
         11   -1    0    0    0    0  0.00000000000E+00  0.00000000000E+00  0.10002629664E+04  0.10002629664E+04  0.51100000000E-03 0.  1.
          2   -1    0    0  501    0 -0.00000000000E+00 -0.00000000000E+00 -0.72336043870E+03  0.72336043870E+03  0.25500000000E-02 0. -1.
         11    1    1    2    0    0 -0.68312975828E+02  0.75249180443E+02  0.51148798956E+03  0.52148735871E+03  0.51100000000E-03 0.  1.
         22    1    1    2    0    0  0.54031070112E+02 -0.90876485211E+02  0.47783978786E+03  0.48939631687E+03  0.00000000000E+00 0.  1.
          2    1    1    2  501    0  0.14281905716E+02  0.15627304768E+02 -0.71242524976E+03  0.71273972949E+03  0.25500000000E-02 0. -1.
<mgrwt>
<rscale>  0 0.21170392E+02</rscale>
<asrwt>0</asrwt>
<pdfrwt beam="1">  1       11 0.10000000E+01 0.10301159E+03</pdfrwt>
<pdfrwt beam="2">  1        2 0.11131548E+00 0.21170392E+02</pdfrwt>
<totfact> 0.54497836E+01</totfact>
</mgrwt>
</event>
<event>
 5    1  0.2804411E-003  0.5804621E+02  0.7818608E-02  0.1412136E+00
         11   -1    0    0    0    0  0.00000000000E+00  0.00000000000E+00  0.10002303357E+04  0.10002303357E+04  0.51100000000E-03 0. -1.
         -2   -1    0    0    0  501 -0.00000000000E+00 -0.00000000000E+00 -0.38498863696E+01  0.38498872141E+01  0.25500000000E-02 0. -1.
         11    1    1    2    0    0 -0.26331462436E+02 -0.29359226346E+02  0.23092244956E+03  0.23426584855E+03  0.51100000000E-03 0. -1.
         22    1    1    2    0    0 -0.62824798417E+01 -0.17046313555E+02  0.81099557721E+02  0.83109473716E+02  0.00000000000E+00 0. -1.
         -2    1    1    2    0  501  0.32613942277E+02  0.46405539901E+02  0.68435844202E+03  0.68670490062E+03  0.25500000000E-02 0. -1.
<mgrwt>
<rscale>  0 0.56719868E+02</rscale>
<asrwt>0</asrwt>
<pdfrwt beam="1">  1       11 0.10000000E+01 0.58046207E+02</pdfrwt>
<pdfrwt beam="2">  1       -2 0.59242668E-03 0.56719868E+02</pdfrwt>
<totfact> 0.27776944E+04</totfact>
</mgrwt>
</event>
<event>
 5    1  0.2804411E-003  0.1552988E+03  0.7818608E-02  0.1200155E+00
         11   -1    0    0    0    0  0.00000000000E+00  0.00000000000E+00  0.99995257894E+03  0.99995257894E+03  0.51100000000E-03 0.  1.
          2   -1    0    0  501    0 -0.00000000000E+00 -0.00000000000E+00 -0.23929074441E+02  0.23929074577E+02  0.25500000000E-02 0.  1.
         11    1    1    2    0    0 -0.90873896702E+02  0.26802854142E+02  0.28547417455E+03  0.30078557550E+03  0.51100000000E-03 0.  1.
         22    1    1    2    0    0 -0.53409710238E+02  0.15149121060E+02  0.29053278816E+03  0.29578944202E+03  0.00000000000E+00 0.  1.
          2    1    1    2  501    0  0.14428360694E+03 -0.41951975202E+02  0.40001654179E+03  0.42730663600E+03  0.25500000000E-02 0.  1.
<mgrwt>
<rscale>  0 0.15025887E+03</rscale>
<asrwt>0</asrwt>
<pdfrwt beam="1">  1       11 0.10000000E+01 0.15529884E+03</pdfrwt>
<pdfrwt beam="2">  1        2 0.36812214E-02 0.15025887E+03</pdfrwt>
<totfact> 0.27699934E+03</totfact>
</mgrwt>
</event>
<event>
 5    1  0.2804411E-003  0.1894317E+03  0.7818608E-02  0.1608434E+00
         11   -1    0    0    0    0  0.00000000000E+00  0.00000000000E+00  0.10000978344E+04  0.10000978344E+04  0.51100000000E-03 0. -1.
          2   -1    0    0  501    0 -0.00000000000E+00 -0.00000000000E+00 -0.20969793301E+03  0.20969793303E+03  0.25500000000E-02 0. -1.
         11    1    1    2    0    0  0.88676065570E+02 -0.17901956462E+03 -0.56610257742E+02  0.20764433632E+03  0.51100000000E-03 0. -1.
         22    1    1    2    0    0 -0.59591864590E+02  0.17915383925E+03  0.91179487369E+03  0.93113757315E+03  0.00000000000E+00 0. -1.
          2    1    1    2  501    0 -0.29084200979E+02 -0.13427462642E+00 -0.64784714559E+02  0.71013857966E+02  0.25500000000E-02 0. -1.
<mgrwt>
<rscale>  0 0.29084511E+02</rscale>
<asrwt>0</asrwt>
<pdfrwt beam="1">  1       11 0.10000000E+01 0.18943169E+03</pdfrwt>
<pdfrwt beam="2">  1        2 0.32264376E-01 0.29084511E+02</pdfrwt>
<totfact> 0.19105761E+02</totfact>
</mgrwt>
</event>
<event>
 5    1  0.2804411E-003  0.1434136E+03  0.7818608E-02  0.1499154E+00
         11   -1    0    0    0    0  0.00000000000E+00  0.00000000000E+00  0.10002830989E+04  0.10002830989E+04  0.51100000000E-03 0. -1.
          2   -1    0    0  501    0 -0.00000000000E+00 -0.00000000000E+00 -0.13437370603E+03  0.13437370606E+03  0.25500000000E-02 0. -1.
         11    1    1    2    0    0  0.17154250148E+03 -0.27463487017E+02  0.35341849847E+03  0.39380922792E+03  0.51100000000E-03 0. -1.
         22    1    1    2    0    0 -0.13179102026E+03  0.16416706816E+02  0.61561424252E+03  0.62977716446E+03  0.00000000000E+00 0.  1.
          2    1    1    2  501    0 -0.39751481215E+02  0.11046780201E+02 -0.10312334813E+03  0.11107041257E+03  0.25500000000E-02 0. -1.
<mgrwt>
<rscale>  0 0.41257867E+02</rscale>
<asrwt>0</asrwt>
<pdfrwt beam="1">  1       11 0.10000000E+01 0.14341358E+03</pdfrwt>
<pdfrwt beam="2">  1        2 0.20678730E-01 0.41257867E+02</pdfrwt>
<totfact> 0.30887683E+02</totfact>
</mgrwt>
</event>
<event>
 5    1  0.2804411E-003  0.1832316E+03  0.7818608E-02  0.1164712E+00
         11   -1    0    0    0    0  0.00000000000E+00  0.00000000000E+00  0.10005130433E+04  0.10005130433E+04  0.51100000000E-03 0. -1.
         -2   -1    0    0    0  501 -0.00000000000E+00 -0.00000000000E+00 -0.10636635174E+03  0.10636635177E+03  0.25500000000E-02 0.  1.
         11    1    1    2    0    0 -0.89761301666E+02  0.13918085573E+03  0.69107330843E+03  0.71064106235E+03  0.51100000000E-03 0. -1.
         22    1    1    2    0    0 -0.40686482899E+02 -0.66856816331E+01  0.20619562894E+03  0.21027773450E+03  0.00000000000E+00 0. -1.
         -2    1    1    2    0  501  0.13044778456E+03 -0.13249517409E+03 -0.31222458309E+01  0.18596059820E+03  0.25500000000E-02 0.  1.
<mgrwt>
<rscale>  0 0.18323161E+03</rscale>
<asrwt>0</asrwt>
<pdfrwt beam="1">  1       11 0.10000000E+01 0.41232126E+02</pdfrwt>
<pdfrwt beam="2">  1       -2 0.16372449E-01 0.18323161E+03</pdfrwt>
<totfact> 0.23377431E+02</totfact>
</mgrwt>
</event>
<event>
 5    1  0.2804411E-003  0.9699305E+02  0.7818608E-02  0.1418860E+00
         11   -1    0    0    0    0  0.00000000000E+00  0.00000000000E+00  0.10002379079E+04  0.10002379079E+04  0.51100000000E-03 0.  1.
          2   -1    0    0  501    0 -0.00000000000E+00 -0.00000000000E+00 -0.37724396677E+02  0.37724396763E+02  0.25500000000E-02 0.  1.
         11    1    1    2    0    0 -0.12679345099E+03  0.38838509208E+02  0.56189614080E+03  0.57733203796E+03  0.51100000000E-03 0.  1.
         22    1    1    2    0    0  0.71770016235E+02 -0.33700569331E+02  0.39744478714E+03  0.40527647653E+03  0.00000000000E+00 0.  1.
          2    1    1    2  501    0  0.55023434755E+02 -0.51379398776E+01  0.31725833153E+01  0.55353790203E+02  0.25500000000E-02 0.  1.
<mgrwt>
<rscale>  0 0.55262798E+02</rscale>
<asrwt>0</asrwt>
<pdfrwt beam="1">  1       11 0.10000000E+01 0.96993054E+02</pdfrwt>
<pdfrwt beam="2">  1        2 0.58051339E-02 0.55262798E+02</pdfrwt>
<totfact> 0.13970644E+03</totfact>
</mgrwt>
</event>
<event>
 5    1  0.2804411E-003  0.2368908E+03  0.7818608E-02  0.1124969E+00
         11   -1    0    0    0    0  0.00000000000E+00  0.00000000000E+00  0.99993138686E+03  0.99993138686E+03  0.51100000000E-03 0. -1.
          2   -1    0    0  501    0 -0.00000000000E+00 -0.00000000000E+00 -0.78987842014E+03  0.78987842015E+03  0.25500000000E-02 0. -1.
         11    1    1    2    0    0  0.18445328890E+03  0.99027271087E+02  0.90756585021E+03  0.93139958593E+03  0.51100000000E-03 0. -1.
         22    1    1    2    0    0  0.16142700160E+02  0.18303576209E+02  0.60679095978E+02  0.65403060778E+02  0.00000000000E+00 0. -1.
          2    1    1    2  501    0 -0.20059598906E+03 -0.11733084730E+03 -0.75819197947E+03  0.79300716030E+03  0.25500000000E-02 0. -1.
<mgrwt>
<rscale>  0 0.23239036E+03</rscale>
<asrwt>0</asrwt>
<pdfrwt beam="1">  1       11 0.10000000E+01 0.23689078E+03</pdfrwt>
<pdfrwt beam="2">  1        2 0.12151142E+00 0.23239036E+03</pdfrwt>
<totfact> 0.45298353E+01</totfact>
</mgrwt>
</event>
<event>
 5    1  0.2804411E-003  0.3029681E+03  0.7818608E-02  0.1092251E+00
         11   -1    0    0    0    0  0.00000000000E+00  0.00000000000E+00  0.10002816629E+04  0.10002816629E+04  0.51100000000E-03 0. -1.
          2   -1    0    0  501    0 -0.00000000000E+00 -0.00000000000E+00 -0.12163275701E+03  0.12163275703E+03  0.25500000000E-02 0. -1.
         11    1    1    2    0    0  0.12206788051E+03  0.43119716209E+02  0.22639756647E+03  0.26079826587E+03  0.51100000000E-03 0. -1.
         22    1    1    2    0    0  0.12180435301E+03  0.10702717714E+03  0.52180950619E+03  0.54642133725E+03  0.00000000000E+00 0. -1.
          2    1    1    2  501    0 -0.24387223352E+03 -0.15014689335E+03  0.13044183324E+03  0.31469481682E+03  0.25500000000E-02 0. -1.
<mgrwt>
<rscale>  0 0.28638742E+03</rscale>
<asrwt>0</asrwt>
<pdfrwt beam="1">  1       11 0.10000000E+01 0.30296809E+03</pdfrwt>
<pdfrwt beam="2">  1        2 0.18718002E-01 0.28638742E+03</pdfrwt>
<totfact> 0.37075735E+02</totfact>
</mgrwt>
</event>
<event>
 5    1  0.2804411E-003  0.1527910E+03  0.7818608E-02  0.1199425E+00
         11   -1    0    0    0    0  0.00000000000E+00  0.00000000000E+00  0.10004766101E+04  0.10004766101E+04  0.51100000000E-03 0.  1.
          2   -1    0    0  501    0 -0.00000000000E+00 -0.00000000000E+00 -0.25191156554E+02  0.25191156683E+02  0.25500000000E-02 0.  1.
         11    1    1    2    0    0 -0.12926928402E+03  0.57121263305E+02  0.57626040674E+03  0.59333754549E+03  0.51100000000E-03 0.  1.
         22    1    1    2    0    0 -0.10730883203E+02 -0.92855568194E+00  0.64100576581E+02  0.64999215288E+02  0.00000000000E+00 0.  1.
          2    1    1    2  501    0  0.14000016723E+03 -0.56192707623E+02  0.33492447027E+03  0.36733100605E+03  0.25500000000E-02 0.  1.
<mgrwt>
<rscale>  0 0.15085645E+03</rscale>
<asrwt>0</asrwt>
<pdfrwt beam="1">  1       11 0.10000000E+01 0.15279104E+03</pdfrwt>
<pdfrwt beam="2">  1        2 0.38774096E-02 0.15085645E+03</pdfrwt>
<totfact> 0.25857621E+03</totfact>
</mgrwt>
</event>
<event>
 5    1  0.2804411E-003  0.1699935E+03  0.7818608E-02  0.1180252E+00
         11   -1    0    0    0    0  0.00000000000E+00  0.00000000000E+00  0.10003276120E+04  0.10003276120E+04  0.51100000000E-03 0.  1.
          2   -1    0    0  501    0 -0.00000000000E+00 -0.00000000000E+00 -0.13363248480E+03  0.13363248482E+03  0.25500000000E-02 0.  1.
         11    1    1    2    0    0  0.60784979139E+02  0.13974842114E+03  0.88620318440E+03  0.89921105362E+03  0.51100000000E-03 0.  1.
         22    1    1    2    0    0  0.76450677019E+01  0.13371622181E+02  0.50657919039E+02  0.52947824330E+02  0.00000000000E+00 0.  1.
          2    1    1    2  501    0 -0.68430046841E+02 -0.15312004332E+03 -0.70165976200E+02  0.18180121892E+03  0.25500000000E-02 0.  1.
<mgrwt>
<rscale>  0 0.16771529E+03</rscale>
<asrwt>0</asrwt>
<pdfrwt beam="1">  1       11 0.10000000E+01 0.16999353E+03</pdfrwt>
<pdfrwt beam="2">  1        2 0.20565579E-01 0.16771529E+03</pdfrwt>
<totfact> 0.32769201E+02</totfact>
</mgrwt>
</event>
<event>
 5    1  0.2804411E-003  0.1397681E+03  0.7818608E-02  0.1219840E+00
         11   -1    0    0    0    0  0.00000000000E+00  0.00000000000E+00  0.10000005376E+04  0.10000005376E+04  0.51100000000E-03 0. -1.
          2   -1    0    0  501    0 -0.00000000000E+00 -0.00000000000E+00 -0.36153278697E+02  0.36153278787E+02  0.25500000000E-02 0. -1.
         11    1    1    2    0    0 -0.65256140485E+01  0.26051470501E+02  0.39963909063E+02  0.48149525250E+02  0.51100000000E-03 0. -1.
         22    1    1    2    0    0  0.23098796416E+02  0.10819909283E+03  0.88330963734E+02  0.14157315155E+03  0.00000000000E+00 0. -1.
          2    1    1    2  501    0 -0.16573182367E+02 -0.13425056333E+03  0.83555238615E+03  0.84643113963E+03  0.25500000000E-02 0. -1.
<mgrwt>
<rscale>  0 0.13526967E+03</rscale>
<asrwt>0</asrwt>
<pdfrwt beam="1">  1       11 0.10000000E+01 0.13976809E+03</pdfrwt>
<pdfrwt beam="2">  1        2 0.55620457E-02 0.13526967E+03</pdfrwt>
<totfact> 0.15951135E+03</totfact>
</mgrwt>
</event>
<event>
 5    1  0.2804411E-003  0.4393494E+03  0.7818608E-02  0.1030947E+00
         11   -1    0    0    0    0  0.00000000000E+00  0.00000000000E+00  0.10008402074E+04  0.10008402074E+04  0.51100000000E-03 0. -1.
          2   -1    0    0  501    0 -0.00000000000E+00 -0.00000000000E+00 -0.20054666955E+04  0.20054666955E+04  0.25500000000E-02 0. -1.
         11    1    1    2    0    0  0.85954804181E+01 -0.67387685972E+01 -0.19063610950E+02  0.21970765770E+02  0.51100000000E-03 0. -1.
         22    1    1    2    0    0  0.34667690282E+03  0.26534007674E+03  0.92555603228E+03  0.10233495005E+04  0.00000000000E+00 0. -1.
          2    1    1    2  501    0 -0.35527238324E+03 -0.25860130814E+03 -0.19111189094E+04  0.19609866366E+04  0.25500000000E-02 0. -1.
<mgrwt>
<rscale>  0 0.43934935E+03</rscale>
<asrwt>0</asrwt>
<pdfrwt beam="1">  1       11 0.10000000E+01 0.10922152E+02</pdfrwt>
<pdfrwt beam="2">  1        2 0.30879256E+00 0.43934935E+03</pdfrwt>
<totfact> 0.88158075E+00</totfact>
</mgrwt>
</event>
<event>
 5    1  0.2804411E-003  0.1135872E+03  0.7818608E-02  0.1428469E+00
         11   -1    0    0    0    0  0.00000000000E+00  0.00000000000E+00  0.10003820569E+04  0.10003820569E+04  0.51100000000E-03 0.  1.
          2   -1    0    0  501    0 -0.00000000000E+00 -0.00000000000E+00 -0.17172116239E+03  0.17172116241E+03  0.25500000000E-02 0.  1.
         11    1    1    2    0    0  0.71552133933E+02  0.60878672493E+02  0.39646271392E+03  0.40744153466E+03  0.51100000000E-03 0.  1.
         22    1    1    2    0    0 -0.11968686826E+03 -0.83694972164E+02  0.58494042904E+03  0.60289725520E+03  0.00000000000E+00 0.  1.
          2    1    1    2  501    0  0.48134734327E+02  0.22816299671E+02 -0.15274224843E+03  0.16176442947E+03  0.25500000000E-02 0.  1.
<mgrwt>
<rscale>  0 0.53268529E+02</rscale>
<asrwt>0</asrwt>
<pdfrwt beam="1">  1       11 0.10000000E+01 0.11358719E+03</pdfrwt>
<pdfrwt beam="2">  1        2 0.26428733E-01 0.53268529E+02</pdfrwt>
<totfact> 0.23992648E+02</totfact>
</mgrwt>
</event>
<event>
 5    1  0.2804411E-003  0.7829617E+02  0.7818608E-02  0.1338715E+00
         11   -1    0    0    0    0  0.00000000000E+00  0.00000000000E+00  0.10003383558E+04  0.10003383558E+04  0.51100000000E-03 0.  1.
          2   -1    0    0  501    0 -0.00000000000E+00 -0.00000000000E+00 -0.66449240438E+01  0.66449245331E+01  0.25500000000E-02 0.  1.
         11    1    1    2    0    0  0.16380893049E+02 -0.34071280076E+02  0.15116251024E+03  0.15581813208E+03  0.51100000000E-03 0.  1.
         22    1    1    2    0    0  0.34277564729E+01 -0.40016591788E+02  0.19387217578E+03  0.19798863016E+03  0.00000000000E+00 0.  1.
          2    1    1    2  501    0 -0.19808649522E+02  0.74087871864E+02  0.64865874572E+03  0.65317651807E+03  0.25500000000E-02 0.  1.
<mgrwt>
<rscale>  0 0.76690256E+02</rscale>
<asrwt>0</asrwt>
<pdfrwt beam="1">  1       11 0.10000000E+01 0.78296171E+02</pdfrwt>
<pdfrwt beam="2">  1        2 0.10226419E-02 0.76690256E+02</pdfrwt>
<totfact> 0.14408262E+04</totfact>
</mgrwt>
</event>
<event>
 5    1  0.2804411E-003  0.2962563E+03  0.7818608E-02  0.1088532E+00
         11   -1    0    0    0    0  0.00000000000E+00  0.00000000000E+00  0.10002498293E+04  0.10002498293E+04  0.51100000000E-03 0. -1.
          2   -1    0    0  501    0 -0.00000000000E+00 -0.00000000000E+00 -0.66320123030E+03  0.66320123030E+03  0.25500000000E-02 0. -1.
         11    1    1    2    0    0 -0.30809015610E+02  0.25632389291E+03  0.86790270626E+03  0.90548674261E+03  0.51100000000E-03 0. -1.
         22    1    1    2    0    0 -0.50013732749E+01  0.34990081985E+02  0.76023084079E+02  0.83838111172E+02  0.00000000000E+00 0. -1.
          2    1    1    2  501    0  0.35810388885E+02 -0.29131397490E+03 -0.60687719137E+03  0.67412620579E+03  0.25500000000E-02 0. -1.
<mgrwt>
<rscale>  0 0.29350676E+03</rscale>
<asrwt>0</asrwt>
<pdfrwt beam="1">  1       11 0.10000000E+01 0.29625626E+03</pdfrwt>
<pdfrwt beam="2">  1        2 0.10205645E+00 0.29350676E+03</pdfrwt>
<totfact> 0.55753679E+01</totfact>
</mgrwt>
</event>
<event>
 5    1  0.2804411E-003  0.1074906E+03  0.7818608E-02  0.1270492E+00
         11   -1    0    0    0    0  0.00000000000E+00  0.00000000000E+00  0.10003046591E+04  0.10003046591E+04  0.51100000000E-03 0.  1.
         -2   -1    0    0    0  501 -0.00000000000E+00 -0.00000000000E+00 -0.11363856381E+02  0.11363856667E+02  0.25500000000E-02 0. -1.
         11    1    1    2    0    0  0.26800364194E+02  0.52226475344E+02  0.30727832023E+03  0.31283514881E+03  0.51100000000E-03 0.  1.
         22    1    1    2    0    0  0.13795374972E+01  0.48725631460E+02  0.24064655731E+03  0.24553381810E+03  0.00000000000E+00 0.  1.
         -2    1    1    2    0  501 -0.28179901691E+02 -0.10095210680E+03  0.44101592518E+03  0.45329954886E+03  0.25500000000E-02 0. -1.
<mgrwt>
<rscale>  0 0.10481142E+03</rscale>
<asrwt>0</asrwt>
<pdfrwt beam="1">  1       11 0.10000000E+01 0.10749061E+03</pdfrwt>
<pdfrwt beam="2">  1       -2 0.17488182E-02 0.10481142E+03</pdfrwt>
<totfact> 0.66948969E+03</totfact>
</mgrwt>
</event>
<event>
 5    1  0.2804411E-003  0.2609761E+02  0.7818608E-02  0.1656339E+00
         11   -1    0    0    0    0  0.00000000000E+00  0.00000000000E+00  0.10000632943E+04  0.10000632943E+04  0.51100000000E-03 0.  1.
          2   -1    0    0  501    0 -0.00000000000E+00 -0.00000000000E+00 -0.22100853418E+01  0.22100868129E+01  0.25500000000E-02 0.  1.
         11    1    1    2    0    0 -0.11121805137E+02  0.66062321515E+01  0.43675909831E+02  0.45551311206E+02  0.51100000000E-03 0.  1.
         22    1    1    2    0    0 -0.70597515171E+01  0.11026799378E+02  0.37957058165E+02  0.40151820140E+02  0.00000000000E+00 0. -1.
          2    1    1    2  501    0  0.18181556654E+02 -0.17633031529E+02  0.91622024093E+03  0.91657024973E+03  0.25500000000E-02 0.  1.
<mgrwt>
<rscale>  0 0.25327708E+02</rscale>
<asrwt>0</asrwt>
<pdfrwt beam="1">  1       11 0.10000000E+01 0.26097610E+02</pdfrwt>
<pdfrwt beam="2">  1        2 0.34003475E-03 0.25327708E+02</pdfrwt>
<totfact> 0.49727860E+04</totfact>
</mgrwt>
</event>
<event>
 5    1  0.2804411E-003  0.1478665E+03  0.7818608E-02  0.1206148E+00
         11   -1    0    0    0    0  0.00000000000E+00  0.00000000000E+00  0.10003324698E+04  0.10003324698E+04  0.51100000000E-03 0. -1.
          2   -1    0    0  501    0 -0.00000000000E+00 -0.00000000000E+00 -0.26001811037E+02  0.26001811162E+02  0.25500000000E-02 0. -1.
         11    1    1    2    0    0 -0.53997430143E+02 -0.12070873283E+03  0.63337282098E+03  0.64702971416E+03  0.51100000000E-03 0. -1.
         22    1    1    2    0    0  0.26126323154E+01 -0.15387313636E+02  0.70482400636E+02  0.72189778140E+02  0.00000000000E+00 0. -1.
          2    1    1    2  501    0  0.51384797827E+02  0.13609604647E+03  0.27047543716E+03  0.30711478868E+03  0.25500000000E-02 0. -1.
<mgrwt>
<rscale>  0 0.14547347E+03</rscale>
<asrwt>0</asrwt>
<pdfrwt beam="1">  1       11 0.10000000E+01 0.14786651E+03</pdfrwt>
<pdfrwt beam="2">  1        2 0.40016085E-02 0.14547347E+03</pdfrwt>
<totfact> 0.24716095E+03</totfact>
</mgrwt>
</event>
<event>
 5    1  0.2804411E-003  0.3484885E+03  0.7818608E-02  0.1065124E+00
         11   -1    0    0    0    0  0.00000000000E+00  0.00000000000E+00  0.99999553097E+03  0.99999553097E+03  0.51100000000E-03 0. -1.
          2   -1    0    0  501    0 -0.00000000000E+00 -0.00000000000E+00 -0.35786506735E+03  0.35786506735E+03  0.25500000000E-02 0. -1.
         11    1    1    2    0    0  0.27408752499E+03 -0.15936034232E+03  0.83935507939E+03  0.89723834033E+03  0.51100000000E-03 0. -1.
         22    1    1    2    0    0  0.23468864498E+02 -0.13163602493E+02  0.36078936529E+02  0.45008418018E+02  0.00000000000E+00 0.  1.
          2    1    1    2  501    0 -0.29755638949E+03  0.17252394481E+03 -0.23330355230E+03  0.41561383997E+03  0.25500000000E-02 0. -1.
<mgrwt>
<rscale>  0 0.34395395E+03</rscale>
<asrwt>0</asrwt>
<pdfrwt beam="1">  1       11 0.10000000E+01 0.34848850E+03</pdfrwt>
<pdfrwt beam="2">  1        2 0.55055917E-01 0.34395395E+03</pdfrwt>
<totfact> 0.11196686E+02</totfact>
</mgrwt>
</event>
<event>
 5    1  0.2804411E-003  0.1606867E+03  0.7818608E-02  0.1193532E+00
         11   -1    0    0    0    0  0.00000000000E+00  0.00000000000E+00  0.10000770801E+04  0.10000770801E+04  0.51100000000E-03 0.  1.
          2   -1    0    0  501    0 -0.00000000000E+00 -0.00000000000E+00 -0.35910168850E+02  0.35910168941E+02  0.25500000000E-02 0.  1.
         11    1    1    2    0    0 -0.87215591470E+02  0.99732546796E+02  0.15371926679E+03  0.20293534258E+03  0.51100000000E-03 0.  1.
         22    1    1    2    0    0 -0.43532407374E+01  0.26307566373E+02  0.48563661079E+02  0.55402779089E+02  0.00000000000E+00 0.  1.
          2    1    1    2  501    0  0.91568832208E+02 -0.12604011317E+03  0.76188398334E+03  0.77764912733E+03  0.25500000000E-02 0.  1.
<mgrwt>
<rscale>  0 0.15579140E+03</rscale>
<asrwt>0</asrwt>
<pdfrwt beam="1">  1       11 0.10000000E+01 0.16068666E+03</pdfrwt>
<pdfrwt beam="2">  1        2 0.55250671E-02 0.15579140E+03</pdfrwt>
<totfact> 0.16265713E+03</totfact>
</mgrwt>
</event>
<event>
 5    1  0.2804411E-003  0.1615474E+03  0.7818608E-02  0.1186961E+00
         11   -1    0    0    0    0  0.00000000000E+00  0.00000000000E+00  0.10004319074E+04  0.10004319074E+04  0.51100000000E-03 0. -1.
          2   -1    0    0  501    0 -0.00000000000E+00 -0.00000000000E+00 -0.13084140032E+04  0.13084140032E+04  0.25500000000E-02 0. -1.
         11    1    1    2    0    0 -0.15342132844E+03  0.73505529918E+02  0.75155511076E+03  0.77056878437E+03  0.51100000000E-03 0. -1.
         22    1    1    2    0    0  0.38324575985E+02  0.39859308016E+02  0.23107213817E+03  0.23759602395E+03  0.00000000000E+00 0. -1.
          2    1    1    2  501    0  0.11509675246E+03 -0.11336483793E+03 -0.12906093448E+04  0.13006811022E+04  0.25500000000E-02 0. -1.
<mgrwt>
<rscale>  0 0.16154741E+03</rscale>
<asrwt>0</asrwt>
<pdfrwt beam="1">  1       11 0.10000000E+01 0.55295005E+02</pdfrwt>
<pdfrwt beam="2">  1        2 0.20138140E+00 0.16154741E+03</pdfrwt>
<totfact> 0.22485357E+01</totfact>
</mgrwt>
</event>
<event>
 5    1  0.2804411E-003  0.3855254E+02  0.7818608E-02  0.1519142E+00
         11   -1    0    0    0    0  0.00000000000E+00  0.00000000000E+00  0.10001837465E+04  0.10001837465E+04  0.51100000000E-03 0. -1.
          2   -1    0    0  501    0 -0.00000000000E+00 -0.00000000000E+00 -0.47702044915E+01  0.47702051731E+01  0.25500000000E-02 0. -1.
         11    1    1    2    0    0 -0.10705654565E+02  0.10607333888E+02  0.43840561309E+02  0.46358617193E+02  0.51100000000E-03 0. -1.
         22    1    1    2    0    0 -0.34787348091E+02 -0.14706749932E+02  0.12077603378E+03  0.12654366210E+03  0.00000000000E+00 0. -1.
          2    1    1    2  501    0  0.45493002656E+02  0.40994160447E+01  0.83079694695E+03  0.83205167242E+03  0.25500000000E-02 0. -1.
<mgrwt>
<rscale>  0 0.38552538E+02</rscale>
<asrwt>0</asrwt>
<pdfrwt beam="1">  1       11 0.10000000E+01 0.15070727E+02</pdfrwt>
<pdfrwt beam="2">  1        2 0.73401249E-03 0.38552538E+02</pdfrwt>
<totfact> 0.19819974E+04</totfact>
</mgrwt>
</event>
<event>
 5    1  0.2804411E-003  0.1520615E+03  0.7818608E-02  0.1546396E+00
         11   -1    0    0    0    0  0.00000000000E+00  0.00000000000E+00  0.10003063036E+04  0.10003063036E+04  0.51100000000E-03 0. -1.
         -2   -1    0    0    0  501 -0.00000000000E+00 -0.00000000000E+00 -0.15706850767E+03  0.15706850770E+03  0.25500000000E-02 0. -1.
         11    1    1    2    0    0 -0.14648214074E+03 -0.91853276380E+02  0.24151164372E+03  0.29702174330E+03  0.51100000000E-03 0. -1.
         22    1    1    2    0    0  0.11144298781E+03  0.95698935538E+02  0.72108656003E+03  0.73589649602E+03  0.00000000000E+00 0. -1.
         -2    1    1    2    0  501  0.35039152935E+02 -0.38456591586E+01 -0.11936040785E+03  0.12445657195E+03  0.25500000000E-02 0. -1.
<mgrwt>
<rscale>  0 0.35249558E+02</rscale>
<asrwt>0</asrwt>
<pdfrwt beam="1">  1       11 0.10000000E+01 0.15206154E+03</pdfrwt>
<pdfrwt beam="2">  1       -2 0.24171787E-01 0.35249558E+02</pdfrwt>
<totfact> 0.11383859E+02</totfact>
</mgrwt>
</event>
<event>
 5    1  0.2804411E-003  0.8016861E+02  0.7818608E-02  0.1335048E+00
         11   -1    0    0    0    0  0.00000000000E+00  0.00000000000E+00  0.10003514739E+04  0.10003514739E+04  0.51100000000E-03 0.  1.
          2   -1    0    0  501    0 -0.00000000000E+00 -0.00000000000E+00 -0.13920267399E+02  0.13920267632E+02  0.25500000000E-02 0.  1.
         11    1    1    2    0    0  0.47254073975E+02 -0.37995418035E+02  0.77579100814E+02  0.98463781068E+02  0.51100000000E-03 0.  1.
         22    1    1    2    0    0  0.11789438490E+02 -0.12857515474E+02  0.42251917035E+02  0.45711388704E+02  0.00000000000E+00 0.  1.
          2    1    1    2  501    0 -0.59043512465E+02  0.50852933509E+02  0.86660018862E+03  0.87009657173E+03  0.25500000000E-02 0.  1.
<mgrwt>
<rscale>  0 0.77924048E+02</rscale>
<asrwt>0</asrwt>
<pdfrwt beam="1">  1       11 0.10000000E+01 0.80168614E+02</pdfrwt>
<pdfrwt beam="2">  1        2 0.21423323E-02 0.77924048E+02</pdfrwt>
<totfact> 0.53154052E+03</totfact>
</mgrwt>
</event>
<event>
 5    1  0.2804411E-003  0.4810935E+03  0.7818608E-02  0.1018835E+00
         11   -1    0    0    0    0  0.00000000000E+00  0.00000000000E+00  0.10001133072E+04  0.10001133072E+04  0.51100000000E-03 0.  1.
          2   -1    0    0  501    0 -0.00000000000E+00 -0.00000000000E+00 -0.68982269208E+03  0.68982269208E+03  0.25500000000E-02 0. -1.
         11    1    1    2    0    0  0.17945124680E+03  0.43544148344E+03  0.47940233093E+03  0.67204064637E+03  0.51100000000E-03 0.  1.
         22    1    1    2    0    0  0.63139213819E+02 -0.17246470746E+02  0.32209474305E+03  0.32867769102E+03  0.00000000000E+00 0.  1.
          2    1    1    2  501    0 -0.24259046061E+03 -0.41819501269E+03 -0.49120645887E+03  0.68921766189E+03  0.25500000000E-02 0. -1.
<mgrwt>
<rscale>  0 0.48109354E+03</rscale>
<asrwt>0</asrwt>
<pdfrwt beam="1">  1       11 0.10000000E+01 0.65452281E+02</pdfrwt>
<pdfrwt beam="2">  1        2 0.10613859E+00 0.48109354E+03</pdfrwt>
<totfact> 0.52406678E+01</totfact>
</mgrwt>
</event>
<event>
 5    1  0.2804411E-003  0.9585249E+02  0.7818608E-02  0.1302778E+00
         11   -1    0    0    0    0  0.00000000000E+00  0.00000000000E+00  0.10000592162E+04  0.10000592162E+04  0.51100000000E-03 0.  1.
          2   -1    0    0  501    0 -0.00000000000E+00 -0.00000000000E+00 -0.15115867401E+02  0.15115867616E+02  0.25500000000E-02 0.  1.
         11    1    1    2    0    0 -0.74181402844E+02 -0.27352220161E+02  0.12842218449E+03  0.15080875951E+03  0.51100000000E-03 0.  1.
         22    1    1    2    0    0 -0.54668633548E+01 -0.14619499576E+02  0.40661759155E+02  0.43554506316E+02  0.00000000000E+00 0. -1.
          2    1    1    2  501    0  0.79648266199E+02  0.41971719736E+02  0.81585940514E+03  0.82081181797E+03  0.25500000000E-02 0.  1.
<mgrwt>
<rscale>  0 0.90030392E+02</rscale>
<asrwt>0</asrwt>
<pdfrwt beam="1">  1       11 0.10000000E+01 0.95852486E+02</pdfrwt>
<pdfrwt beam="2">  1        2 0.23256557E-02 0.90030392E+02</pdfrwt>
<totfact> 0.48500329E+03</totfact>
</mgrwt>
</event>
<event>
 5    1  0.2804411E-003  0.4256189E+02  0.7818608E-02  0.1504753E+00
         11   -1    0    0    0    0  0.00000000000E+00  0.00000000000E+00  0.99993467885E+03  0.99993467885E+03  0.51100000000E-03 0. -1.
          2   -1    0    0  501    0 -0.00000000000E+00 -0.00000000000E+00 -0.49296022860E+01  0.49296029456E+01  0.25500000000E-02 0. -1.
         11    1    1    2    0    0  0.11341193951E+02 -0.13914604426E+02  0.29046016513E+02  0.34145423882E+02  0.51100000000E-03 0. -1.
         22    1    1    2    0    0  0.75249078336E+01 -0.21893207480E+02  0.67706582562E+02  0.71555000482E+02  0.00000000000E+00 0. -1.
          2    1    1    2  501    0 -0.18866101784E+02  0.35807811907E+02  0.89825247749E+03  0.89916385743E+03  0.25500000000E-02 0. -1.
<mgrwt>
<rscale>  0 0.40473809E+02</rscale>
<asrwt>0</asrwt>
<pdfrwt beam="1">  1       11 0.10000000E+01 0.42561888E+02</pdfrwt>
<pdfrwt beam="2">  1        2 0.75835084E-03 0.40473809E+02</pdfrwt>
<totfact> 0.19168864E+04</totfact>
</mgrwt>
</event>
<event>
 5    1  0.2804411E-003  0.7098411E+02  0.7818608E-02  0.1364924E+00
         11   -1    0    0    0    0  0.00000000000E+00  0.00000000000E+00  0.10001307042E+04  0.10001307042E+04  0.51100000000E-03 0.  1.
          2   -1    0    0  501    0 -0.00000000000E+00 -0.00000000000E+00 -0.68790882565E+01  0.68790887292E+01  0.25500000000E-02 0.  1.
         11    1    1    2    0    0 -0.39449061985E+02 -0.54901524444E+01  0.10515991868E+03  0.11244989445E+03  0.51100000000E-03 0.  1.
         22    1    1    2    0    0 -0.29125134030E+02  0.36530555715E+01  0.12541090778E+03  0.12880028742E+03  0.00000000000E+00 0.  1.
          2    1    1    2  501    0  0.68574196014E+02  0.18370968730E+01  0.76268078949E+03  0.76575961107E+03  0.25500000000E-02 0.  1.
<mgrwt>
<rscale>  0 0.68598799E+02</rscale>
<asrwt>0</asrwt>
<pdfrwt beam="1">  1       11 0.10000000E+01 0.70984113E+02</pdfrwt>
<pdfrwt beam="2">  1        2 0.10584596E-02 0.68598799E+02</pdfrwt>
<totfact> 0.13497935E+04</totfact>
</mgrwt>
</event>
<event>
 5    1  0.2804411E-003  0.1720096E+03  0.7818608E-02  0.1185572E+00
         11   -1    0    0    0    0  0.00000000000E+00  0.00000000000E+00  0.10001973186E+04  0.10001973186E+04  0.51100000000E-03 0.  1.
         -2   -1    0    0    0  501 -0.00000000000E+00 -0.00000000000E+00 -0.39828109950E+02  0.39828110032E+02  0.25500000000E-02 0.  1.
         11    1    1    2    0    0  0.36605728632E+02  0.76580635306E+02  0.40542620354E+03  0.41421610252E+03  0.51100000000E-03 0.  1.
         22    1    1    2    0    0  0.77099599090E+02  0.39930155043E+02  0.36713584486E+03  0.37726316285E+03  0.00000000000E+00 0.  1.
         -2    1    1    2    0  501 -0.11370532772E+03 -0.11651079035E+03  0.18780716022E+03  0.24854616323E+03  0.25500000000E-02 0.  1.
<mgrwt>
<rscale>  0 0.16279947E+03</rscale>
<asrwt>0</asrwt>
<pdfrwt beam="1">  1       11 0.10000000E+01 0.17200962E+03</pdfrwt>
<pdfrwt beam="2">  1       -2 0.61286104E-02 0.16279947E+03</pdfrwt>
<totfact> 0.11019740E+03</totfact>
</mgrwt>
</event>
<event>
 5    1  0.2804411E-003  0.2385858E+03  0.7818608E-02  0.1133730E+00
         11   -1    0    0    0    0  0.00000000000E+00  0.00000000000E+00  0.99993124063E+03  0.99993124063E+03  0.51100000000E-03 0. -1.
          2   -1    0    0  501    0 -0.00000000000E+00 -0.00000000000E+00 -0.23527793897E+03  0.23527793898E+03  0.25500000000E-02 0. -1.
         11    1    1    2    0    0  0.63445063376E+01 -0.18979493217E+03  0.70262637535E+03  0.72783665226E+03  0.51100000000E-03 0. -1.
         22    1    1    2    0    0 -0.38308219140E+02 -0.28077815012E+02  0.22719574992E+03  0.23210728582E+03  0.00000000000E+00 0. -1.
          2    1    1    2  501    0  0.31963712802E+02  0.21787274718E+03 -0.16516882360E+03  0.27526524153E+03  0.25500000000E-02 0. -1.
<mgrwt>
<rscale>  0 0.22020493E+03</rscale>
<asrwt>0</asrwt>
<pdfrwt beam="1">  1       11 0.10000000E+01 0.23858579E+03</pdfrwt>
<pdfrwt beam="2">  1        2 0.36194116E-01 0.22020493E+03</pdfrwt>
<totfact> 0.17633121E+02</totfact>
</mgrwt>
</event>
<event>
 5    1  0.2804411E-003  0.2006517E+03  0.7818608E-02  0.1150376E+00
         11   -1    0    0    0    0  0.00000000000E+00  0.00000000000E+00  0.10001816624E+04  0.10001816624E+04  0.51100000000E-03 0.  1.
          2   -1    0    0  501    0 -0.00000000000E+00 -0.00000000000E+00 -0.42635373502E+02  0.42635373579E+02  0.25500000000E-02 0.  1.
         11    1    1    2    0    0  0.16383627329E+03  0.93125407606E+02  0.59049738086E+03  0.61984015906E+03  0.51100000000E-03 0.  1.
         22    1    1    2    0    0  0.84657832182E+01  0.69315134851E+01  0.20159162234E+02  0.22937026544E+02  0.00000000000E+00 0.  1.
          2    1    1    2  501    0 -0.17230205651E+03 -0.10005692109E+03  0.34688974581E+03  0.40003985037E+03  0.25500000000E-02 0.  1.
<mgrwt>
<rscale>  0 0.19924705E+03</rscale>
<asrwt>0</asrwt>
<pdfrwt beam="1">  1       11 0.10000000E+01 0.20065168E+03</pdfrwt>
<pdfrwt beam="2">  1        2 0.65604796E-02 0.19924705E+03</pdfrwt>
<totfact> 0.13245774E+03</totfact>
</mgrwt>
</event>
<event>
 5    1  0.2804411E-003  0.3074549E+03  0.7818608E-02  0.1090123E+00
         11   -1    0    0    0    0  0.00000000000E+00  0.00000000000E+00  0.10000028646E+04  0.10000028646E+04  0.51100000000E-03 0. -1.
          2   -1    0    0  501    0 -0.00000000000E+00 -0.00000000000E+00 -0.10634513222E+04  0.10634513222E+04  0.25500000000E-02 0. -1.
         11    1    1    2    0    0 -0.13381876897E+03  0.63327023613E+02  0.45191307309E+03  0.47554516134E+03  0.51100000000E-03 0. -1.
         22    1    1    2    0    0 -0.70822661494E+02  0.14276476436E+03  0.50367832491E+03  0.52828920329E+03  0.00000000000E+00 0. -1.
          2    1    1    2  501    0  0.20464143047E+03 -0.20609178797E+03 -0.10190398556E+04  0.10596198221E+04  0.25500000000E-02 0. -1.
<mgrwt>
<rscale>  0 0.29043405E+03</rscale>
<asrwt>0</asrwt>
<pdfrwt beam="1">  1       11 0.10000000E+01 0.30745489E+03</pdfrwt>
<pdfrwt beam="2">  1        2 0.16360836E+00 0.29043405E+03</pdfrwt>
<totfact> 0.29955071E+01</totfact>
</mgrwt>
</event>
<event>
 5    1  0.2804411E-003  0.2387875E+03  0.7818608E-02  0.1120603E+00
         11   -1    0    0    0    0  0.00000000000E+00  0.00000000000E+00  0.10001115546E+04  0.10001115546E+04  0.51100000000E-03 0. -1.
          2   -1    0    0  501    0 -0.00000000000E+00 -0.00000000000E+00 -0.13108806816E+03  0.13108806819E+03  0.25500000000E-02 0. -1.
         11    1    1    2    0    0  0.23706274642E+03 -0.13085395077E+02  0.69228948739E+03  0.73187069053E+03  0.51100000000E-03 0. -1.
         22    1    1    2    0    0  0.11476607137E+01  0.37999710891E+02  0.15413635047E+03  0.15875550286E+03  0.00000000000E+00 0. -1.
          2    1    1    2  501    0 -0.23821040713E+03 -0.24914315814E+02  0.22597648571E+02  0.24057342939E+03  0.25500000000E-02 0. -1.
<mgrwt>
<rscale>  0 0.23878752E+03</rscale>
<asrwt>0</asrwt>
<pdfrwt beam="1">  1       11 0.10000000E+01 0.38017038E+02</pdfrwt>
<pdfrwt beam="2">  1        2 0.20169644E-01 0.23878752E+03</pdfrwt>
<totfact> 0.33842091E+02</totfact>
</mgrwt>
</event>
<event>
 5    1  0.2804411E-003  0.1905064E+03  0.7818608E-02  0.1633823E+00
         11   -1    0    0    0    0  0.00000000000E+00  0.00000000000E+00  0.10003374867E+04  0.10003374867E+04  0.51100000000E-03 0.  1.
          2   -1    0    0  501    0 -0.00000000000E+00 -0.00000000000E+00 -0.11523718245E+03  0.11523718248E+03  0.25500000000E-02 0.  1.
         11    1    1    2    0    0 -0.17466910580E+03 -0.74594596560E+02  0.68665283540E+03  0.71243650013E+03  0.51100000000E-03 0.  1.
         22    1    1    2    0    0  0.16538209675E+03  0.99947911247E+02  0.26692502073E+03  0.32952964902E+03  0.00000000000E+00 0.  1.
          2    1    1    2  501    0  0.92870090494E+01 -0.25353314687E+02 -0.68477551888E+02  0.73608520035E+02  0.25500000000E-02 0.  1.
<mgrwt>
<rscale>  0 0.27000724E+02</rscale>
<asrwt>0</asrwt>
<pdfrwt beam="1">  1       11 0.10000000E+01 0.19050644E+03</pdfrwt>
<pdfrwt beam="2">  1        2 0.17734780E-01 0.27000724E+02</pdfrwt>
<totfact> 0.35628619E+02</totfact>
</mgrwt>
</event>
<event>
 5    1  0.2804411E-003  0.5437444E+02  0.7818608E-02  0.1463082E+00
         11   -1    0    0    0    0  0.00000000000E+00  0.00000000000E+00  0.10002270329E+04  0.10002270329E+04  0.51100000000E-03 0. -1.
          2   -1    0    0  501    0 -0.00000000000E+00 -0.00000000000E+00 -0.65612788394E+01  0.65612793349E+01  0.25500000000E-02 0. -1.
         11    1    1    2    0    0 -0.49021119821E+02 -0.15260548649E+02  0.22029930895E+03  0.22620287367E+03  0.51100000000E-03 0. -1.
         22    1    1    2    0    0 -0.67303819047E+01  0.39810829314E+02  0.20309109339E+03  0.20706567167E+03  0.00000000000E+00 0. -1.
          2    1    1    2  501    0  0.55751501726E+02 -0.24550280664E+02  0.57027535167E+03  0.57351976684E+03  0.25500000000E-02 0. -1.
<mgrwt>
<rscale>  0 0.46855171E+02</rscale>
<asrwt>0</asrwt>
<pdfrwt beam="1">  1       11 0.10000000E+01 0.54374440E+02</pdfrwt>
<pdfrwt beam="2">  1        2 0.10096567E-02 0.46855171E+02</pdfrwt>
<totfact> 0.13449525E+04</totfact>
</mgrwt>
</event>
<event>
 5    1  0.2804411E-003  0.8053313E+02  0.7818608E-02  0.1327545E+00
         11   -1    0    0    0    0  0.00000000000E+00  0.00000000000E+00  0.99983508416E+03  0.99983508416E+03  0.51100000000E-03 0. -1.
         -2   -1    0    0    0  501 -0.00000000000E+00 -0.00000000000E+00 -0.20630171098E+02  0.20630171255E+02  0.25500000000E-02 0. -1.
         11    1    1    2    0    0 -0.23606344921E+02  0.58427344101E+02  0.34905078271E+03  0.35469347749E+03  0.51100000000E-03 0. -1.
         22    1    1    2    0    0 -0.11805024115E+02  0.67783986880E+02  0.11331379014E+03  0.13256712453E+03  0.00000000000E+00 0. -1.
         -2    1    1    2    0  501  0.35411369036E+02 -0.12621133098E+03  0.51684034021E+03  0.53320465339E+03  0.25500000000E-02 0. -1.
<mgrwt>
<rscale>  0 0.80533130E+02</rscale>
<asrwt>0</asrwt>
<pdfrwt beam="1">  1       11 0.10000000E+01 0.63015983E+02</pdfrwt>
<pdfrwt beam="2">  1       -2 0.31733490E-02 0.80533130E+02</pdfrwt>
<totfact> 0.27390137E+03</totfact>
</mgrwt>
</event>
<event>
 5    1  0.2804411E-003  0.2102529E+03  0.7818608E-02  0.1144843E+00
         11   -1    0    0    0    0  0.00000000000E+00  0.00000000000E+00  0.10005783154E+04  0.10005783154E+04  0.51100000000E-03 0.  1.
          2   -1    0    0  501    0 -0.00000000000E+00 -0.00000000000E+00 -0.63958535457E+03  0.63958535457E+03  0.25500000000E-02 0. -1.
         11    1    1    2    0    0 -0.66097341909E+02  0.72336488860E+02  0.50126158132E+03  0.51074905692E+03  0.51100000000E-03 0.  1.
         22    1    1    2    0    0 -0.99464033257E+02  0.50097267404E+02  0.47121233510E+03  0.48419406736E+03  0.00000000000E+00 0.  1.
          2    1    1    2  501    0  0.16556137517E+03 -0.12243375626E+03 -0.61148095556E+03  0.64522054574E+03  0.25500000000E-02 0. -1.
<mgrwt>
<rscale>  0 0.20591404E+03</rscale>
<asrwt>0</asrwt>
<pdfrwt beam="1">  1       11 0.10000000E+01 0.21025295E+03</pdfrwt>
<pdfrwt beam="2">  1        2 0.98454649E-01 0.20591404E+03</pdfrwt>
<totfact> 0.58742578E+01</totfact>
</mgrwt>
</event>
<event>
 5    1  0.2804411E-003  0.1478094E+03  0.7818608E-02  0.1216727E+00
         11   -1    0    0    0    0  0.00000000000E+00  0.00000000000E+00  0.10001217388E+04  0.10001217388E+04  0.51100000000E-03 0. -1.
         -2   -1    0    0    0  501 -0.00000000000E+00 -0.00000000000E+00 -0.20520149285E+02  0.20520149443E+02  0.25500000000E-02 0.  1.
         11    1    1    2    0    0 -0.96107574911E+02  0.64798272900E+02  0.47818462903E+03  0.49203254117E+03  0.51100000000E-03 0. -1.
         22    1    1    2    0    0 -0.42796444753E+01  0.29169544313E+02  0.75794028020E+02  0.81325963602E+02  0.00000000000E+00 0. -1.
         -2    1    1    2    0  501  0.10038721939E+03 -0.93967817212E+02  0.42562293251E+03  0.44728338352E+03  0.25500000000E-02 0.  1.
<mgrwt>
<rscale>  0 0.13750471E+03</rscale>
<asrwt>0</asrwt>
<pdfrwt beam="1">  1       11 0.10000000E+01 0.14780941E+03</pdfrwt>
<pdfrwt beam="2">  1       -2 0.31573303E-02 0.13750471E+03</pdfrwt>
<totfact> 0.29290965E+03</totfact>
</mgrwt>
</event>
<event>
 5    1  0.2804411E-003  0.2388157E+03  0.7818608E-02  0.1122487E+00
         11   -1    0    0    0    0  0.00000000000E+00  0.00000000000E+00  0.99995852690E+03  0.99995852690E+03  0.51100000000E-03 0.  1.
          2   -1    0    0  501    0 -0.00000000000E+00 -0.00000000000E+00 -0.93533071903E+02  0.93533071937E+02  0.25500000000E-02 0.  1.
         11    1    1    2    0    0 -0.12761533131E+03  0.16385107933E+03  0.70407443095E+03  0.73406651830E+03  0.51100000000E-03 0.  1.
         22    1    1    2    0    0 -0.27801613655E+02  0.13747931479E+02  0.95413217863E+02  0.10032755098E+03  0.00000000000E+00 0.  1.
          2    1    1    2  501    0  0.15541694497E+03 -0.17759901081E+03  0.10693780618E+03  0.25909752955E+03  0.25500000000E-02 0.  1.
<mgrwt>
<rscale>  0 0.23599965E+03</rscale>
<asrwt>0</asrwt>
<pdfrwt beam="1">  1       11 0.10000000E+01 0.23881575E+03</pdfrwt>
<pdfrwt beam="2">  1        2 0.14389106E-01 0.23599965E+03</pdfrwt>
<totfact> 0.50235529E+02</totfact>
</mgrwt>
</event>
<event>
 5    1  0.2804411E-003  0.1732791E+03  0.7818608E-02  0.1174471E+00
         11   -1    0    0    0    0  0.00000000000E+00  0.00000000000E+00  0.10001456885E+04  0.10001456885E+04  0.51100000000E-03 0. -1.
          2   -1    0    0  501    0 -0.00000000000E+00 -0.00000000000E+00 -0.94384382857E+02  0.94384382892E+02  0.25500000000E-02 0. -1.
         11    1    1    2    0    0  0.23799936195E+02 -0.30347260594E+02  0.40911297944E+02  0.56223904953E+02  0.51100000000E-03 0. -1.
         22    1    1    2    0    0  0.20272704741E+02 -0.14093793191E+03  0.84886121143E+03  0.86072053506E+03  0.00000000000E+00 0. -1.
          2    1    1    2  501    0 -0.44072640937E+02  0.17128519250E+03  0.15988796238E+02  0.17758563135E+03  0.25500000000E-02 0. -1.
<mgrwt>
<rscale>  0 0.17327906E+03</rscale>
<asrwt>0</asrwt>
<pdfrwt beam="1">  1       11 0.10000000E+01 0.38566756E+02</pdfrwt>
<pdfrwt beam="2">  1        2 0.14522789E-01 0.17327906E+03</pdfrwt>
<totfact> 0.49089406E+02</totfact>
</mgrwt>
</event>
<event>
 5    1  0.2804411E-003  0.1175479E+03  0.7818608E-02  0.1251463E+00
         11   -1    0    0    0    0  0.00000000000E+00  0.00000000000E+00  0.10003428636E+04  0.10003428636E+04  0.51100000000E-03 0. -1.
         -2   -1    0    0    0  501 -0.00000000000E+00 -0.00000000000E+00 -0.13580138007E+02  0.13580138247E+02  0.25500000000E-02 0.  1.
         11    1    1    2    0    0 -0.27350565982E+02 -0.58897604867E+02  0.21328902388E+03  0.22295557635E+03  0.51100000000E-03 0. -1.
         22    1    1    2    0    0 -0.18362493667E+02 -0.46699918693E+02  0.25240296131E+03  0.25734280339E+03  0.00000000000E+00 0. -1.
         -2    1    1    2    0  501  0.45713059649E+02  0.10559752356E+03  0.52107074043E+03  0.53362462213E+03  0.25500000000E-02 0.  1.
<mgrwt>
<rscale>  0 0.11506746E+03</rscale>
<asrwt>0</asrwt>
<pdfrwt beam="1">  1       11 0.10000000E+01 0.11754790E+03</pdfrwt>
<pdfrwt beam="2">  1       -2 0.20899683E-02 0.11506746E+03</pdfrwt>
<totfact> 0.52408002E+03</totfact>
</mgrwt>
</event>
<event>
 5    1  0.2804411E-003  0.2616984E+03  0.7818608E-02  0.1109049E+00
         11   -1    0    0    0    0  0.00000000000E+00  0.00000000000E+00  0.10001636362E+04  0.10001636362E+04  0.51100000000E-03 0. -1.
          2   -1    0    0  501    0 -0.00000000000E+00 -0.00000000000E+00 -0.51772421709E+03  0.51772421709E+03  0.25500000000E-02 0. -1.
         11    1    1    2    0    0  0.25335569539E+02 -0.21234539060E+03  0.70997999222E+03  0.74148772434E+03  0.51100000000E-03 0. -1.
         22    1    1    2    0    0 -0.11482539309E+01 -0.43366671201E+02  0.23949569025E+03  0.24339304080E+03  0.00000000000E+00 0. -1.
          2    1    1    2  501    0 -0.24187315608E+02  0.25571206181E+03 -0.46703626333E+03  0.53300708819E+03  0.25500000000E-02 0. -1.
<mgrwt>
<rscale>  0 0.25685343E+03</rscale>
<asrwt>0</asrwt>
<pdfrwt beam="1">  1       11 0.10000000E+01 0.26169839E+03</pdfrwt>
<pdfrwt beam="2">  1        2 0.79662911E-01 0.25685343E+03</pdfrwt>
<totfact> 0.74601590E+01</totfact>
</mgrwt>
</event>
<event>
 5    1  0.2804411E-003  0.2937996E+03  0.7818608E-02  0.1092461E+00
         11   -1    0    0    0    0  0.00000000000E+00  0.00000000000E+00  0.99993006735E+03  0.99993006735E+03  0.51100000000E-03 0. -1.
          2   -1    0    0  501    0 -0.00000000000E+00 -0.00000000000E+00 -0.45830128087E+03  0.45830128087E+03  0.25500000000E-02 0. -1.
         11    1    1    2    0    0  0.12421454833E+03 -0.22532473259E+03  0.77523261202E+03  0.81681460067E+03  0.51100000000E-03 0. -1.
         22    1    1    2    0    0  0.30547713948E+02 -0.15174714097E+02  0.15511792140E+03  0.15882381533E+03  0.00000000000E+00 0.  1.
          2    1    1    2  501    0 -0.15476226228E+03  0.24049944669E+03 -0.38872174694E+03  0.48259293222E+03  0.25500000000E-02 0. -1.
<mgrwt>
<rscale>  0 0.28599186E+03</rscale>
<asrwt>0</asrwt>
<pdfrwt beam="1">  1       11 0.10000000E+01 0.29379960E+03</pdfrwt>
<pdfrwt beam="2">  1        2 0.70502957E-01 0.28599186E+03</pdfrwt>
<totfact> 0.85410185E+01</totfact>
</mgrwt>
</event>
<event>
 5    1  0.2804411E-003  0.7886730E+02  0.7818608E-02  0.1332297E+00
         11   -1    0    0    0    0  0.00000000000E+00  0.00000000000E+00  0.10004002073E+04  0.10004002073E+04  0.51100000000E-03 0. -1.
          2   -1    0    0  501    0 -0.00000000000E+00 -0.00000000000E+00 -0.20891373896E+02  0.20891374052E+02  0.25500000000E-02 0. -1.
         11    1    1    2    0    0 -0.15655453260E+02  0.59441162156E+02  0.16347212323E+03  0.17464672928E+03  0.51100000000E-03 0. -1.
         22    1    1    2    0    0  0.87199450746E+02 -0.77429605166E+02  0.69636872822E+03  0.70606550235E+03  0.00000000000E+00 0. -1.
          2    1    1    2  501    0 -0.71543997486E+02  0.17988443010E+02  0.11966798200E+03  0.14057934977E+03  0.25500000000E-02 0. -1.
<mgrwt>
<rscale>  0 0.78867295E+02</rscale>
<asrwt>0</asrwt>
<pdfrwt beam="1">  1       11 0.10000000E+01 0.61468274E+02</pdfrwt>
<pdfrwt beam="2">  1        2 0.32153437E-02 0.78867295E+02</pdfrwt>
<totfact> 0.31034471E+03</totfact>
</mgrwt>
</event>
<event>
 5    1  0.2804411E-003  0.1431322E+03  0.7818608E-02  0.1215375E+00
         11   -1    0    0    0    0  0.00000000000E+00  0.00000000000E+00  0.10004333993E+04  0.10004333993E+04  0.51100000000E-03 0. -1.
          2   -1    0    0  501    0 -0.00000000000E+00 -0.00000000000E+00 -0.33905686955E+02  0.33905687050E+02  0.25500000000E-02 0.  1.
         11    1    1    2    0    0 -0.23709927705E+02  0.33438166930E+02  0.24512786941E+03  0.24853157555E+03  0.51100000000E-03 0. -1.
         22    1    1    2    0    0 -0.94403190024E+02  0.38872649571E+02  0.57611355530E+03  0.58508962883E+03  0.00000000000E+00 0. -1.
          2    1    1    2  501    0  0.11811311773E+03 -0.72310816501E+02  0.14528628764E+03  0.20071788198E+03  0.25500000000E-02 0.  1.
<mgrwt>
<rscale>  0 0.13849030E+03</rscale>
<asrwt>0</asrwt>
<pdfrwt beam="1">  1       11 0.10000000E+01 0.14313223E+03</pdfrwt>
<pdfrwt beam="2">  1        2 0.52185201E-02 0.13849030E+03</pdfrwt>
<totfact> 0.17360005E+03</totfact>
</mgrwt>
</event>
<event>
 5    1  0.2804411E-003  0.1220300E+03  0.7818608E-02  0.1239785E+00
         11   -1    0    0    0    0  0.00000000000E+00  0.00000000000E+00  0.99994417277E+03  0.99994417277E+03  0.51100000000E-03 0.  1.
         -2   -1    0    0    0  501 -0.00000000000E+00 -0.00000000000E+00 -0.28659318016E+02  0.28659318129E+02  0.25500000000E-02 0. -1.
         11    1    1    2    0    0 -0.12398606863E+03 -0.26214378057E+02  0.60594378672E+03  0.61905380339E+03  0.51100000000E-03 0.  1.
         22    1    1    2    0    0  0.25364481732E+01  0.35241441532E+02  0.20594580834E+03  0.20895470500E+03  0.00000000000E+00 0. -1.
         -2    1    1    2    0  501  0.12144962046E+03 -0.90270634749E+01  0.15939525970E+03  0.20059498251E+03  0.25500000000E-02 0. -1.
<mgrwt>
<rscale>  0 0.12203000E+03</rscale>
<asrwt>0</asrwt>
<pdfrwt beam="1">  1       11 0.10000000E+01 0.35332602E+02</pdfrwt>
<pdfrwt beam="2">  1       -2 0.44088796E-02 0.12203000E+03</pdfrwt>
<totfact> 0.17657281E+03</totfact>
</mgrwt>
</event>
<event>
 5    1  0.2804411E-003  0.2211952E+03  0.7818608E-02  0.1138976E+00
         11   -1    0    0    0    0  0.00000000000E+00  0.00000000000E+00  0.10001565657E+04  0.10001565657E+04  0.51100000000E-03 0. -1.
          2   -1    0    0  501    0 -0.00000000000E+00 -0.00000000000E+00 -0.79916816491E+03  0.79916816491E+03  0.25500000000E-02 0.  1.
         11    1    1    2    0    0  0.14312245236E+03 -0.50743999072E+02  0.71107942681E+03  0.72711274301E+03  0.51100000000E-03 0. -1.
         22    1    1    2    0    0  0.43210176451E+02 -0.53077635162E+02  0.26221018291E+03  0.27099545149E+03  0.00000000000E+00 0.  1.
          2    1    1    2  501    0 -0.18633262882E+03  0.10382163423E+03 -0.77230120897E+03  0.80121653607E+03  0.25500000000E-02 0.  1.
<mgrwt>
<rscale>  0 0.21330443E+03</rscale>
<asrwt>0</asrwt>
<pdfrwt beam="1">  1       11 0.10000000E+01 0.22119517E+03</pdfrwt>
<pdfrwt beam="2">  1        2 0.12296819E+00 0.21330443E+03</pdfrwt>
<totfact> 0.44758485E+01</totfact>
</mgrwt>
</event>
<event>
 5    1  0.2804411E-003  0.2081291E+03  0.7818608E-02  0.1147142E+00
         11   -1    0    0    0    0  0.00000000000E+00  0.00000000000E+00  0.10003441249E+04  0.10003441249E+04  0.51100000000E-03 0. -1.
          2   -1    0    0  501    0 -0.00000000000E+00 -0.00000000000E+00 -0.22423509419E+03  0.22423509421E+03  0.25500000000E-02 0. -1.
         11    1    1    2    0    0  0.31268075001E+02 -0.10800580283E+03  0.55573523723E+03  0.56699611979E+03  0.51100000000E-03 0. -1.
         22    1    1    2    0    0  0.59620358922E+02 -0.73632499598E+02  0.38478070707E+03  0.39627329550E+03  0.00000000000E+00 0. -1.
          2    1    1    2  501    0 -0.90888433923E+02  0.18163830243E+03 -0.16440691359E+03  0.26130980382E+03  0.25500000000E-02 0. -1.
<mgrwt>
<rscale>  0 0.20310879E+03</rscale>
<asrwt>0</asrwt>
<pdfrwt beam="1">  1       11 0.10000000E+01 0.20812911E+03</pdfrwt>
<pdfrwt beam="2">  1        2 0.34509577E-01 0.20310879E+03</pdfrwt>
<totfact> 0.18552335E+02</totfact>
</mgrwt>
</event>
<event>
 5    1  0.2804411E-003  0.3191051E+03  0.7818608E-02  0.1079715E+00
         11   -1    0    0    0    0  0.00000000000E+00  0.00000000000E+00  0.10000100984E+04  0.10000100984E+04  0.51100000000E-03 0.  1.
          2   -1    0    0  501    0 -0.00000000000E+00 -0.00000000000E+00 -0.12643805840E+03  0.12643805843E+03  0.25500000000E-02 0.  1.
         11    1    1    2    0    0  0.97145198273E+02 -0.19171632021E+01  0.30346882732E+03  0.31864430674E+03  0.51100000000E-03 0.  1.
         22    1    1    2    0    0  0.21413583231E+03  0.68927846221E+01  0.39819442267E+03  0.45217304586E+03  0.00000000000E+00 0.  1.
          2    1    1    2  501    0 -0.31128103058E+03 -0.49756214201E+01  0.17190878997E+03  0.35563080418E+03  0.25500000000E-02 0.  1.
<mgrwt>
<rscale>  0 0.31132079E+03</rscale>
<asrwt>0</asrwt>
<pdfrwt beam="1">  1       11 0.10000000E+01 0.31910512E+03</pdfrwt>
<pdfrwt beam="2">  1        2 0.19452205E-01 0.31132079E+03</pdfrwt>
<totfact> 0.35534451E+02</totfact>
</mgrwt>
</event>
<event>
 5    1  0.2804411E-003  0.1002257E+03  0.7818608E-02  0.1288304E+00
         11   -1    0    0    0    0  0.00000000000E+00  0.00000000000E+00  0.10002838574E+04  0.10002838574E+04  0.51100000000E-03 0.  1.
          2   -1    0    0  501    0 -0.00000000000E+00 -0.00000000000E+00 -0.10409313589E+02  0.10409313901E+02  0.25500000000E-02 0.  1.
         11    1    1    2    0    0  0.51262442477E+02  0.46911681426E+02  0.21934763789E+03  0.23009113436E+03  0.51100000000E-03 0.  1.
         22    1    1    2    0    0  0.12202103253E+02  0.25499542930E+02  0.14846607383E+03  0.15113336195E+03  0.00000000000E+00 0.  1.
          2    1    1    2  501    0 -0.63464545730E+02 -0.72411224356E+02  0.62206083210E+03  0.62946867501E+03  0.25500000000E-02 0.  1.
<mgrwt>
<rscale>  0 0.96286728E+02</rscale>
<asrwt>0</asrwt>
<pdfrwt beam="1">  1       11 0.10000000E+01 0.10022570E+03</pdfrwt>
<pdfrwt beam="2">  1        2 0.16018874E-02 0.96286728E+02</pdfrwt>
<totfact> 0.80949313E+03</totfact>
</mgrwt>
</event>
<event>
 5    1  0.2804411E-003  0.5299123E+02  0.7818608E-02  0.1429845E+00
         11   -1    0    0    0    0  0.00000000000E+00  0.00000000000E+00  0.10003422381E+04  0.10003422381E+04  0.51100000000E-03 0. -1.
          2   -1    0    0  501    0 -0.00000000000E+00 -0.00000000000E+00 -0.14706838210E+02  0.14706838431E+02  0.25500000000E-02 0. -1.
         11    1    1    2    0    0  0.39473347367E+02  0.46163681091E+01  0.10475778154E+03  0.11204306672E+03  0.51100000000E-03 0. -1.
         22    1    1    2    0    0 -0.21137524818E+02  0.49484221301E+02  0.61818605527E+02  0.81957446901E+02  0.00000000000E+00 0. -1.
          2    1    1    2  501    0 -0.18335822549E+02 -0.54100589410E+02  0.81905901280E+03  0.82104856289E+03  0.25500000000E-02 0. -1.
<mgrwt>
<rscale>  0 0.52991229E+02</rscale>
<asrwt>0</asrwt>
<pdfrwt beam="1">  1       11 0.10000000E+01 0.39742390E+02</pdfrwt>
<pdfrwt beam="2">  1        2 0.22633648E-02 0.52991229E+02</pdfrwt>
<totfact> 0.46872953E+03</totfact>
</mgrwt>
</event>
<event>
 5    1  0.2804411E-003  0.5438663E+03  0.7818608E-02  0.1002924E+00
         11   -1    0    0    0    0  0.00000000000E+00  0.00000000000E+00  0.10000059562E+04  0.10000059562E+04  0.51100000000E-03 0.  1.
          2   -1    0    0  501    0 -0.00000000000E+00 -0.00000000000E+00 -0.10062671742E+04  0.10062671742E+04  0.25500000000E-02 0.  1.
         11    1    1    2    0    0  0.14548023334E+03  0.52027657247E+03  0.73415076297E+03  0.91149852053E+03  0.51100000000E-03 0.  1.
         22    1    1    2    0    0 -0.22090800324E+02  0.98223381206E+01  0.94822598638E+02  0.97856052432E+02  0.00000000000E+00 0.  1.
          2    1    1    2  501    0 -0.12338943302E+03 -0.53009891059E+03 -0.83523457958E+03  0.99691855742E+03  0.25500000000E-02 0.  1.
<mgrwt>
<rscale>  0 0.54386632E+03</rscale>
<asrwt>0</asrwt>
<pdfrwt beam="1">  1       11 0.10000000E+01 0.24176058E+02</pdfrwt>
<pdfrwt beam="2">  1        2 0.15481125E+00 0.54386632E+03</pdfrwt>
<totfact> 0.31501472E+01</totfact>
</mgrwt>
</event>
<event>
 5    1  0.2804411E-003  0.4464634E+03  0.7818608E-02  0.1028782E+00
         11   -1    0    0    0    0  0.00000000000E+00  0.00000000000E+00  0.10006147142E+04  0.10006147142E+04  0.51100000000E-03 0. -1.
          2   -1    0    0  501    0 -0.00000000000E+00 -0.00000000000E+00 -0.10870990714E+04  0.10870990714E+04  0.25500000000E-02 0. -1.
         11    1    1    2    0    0  0.39507810330E+01 -0.41481104285E+02  0.10425167955E+02  0.42953169972E+02  0.51100000000E-03 0. -1.
         22    1    1    2    0    0  0.42936521148E+03 -0.68953556868E+02  0.87378664974E+03  0.97601853830E+03  0.00000000000E+00 0. -1.
          2    1    1    2  501    0 -0.43331599251E+03  0.11043466115E+03 -0.97069617497E+03  0.10687420773E+04  0.25500000000E-02 0. -1.
<mgrwt>
<rscale>  0 0.44646338E+03</rscale>
<asrwt>0</asrwt>
<pdfrwt beam="1">  1       11 0.10000000E+01 0.41668821E+02</pdfrwt>
<pdfrwt beam="2">  1        2 0.16734881E+00 0.44646338E+03</pdfrwt>
<totfact> 0.28333917E+01</totfact>
</mgrwt>
</event>
<event>
 5    1  0.2804411E-003  0.2227883E+03  0.7818608E-02  0.1133710E+00
         11   -1    0    0    0    0  0.00000000000E+00  0.00000000000E+00  0.10003528314E+04  0.10003528314E+04  0.51100000000E-03 0. -1.
         -2   -1    0    0    0  501 -0.00000000000E+00 -0.00000000000E+00 -0.64422020357E+02  0.64422020407E+02  0.25500000000E-02 0.  1.
         11    1    1    2    0    0 -0.15831305516E+03 -0.11858211916E+03  0.64394970296E+03  0.67364379486E+03  0.51100000000E-03 0. -1.
         22    1    1    2    0    0 -0.10801224645E+02 -0.22494969660E+02  0.86132996399E+02  0.89674874867E+02  0.00000000000E+00 0. -1.
         -2    1    1    2    0  501  0.16911427981E+03  0.14107708882E+03  0.20584811170E+03  0.30145618209E+03  0.25500000000E-02 0.  1.
<mgrwt>
<rscale>  0 0.22023257E+03</rscale>
<asrwt>0</asrwt>
<pdfrwt beam="1">  1       11 0.10000000E+01 0.22278834E+03</pdfrwt>
<pdfrwt beam="2">  1       -2 0.99145767E-02 0.22023257E+03</pdfrwt>
<totfact> 0.53185464E+02</totfact>
</mgrwt>
</event>
<event>
 5    1  0.2804411E-003  0.1856516E+03  0.7818608E-02  0.1167871E+00
         11   -1    0    0    0    0  0.00000000000E+00  0.00000000000E+00  0.10000006925E+04  0.10000006925E+04  0.51100000000E-03 0.  1.
         -2   -1    0    0    0  501 -0.00000000000E+00 -0.00000000000E+00 -0.63396333831E+02  0.63396333883E+02  0.25500000000E-02 0. -1.
         11    1    1    2    0    0  0.13074729273E+03  0.20727426796E+02  0.65969249345E+03  0.67284371639E+03  0.51100000000E-03 0.  1.
         22    1    1    2    0    0  0.42289556637E+02  0.28597111048E+02  0.17810945131E+03  0.18528134824E+03  0.00000000000E+00 0.  1.
         -2    1    1    2    0  501 -0.17303684936E+03 -0.49324537844E+02  0.98802413874E+02  0.20527196171E+03  0.25500000000E-02 0. -1.
<mgrwt>
<rscale>  0 0.17992960E+03</rscale>
<asrwt>0</asrwt>
<pdfrwt beam="1">  1       11 0.10000000E+01 0.18565163E+03</pdfrwt>
<pdfrwt beam="2">  1       -2 0.97532886E-02 0.17992960E+03</pdfrwt>
<totfact> 0.53979745E+02</totfact>
</mgrwt>
</event>
<event>
 5    1  0.2806578E-003  0.1682313E+03  0.7818608E-02  0.1181529E+00
         11   -1    0    0    0    0  0.00000000000E+00  0.00000000000E+00  0.10002440797E+04  0.10002440797E+04  0.51100000000E-03 0.  1.
          2   -1    0    0  501    0 -0.00000000000E+00 -0.00000000000E+00 -0.23611004763E+03  0.23611004765E+03  0.25500000000E-02 0.  1.
         11    1    1    2    0    0 -0.41434403587E+02 -0.14978111811E+03  0.92406127674E+03  0.93703811892E+03  0.51100000000E-03 0.  1.
         22    1    1    2    0    0 -0.48541343365E+01 -0.10173325317E+02  0.38592929944E+02  0.40205390308E+02  0.00000000000E+00 0. -1.
          2    1    1    2  501    0  0.46288537923E+02  0.15995444343E+03 -0.19852017458E+03  0.25911061815E+03  0.25500000000E-02 0.  1.
<mgrwt>
<rscale>  0 0.16651742E+03</rscale>
<asrwt>0</asrwt>
<pdfrwt beam="1">  1       11 0.10000000E+01 0.16823125E+03</pdfrwt>
<pdfrwt beam="2">  1        2 0.36333488E-01 0.16651742E+03</pdfrwt>
<totfact> 0.17507272E+02</totfact>
</mgrwt>
</event>
<event>
 5    1  0.2804411E-003  0.1486876E+03  0.7818608E-02  0.1202095E+00
         11   -1    0    0    0    0  0.00000000000E+00  0.00000000000E+00  0.10000899157E+04  0.10000899157E+04  0.51100000000E-03 0. -1.
          2   -1    0    0  501    0 -0.00000000000E+00 -0.00000000000E+00 -0.45331333655E+02  0.45331333727E+02  0.25500000000E-02 0. -1.
         11    1    1    2    0    0  0.19040941930E+02  0.14465156408E+03  0.60893623346E+03  0.62617087834E+03  0.51100000000E-03 0. -1.
         22    1    1    2    0    0  0.56511243313E+02 -0.12807770549E+02  0.20155053704E+03  0.20971451687E+03  0.00000000000E+00 0. -1.
          2    1    1    2  501    0 -0.75552185243E+02 -0.13184379353E+03  0.14427181155E+03  0.20953585421E+03  0.25500000000E-02 0. -1.
<mgrwt>
<rscale>  0 0.14868758E+03</rscale>
<asrwt>0</asrwt>
<pdfrwt beam="1">  1       11 0.10000000E+01 0.57944453E+02</pdfrwt>
<pdfrwt beam="2">  1        2 0.69746782E-02 0.14868758E+03</pdfrwt>
<totfact> 0.12007724E+03</totfact>
</mgrwt>
</event>
<event>
 5    1  0.2804411E-003  0.8758159E+02  0.7818608E-02  0.1308816E+00
         11   -1    0    0    0    0  0.00000000000E+00  0.00000000000E+00  0.10002905422E+04  0.10002905422E+04  0.51100000000E-03 0. -1.
          2   -1    0    0  501    0 -0.00000000000E+00 -0.00000000000E+00 -0.76326821368E+01  0.76326825627E+01  0.25500000000E-02 0. -1.
         11    1    1    2    0    0 -0.88416835230E+01 -0.83500839644E+02  0.39017508022E+03  0.39910795383E+03  0.51100000000E-03 0. -1.
         22    1    1    2    0    0  0.12666614760E+02  0.24565729044E+02  0.15400454397E+03  0.15646506874E+03  0.00000000000E+00 0.  1.
          2    1    1    2  501    0 -0.38249312373E+01  0.58935110600E+02  0.44847823592E+03  0.45235020224E+03  0.25500000000E-02 0. -1.
<mgrwt>
<rscale>  0 0.87581585E+02</rscale>
<asrwt>0</asrwt>
<pdfrwt beam="1">  1       11 0.10000000E+01 0.83967688E+02</pdfrwt>
<pdfrwt beam="2">  1        2 0.11746000E-02 0.87581585E+02</pdfrwt>
<totfact> 0.12182862E+04</totfact>
</mgrwt>
</event>
<event>
 5    1  0.4186719E-003  0.2389637E+03  0.7818608E-02  0.1124559E+00
         11   -1    0    0    0    0  0.00000000000E+00  0.00000000000E+00  0.10002114598E+04  0.10002114598E+04  0.51100000000E-03 0. -1.
          2   -1    0    0  501    0 -0.00000000000E+00 -0.00000000000E+00 -0.10703369865E+04  0.10703369865E+04  0.25500000000E-02 0. -1.
         11    1    1    2    0    0 -0.12385534064E+03 -0.17220593548E+03  0.82801453180E+03  0.85475323603E+03  0.51100000000E-03 0. -1.
         22    1    1    2    0    0  0.14815349694E+00 -0.25219790690E+02  0.14488629942E+03  0.14706495012E+03  0.00000000000E+00 0.  1.
          2    1    1    2  501    0  0.12370718715E+03  0.19742572617E+03 -0.10430263579E+04  0.10687302601E+04  0.25500000000E-02 0. -1.
<mgrwt>
<rscale>  0 0.23298151E+03</rscale>
<asrwt>0</asrwt>
<pdfrwt beam="1">  1       11 0.10000000E+01 0.23896370E+03</pdfrwt>
<pdfrwt beam="2">  1        2 0.16470204E+00 0.23298151E+03</pdfrwt>
<totfact> 0.30003244E+01</totfact>
</mgrwt>
</event>
<event>
 5    1  0.2804411E-003  0.5035809E+02  0.7818608E-02  0.1581709E+00
         11   -1    0    0    0    0  0.00000000000E+00  0.00000000000E+00  0.10004868268E+04  0.10004868268E+04  0.51100000000E-03 0.  1.
          2   -1    0    0  501    0 -0.00000000000E+00 -0.00000000000E+00 -0.66842592333E+01  0.66842597197E+01  0.25500000000E-02 0.  1.
         11    1    1    2    0    0  0.33013895670E+02  0.23539048165E+02  0.81907211879E+02  0.91393629175E+02  0.51100000000E-03 0.  1.
         22    1    1    2    0    0  0.17449231351E+02 -0.92481208475E+01  0.86859888704E+02  0.89076616907E+02  0.00000000000E+00 0. -1.
          2    1    1    2  501    0 -0.50463127020E+02 -0.14290927317E+02  0.82503546697E+03  0.82670084042E+03  0.25500000000E-02 0.  1.
<mgrwt>
<rscale>  0 0.31535637E+02</rscale>
<asrwt>0</asrwt>
<pdfrwt beam="1">  1       11 0.10000000E+01 0.50358088E+02</pdfrwt>
<pdfrwt beam="2">  1        2 0.10288482E-02 0.31535637E+02</pdfrwt>
<totfact> 0.12140030E+04</totfact>
</mgrwt>
</event>
<event>
 5    1  0.2804411E-003  0.1588188E+03  0.7818608E-02  0.1195094E+00
         11   -1    0    0    0    0  0.00000000000E+00  0.00000000000E+00  0.10003755842E+04  0.10003755842E+04  0.51100000000E-03 0. -1.
         -2   -1    0    0    0  501 -0.00000000000E+00 -0.00000000000E+00 -0.41376078548E+02  0.41376078626E+02  0.25500000000E-02 0. -1.
         11    1    1    2    0    0 -0.54748984937E+02 -0.10596542912E+03  0.67374142068E+03  0.68421752788E+03  0.51100000000E-03 0. -1.
         22    1    1    2    0    0 -0.30638810632E+01 -0.37270446724E+02  0.14207931264E+03  0.14691836048E+03  0.00000000000E+00 0. -1.
         -2    1    1    2    0  501  0.57812866000E+02  0.14323587584E+03  0.14317877236E+03  0.21061577449E+03  0.25500000000E-02 0. -1.
<mgrwt>
<rscale>  0 0.15446308E+03</rscale>
<asrwt>0</asrwt>
<pdfrwt beam="1">  1       11 0.10000000E+01 0.15881875E+03</pdfrwt>
<pdfrwt beam="2">  1       -2 0.63679412E-02 0.15446308E+03</pdfrwt>
<totfact> 0.10352640E+03</totfact>
</mgrwt>
</event>
<event>
 5    1  0.2804411E-003  0.4877512E+03  0.7818608E-02  0.1019969E+00
         11   -1    0    0    0    0  0.00000000000E+00  0.00000000000E+00  0.10005192098E+04  0.10005192098E+04  0.51100000000E-03 0.  1.
          2   -1    0    0  501    0 -0.00000000000E+00 -0.00000000000E+00 -0.67384895537E+03  0.67384895537E+03  0.25500000000E-02 0.  1.
         11    1    1    2    0    0  0.17812855902E+03  0.23015371523E+03  0.43466832056E+03  0.52310330248E+03  0.51100000000E-03 0.  1.
         22    1    1    2    0    0  0.15685151968E+03  0.10940103838E+03  0.40677256150E+03  0.44948292872E+03  0.00000000000E+00 0. -1.
          2    1    1    2  501    0 -0.33498007870E+03 -0.33955475360E+03 -0.51477062760E+03  0.70178193399E+03  0.25500000000E-02 0.  1.
<mgrwt>
<rscale>  0 0.47697912E+03</rscale>
<asrwt>0</asrwt>
<pdfrwt beam="1">  1       11 0.10000000E+01 0.48775119E+03</pdfrwt>
<pdfrwt beam="2">  1        2 0.10372289E+00 0.47697912E+03</pdfrwt>
<totfact> 0.53930551E+01</totfact>
</mgrwt>
</event>
<event>
 5    1  0.2804411E-003  0.1641204E+03  0.7818608E-02  0.1199644E+00
         11   -1    0    0    0    0  0.00000000000E+00  0.00000000000E+00  0.10004754909E+04  0.10004754909E+04  0.51100000000E-03 0. -1.
          2   -1    0    0  501    0 -0.00000000000E+00 -0.00000000000E+00 -0.11860673816E+03  0.11860673819E+03  0.25500000000E-02 0. -1.
         11    1    1    2    0    0 -0.10491820224E+03 -0.25211404722E+02  0.62126421607E+03  0.63056535765E+03  0.51100000000E-03 0. -1.
         22    1    1    2    0    0 -0.25625663083E+02 -0.50033986887E+02  0.32122195334E+03  0.32610369173E+03  0.00000000000E+00 0. -1.
          2    1    1    2  501    0  0.13054386532E+03  0.75245391608E+02 -0.60617416677E+02  0.16241317971E+03  0.25500000000E-02 0. -1.
<mgrwt>
<rscale>  0 0.15067704E+03</rscale>
<asrwt>0</asrwt>
<pdfrwt beam="1">  1       11 0.10000000E+01 0.16412035E+03</pdfrwt>
<pdfrwt beam="2">  1        2 0.18255866E-01 0.15067704E+03</pdfrwt>
<totfact> 0.37407000E+02</totfact>
</mgrwt>
</event>
<event>
 5    1  0.2804411E-003  0.8398231E+02  0.7818608E-02  0.1321848E+00
         11   -1    0    0    0    0  0.00000000000E+00  0.00000000000E+00  0.10001604409E+04  0.10001604409E+04  0.51100000000E-03 0. -1.
          2   -1    0    0  501    0 -0.00000000000E+00 -0.00000000000E+00 -0.74072452502E+01  0.74072456892E+01  0.25500000000E-02 0. -1.
         11    1    1    2    0    0  0.65260859479E+02 -0.25490785304E+02  0.29826160963E+03  0.30638007066E+03  0.51100000000E-03 0. -1.
         22    1    1    2    0    0  0.94643286570E+01 -0.96924567555E+01  0.74894648703E+02  0.76109957557E+02  0.00000000000E+00 0. -1.
          2    1    1    2  501    0 -0.74725188137E+02  0.35183242059E+02  0.61959693729E+03  0.62507765835E+03  0.25500000000E-02 0. -1.
<mgrwt>
<rscale>  0 0.82593670E+02</rscale>
<asrwt>0</asrwt>
<pdfrwt beam="1">  1       11 0.10000000E+01 0.83982311E+02</pdfrwt>
<pdfrwt beam="2">  1        2 0.11397590E-02 0.82593670E+02</pdfrwt>
<totfact> 0.12578378E+04</totfact>
</mgrwt>
</event>
<event>
 5    1  0.2804411E-003  0.3195621E+03  0.7818608E-02  0.1077090E+00
         11   -1    0    0    0    0  0.00000000000E+00  0.00000000000E+00  0.99984927149E+03  0.99984927149E+03  0.51100000000E-03 0.  1.
         -2   -1    0    0    0  501 -0.00000000000E+00 -0.00000000000E+00 -0.21574714037E+03  0.21574714039E+03  0.25500000000E-02 0. -1.
         11    1    1    2    0    0 -0.16603692770E+03  0.22909316689E+03  0.77331011355E+03  0.82344427389E+03  0.51100000000E-03 0.  1.
         22    1    1    2    0    0 -0.14991577304E+02  0.30997554759E+02  0.62225108192E+02  0.71116523260E+02  0.00000000000E+00 0. -1.
         -2    1    1    2    0  501  0.18102850500E+03 -0.26009072165E+03 -0.51433090625E+02  0.32103561474E+03  0.25500000000E-02 0. -1.
<mgrwt>
<rscale>  0 0.31688879E+03</rscale>
<asrwt>0</asrwt>
<pdfrwt beam="1">  1       11 0.10000000E+01 0.31956206E+03</pdfrwt>
<pdfrwt beam="2">  1       -2 0.33186864E-01 0.31688879E+03</pdfrwt>
<totfact> 0.68555966E+01</totfact>
</mgrwt>
</event>
<event>
 5    1  0.2804411E-003  0.1506932E+03  0.7818608E-02  0.1199624E+00
         11   -1    0    0    0    0  0.00000000000E+00  0.00000000000E+00  0.10001131944E+04  0.10001131944E+04  0.51100000000E-03 0.  1.
          2   -1    0    0  501    0 -0.00000000000E+00 -0.00000000000E+00 -0.21358730567E+02  0.21358730720E+02  0.25500000000E-02 0.  1.
         11    1    1    2    0    0 -0.69587403483E+02  0.12330916472E+03  0.46726120051E+03  0.48824234385E+03  0.51100000000E-03 0.  1.
         22    1    1    2    0    0  0.31802504583E+02 -0.37973916567E+02  0.10409896652E+03  0.11528231637E+03  0.00000000000E+00 0.  1.
          2    1    1    2  501    0  0.37784898900E+02 -0.85335248154E+02  0.40739429685E+03  0.41794726494E+03  0.25500000000E-02 0.  1.
<mgrwt>
<rscale>  0 0.15069316E+03</rscale>
<asrwt>0</asrwt>
<pdfrwt beam="1">  1       11 0.10000000E+01 0.14158947E+03</pdfrwt>
<pdfrwt beam="2">  1        2 0.32863304E-02 0.15069316E+03</pdfrwt>
<totfact> 0.32251861E+03</totfact>
</mgrwt>
</event>
<event>
 5    1  0.2804411E-003  0.1074873E+04  0.7818608E-02  0.9230034E-01
         11   -1    0    0    0    0  0.00000000000E+00  0.00000000000E+00  0.10006371390E+04  0.10006371390E+04  0.51100000000E-03 0. -1.
          2   -1    0    0  501    0 -0.00000000000E+00 -0.00000000000E+00 -0.22162652813E+04  0.22162652813E+04  0.25500000000E-02 0. -1.
         11    1    1    2    0    0 -0.10443069394E+04  0.22736503519E+03  0.26207831855E+03  0.11004348631E+04  0.51100000000E-03 0. -1.
         22    1    1    2    0    0  0.78604276708E+01  0.64256485449E+02  0.15086010236E+03  0.16416288475E+03  0.00000000000E+00 0.  1.
          2    1    1    2  501    0  0.10364465117E+04 -0.29162152064E+03 -0.16285665632E+04  0.19523046724E+04  0.25500000000E-02 0. -1.
<mgrwt>
<rscale>  0 0.10748730E+04</rscale>
<asrwt>0</asrwt>
<pdfrwt beam="1">  1       11 0.10000000E+01 0.64735479E+02</pdfrwt>
<pdfrwt beam="2">  1        2 0.34118112E+00 0.10748730E+04</pdfrwt>
<totfact> 0.62125514E+00</totfact>
</mgrwt>
</event>
<event>
 5    1  0.2804411E-003  0.2332084E+03  0.7818608E-02  0.1493281E+00
         11   -1    0    0    0    0  0.00000000000E+00  0.00000000000E+00  0.10003343039E+04  0.10003343039E+04  0.51100000000E-03 0. -1.
          2   -1    0    0  501    0 -0.00000000000E+00 -0.00000000000E+00 -0.72603070823E+03  0.72603070823E+03  0.25500000000E-02 0.  1.
         11    1    1    2    0    0 -0.15055480774E+03 -0.14140601104E+03 -0.18433749114E+03  0.27684421744E+03  0.51100000000E-03 0. -1.
         22    1    1    2    0    0  0.19220181914E+03  0.13522528213E+03  0.93867414959E+03  0.96764486012E+03  0.00000000000E+00 0. -1.
          2    1    1    2  501    0 -0.41647011407E+02  0.61807289128E+01 -0.48003306277E+03  0.48187593458E+03  0.25500000000E-02 0.  1.
<mgrwt>
<rscale>  0 0.42103147E+02</rscale>
<asrwt>0</asrwt>
<pdfrwt beam="1">  1       11 0.10000000E+01 0.23320843E+03</pdfrwt>
<pdfrwt beam="2">  1        2 0.11173437E+00 0.42103147E+02</pdfrwt>
<totfact> 0.53111215E+01</totfact>
</mgrwt>
</event>
<event>
 5    1  0.2804411E-003  0.3639149E+02  0.7818608E-02  0.1536580E+00
         11   -1    0    0    0    0  0.00000000000E+00  0.00000000000E+00  0.10000678699E+04  0.10000678699E+04  0.51100000000E-03 0. -1.
          2   -1    0    0  501    0 -0.00000000000E+00 -0.00000000000E+00 -0.10482460901E+02  0.10482461211E+02  0.25500000000E-02 0. -1.
         11    1    1    2    0    0 -0.35762078823E+02  0.37574572658E+01  0.25692971558E+02  0.44194723153E+02  0.51100000000E-03 0. -1.
         22    1    1    2    0    0 -0.11313838647E+02  0.37865439457E+01  0.58258403347E+02  0.59467490451E+02  0.00000000000E+00 0. -1.
          2    1    1    2  501    0  0.47075917470E+02 -0.75440012115E+01  0.90563403410E+03  0.90688811752E+03  0.25500000000E-02 0. -1.
<mgrwt>
<rscale>  0 0.36391494E+02</rscale>
<asrwt>0</asrwt>
<pdfrwt beam="1">  1       11 0.10000000E+01 0.11930669E+02</pdfrwt>
<pdfrwt beam="2">  1        2 0.16127957E-02 0.36391494E+02</pdfrwt>
<totfact> 0.69012463E+03</totfact>
</mgrwt>
</event>
<event>
 5    1  0.2804411E-003  0.1131126E+03  0.7818608E-02  0.1258982E+00
         11   -1    0    0    0    0  0.00000000000E+00  0.00000000000E+00  0.10002108717E+04  0.10002108717E+04  0.51100000000E-03 0. -1.
          2   -1    0    0  501    0 -0.00000000000E+00 -0.00000000000E+00 -0.12555104864E+02  0.12555105123E+02  0.25500000000E-02 0. -1.
         11    1    1    2    0    0 -0.43919082731E+02  0.73642836461E+02  0.37289835951E+03  0.38262950712E+03  0.51100000000E-03 0. -1.
         22    1    1    2    0    0 -0.22085693130E+02  0.15428777315E+02  0.14429210672E+03  0.14678568415E+03  0.00000000000E+00 0. -1.
          2    1    1    2  501    0  0.66004775861E+02 -0.89071613776E+02  0.47046530064E+03  0.48335078559E+03  0.25500000000E-02 0. -1.
<mgrwt>
<rscale>  0 0.11086200E+03</rscale>
<asrwt>0</asrwt>
<pdfrwt beam="1">  1       11 0.10000000E+01 0.11311263E+03</pdfrwt>
<pdfrwt beam="2">  1        2 0.19319619E-02 0.11086200E+03</pdfrwt>
<totfact> 0.63926849E+03</totfact>
</mgrwt>
</event>
<event>
 5    1  0.2804411E-003  0.1410491E+03  0.7818608E-02  0.1211924E+00
         11   -1    0    0    0    0  0.00000000000E+00  0.00000000000E+00  0.99999474364E+03  0.99999474364E+03  0.51100000000E-03 0.  1.
          2   -1    0    0  501    0 -0.00000000000E+00 -0.00000000000E+00 -0.27504476440E+02  0.27504476558E+02  0.25500000000E-02 0.  1.
         11    1    1    2    0    0 -0.12406147739E+02 -0.14271054595E+03  0.51286679789E+03  0.53249653971E+03  0.51100000000E-03 0.  1.
         22    1    1    2    0    0  0.40848645603E+02  0.36364265604E+01  0.12358587470E+03  0.13021253347E+03  0.00000000000E+00 0.  1.
          2    1    1    2  501    0 -0.28442497865E+02  0.13907411939E+03  0.33603759460E+03  0.36479014702E+03  0.25500000000E-02 0.  1.
<mgrwt>
<rscale>  0 0.14104908E+03</rscale>
<asrwt>0</asrwt>
<pdfrwt beam="1">  1       11 0.10000000E+01 0.41010187E+02</pdfrwt>
<pdfrwt beam="2">  1        2 0.42314356E-02 0.14104908E+03</pdfrwt>
<totfact> 0.22892039E+03</totfact>
</mgrwt>
</event>
<event>
 5    1  0.2804411E-003  0.1180672E+03  0.7818608E-02  0.1246320E+00
         11   -1    0    0    0    0  0.00000000000E+00  0.00000000000E+00  0.99994244416E+03  0.99994244416E+03  0.51100000000E-03 0.  1.
          2   -1    0    0  501    0 -0.00000000000E+00 -0.00000000000E+00 -0.27574663879E+02  0.27574663997E+02  0.25500000000E-02 0.  1.
         11    1    1    2    0    0  0.18424873868E+01  0.79587281731E+02  0.28337601501E+03  0.29434587828E+03  0.51100000000E-03 0.  1.
         22    1    1    2    0    0  0.95063932269E+02  0.24276483170E+02  0.38997499489E+03  0.40212808344E+03  0.00000000000E+00 0.  1.
          2    1    1    2  501    0 -0.96906419656E+02 -0.10386376490E+03  0.29901677038E+03  0.33104314644E+03  0.25500000000E-02 0.  1.
<mgrwt>
<rscale>  0 0.11806722E+03</rscale>
<asrwt>0</asrwt>
<pdfrwt beam="1">  1       11 0.10000000E+01 0.79608606E+02</pdfrwt>
<pdfrwt beam="2">  1        2 0.42420117E-02 0.11806722E+03</pdfrwt>
<totfact> 0.22455837E+03</totfact>
</mgrwt>
</event>
<event>
 5    1  0.2804411E-003  0.1051751E+03  0.7818608E-02  0.1277716E+00
         11   -1    0    0    0    0  0.00000000000E+00  0.00000000000E+00  0.10003504327E+04  0.10003504327E+04  0.51100000000E-03 0.  1.
          2   -1    0    0  501    0 -0.00000000000E+00 -0.00000000000E+00 -0.12648058339E+02  0.12648058596E+02  0.25500000000E-02 0.  1.
         11    1    1    2    0    0  0.70352180840E+02  0.56908728958E+02  0.25257726311E+03  0.26829704922E+03  0.51100000000E-03 0.  1.
         22    1    1    2    0    0  0.14445788207E+02 -0.16076256870E+01  0.47810743999E+02  0.49971316763E+02  0.00000000000E+00 0. -1.
          2    1    1    2  501    0 -0.84797969048E+02 -0.55301103271E+02  0.68731436730E+03  0.69473012536E+03  0.25500000000E-02 0.  1.
<mgrwt>
<rscale>  0 0.10123689E+03</rscale>
<asrwt>0</asrwt>
<pdfrwt beam="1">  1       11 0.10000000E+01 0.10517508E+03</pdfrwt>
<pdfrwt beam="2">  1        2 0.19465370E-02 0.10123689E+03</pdfrwt>
<totfact> 0.62555714E+03</totfact>
</mgrwt>
</event>
<event>
 5    1  0.2804411E-003  0.5458911E+02  0.7818608E-02  0.1437044E+00
         11   -1    0    0    0    0  0.00000000000E+00  0.00000000000E+00  0.10001533992E+04  0.10001533992E+04  0.51100000000E-03 0. -1.
         -2   -1    0    0    0  501 -0.00000000000E+00 -0.00000000000E+00 -0.47543805695E+01  0.47543812534E+01  0.25500000000E-02 0. -1.
         11    1    1    2    0    0  0.24355672676E+01  0.41586968201E+02  0.16105834744E+03  0.16635864628E+03  0.51100000000E-03 0. -1.
         22    1    1    2    0    0  0.69700288470E+01  0.91198023147E+01  0.24365316786E+02  0.26933636191E+02  0.00000000000E+00 0. -1.
         -2    1    1    2    0  501 -0.94055961145E+01 -0.50706770516E+02  0.80997535435E+03  0.81161549793E+03  0.25500000000E-02 0. -1.
<mgrwt>
<rscale>  0 0.51571715E+02</rscale>
<asrwt>0</asrwt>
<pdfrwt beam="1">  1       11 0.10000000E+01 0.54589113E+02</pdfrwt>
<pdfrwt beam="2">  1       -2 0.73155540E-03 0.51571715E+02</pdfrwt>
<totfact> 0.20344537E+04</totfact>
</mgrwt>
</event>
<event>
 5    1  0.2804411E-003  0.1426436E+03  0.7818608E-02  0.1215939E+00
         11   -1    0    0    0    0  0.00000000000E+00  0.00000000000E+00  0.10001264981E+04  0.10001264981E+04  0.51100000000E-03 0. -1.
          2   -1    0    0  501    0 -0.00000000000E+00 -0.00000000000E+00 -0.22314587618E+02  0.22314587764E+02  0.25500000000E-02 0. -1.
         11    1    1    2    0    0  0.75085053407E+02  0.10579772314E+03  0.27352070071E+03  0.30272842150E+03  0.51100000000E-03 0. -1.
         22    1    1    2    0    0 -0.47938115236E-01  0.10111073873E+02  0.47387942941E+02  0.48454651470E+02  0.00000000000E+00 0.  1.
          2    1    1    2  501    0 -0.75037115292E+02 -0.11590879701E+03  0.65690326682E+03  0.67125801288E+03  0.25500000000E-02 0. -1.
<mgrwt>
<rscale>  0 0.13807758E+03</rscale>
<asrwt>0</asrwt>
<pdfrwt beam="1">  1       11 0.10000000E+01 0.14264359E+03</pdfrwt>
<pdfrwt beam="2">  1        2 0.34334477E-02 0.13807758E+03</pdfrwt>
<totfact> 0.30160667E+03</totfact>
</mgrwt>
</event>
<event>
 5    1  0.2804411E-003  0.1549291E+03  0.7818608E-02  0.1196901E+00
         11   -1    0    0    0    0  0.00000000000E+00  0.00000000000E+00  0.10002299198E+04  0.10002299198E+04  0.51100000000E-03 0.  1.
          2   -1    0    0  501    0 -0.00000000000E+00 -0.00000000000E+00 -0.65600551778E+02  0.65600551827E+02  0.25500000000E-02 0.  1.
         11    1    1    2    0    0  0.12013955777E+01  0.12367983590E+03  0.74216542485E+03  0.75240126462E+03  0.51100000000E-03 0.  1.
         22    1    1    2    0    0 -0.10389699898E+02  0.28988115964E+02  0.15218613069E+03  0.15527032912E+03  0.00000000000E+00 0.  1.
          2    1    1    2  501    0  0.91883043199E+01 -0.15266795187E+03  0.40277812458E+02  0.15815887786E+03  0.25500000000E-02 0.  1.
<mgrwt>
<rscale>  0 0.15294420E+03</rscale>
<asrwt>0</asrwt>
<pdfrwt beam="1">  1       11 0.10000000E+01 0.15492907E+03</pdfrwt>
<pdfrwt beam="2">  1        2 0.10094713E-01 0.15294420E+03</pdfrwt>
<totfact> 0.75692212E+02</totfact>
</mgrwt>
</event>
<event>
 5    1  0.2804411E-003  0.2227871E+03  0.7818608E-02  0.1131822E+00
         11   -1    0    0    0    0  0.00000000000E+00  0.00000000000E+00  0.10000762898E+04  0.10000762898E+04  0.51100000000E-03 0.  1.
         -2   -1    0    0    0  501 -0.00000000000E+00 -0.00000000000E+00 -0.10191497629E+03  0.10191497632E+03  0.25500000000E-02 0. -1.
         11    1    1    2    0    0 -0.17413245531E+03 -0.56727050288E+02  0.19078893943E+03  0.26446264318E+03  0.51100000000E-03 0.  1.
         22    1    1    2    0    0 -0.90530712429E+02 -0.33954343636E+02  0.44015719722E+03  0.45065182304E+03  0.00000000000E+00 0.  1.
         -2    1    1    2    0  501  0.26466316774E+03  0.90681393924E+02  0.26721517690E+03  0.38687679994E+03  0.25500000000E-02 0. -1.
<mgrwt>
<rscale>  0 0.22278711E+03</rscale>
<asrwt>0</asrwt>
<pdfrwt beam="1">  1       11 0.10000000E+01 0.96688714E+02</pdfrwt>
<pdfrwt beam="2">  1       -2 0.15680423E-01 0.22278711E+03</pdfrwt>
<totfact> 0.25299477E+02</totfact>
</mgrwt>
</event>
<event>
 5    1  0.2804411E-003  0.3556588E+03  0.7818608E-02  0.1062437E+00
         11   -1    0    0    0    0  0.00000000000E+00  0.00000000000E+00  0.10003564519E+04  0.10003564519E+04  0.51100000000E-03 0. -1.
          2   -1    0    0  501    0 -0.00000000000E+00 -0.00000000000E+00 -0.20261026614E+04  0.20261026614E+04  0.25500000000E-02 0.  1.
         11    1    1    2    0    0  0.93909284401E+01  0.33264476351E+03  0.92559558183E+03  0.98359946591E+03  0.51100000000E-03 0. -1.
         22    1    1    2    0    0  0.87776916893E+01  0.17319250810E+02  0.27257861798E+02  0.33466331586E+02  0.00000000000E+00 0. -1.
          2    1    1    2  501    0 -0.18168620129E+02 -0.34996401432E+03 -0.19785996532E+04  0.20093933158E+04  0.25500000000E-02 0.  1.
<mgrwt>
<rscale>  0 0.35043532E+03</rscale>
<asrwt>0</asrwt>
<pdfrwt beam="1">  1       11 0.10000000E+01 0.35565876E+03</pdfrwt>
<pdfrwt beam="2">  1        2 0.31181920E+00 0.35043532E+03</pdfrwt>
<totfact> 0.87924696E+00</totfact>
</mgrwt>
</event>
<event>
 5    1  0.2804411E-003  0.2342092E+03  0.7818608E-02  0.1128183E+00
         11   -1    0    0    0    0  0.00000000000E+00  0.00000000000E+00  0.10003821283E+04  0.10003821283E+04  0.51100000000E-03 0.  1.
          2   -1    0    0  501    0 -0.00000000000E+00 -0.00000000000E+00 -0.74039444081E+02  0.74039444125E+02  0.25500000000E-02 0.  1.
         11    1    1    2    0    0 -0.61565108904E+02 -0.15483414699E+03  0.13186433710E+03  0.21249018590E+03  0.51100000000E-03 0.  1.
         22    1    1    2    0    0 -0.52761449355E+02 -0.42223399696E+02  0.51944057256E+02  0.85233626604E+02  0.00000000000E+00 0.  1.
          2    1    1    2  501    0  0.11432655826E+03  0.19705754668E+03  0.74253428990E+03  0.77669775995E+03  0.25500000000E-02 0.  1.
<mgrwt>
<rscale>  0 0.22782063E+03</rscale>
<asrwt>0</asrwt>
<pdfrwt beam="1">  1       11 0.10000000E+01 0.23420919E+03</pdfrwt>
<pdfrwt beam="2">  1        2 0.11395036E-01 0.22782063E+03</pdfrwt>
<totfact> 0.66531751E+02</totfact>
</mgrwt>
</event>
<event>
 5    1  0.2804411E-003  0.1344157E+03  0.7818608E-02  0.1230250E+00
         11   -1    0    0    0    0  0.00000000000E+00  0.00000000000E+00  0.10001451876E+04  0.10001451876E+04  0.51100000000E-03 0. -1.
          2   -1    0    0  501    0 -0.00000000000E+00 -0.00000000000E+00 -0.23804790118E+02  0.23804790255E+02  0.25500000000E-02 0. -1.
         11    1    1    2    0    0 -0.10280108717E+03  0.52865189930E+02  0.68538099871E+03  0.69506108021E+03  0.51100000000E-03 0. -1.
         22    1    1    2    0    0 -0.16802460029E+02 -0.68931525142E+01  0.80239162345E+02  0.82268836071E+02  0.00000000000E+00 0. -1.
          2    1    1    2  501    0  0.11960354720E+03 -0.45972037416E+02  0.21072023645E+03  0.24662006160E+03  0.25500000000E-02 0. -1.
<mgrwt>
<rscale>  0 0.12813445E+03</rscale>
<asrwt>0</asrwt>
<pdfrwt beam="1">  1       11 0.10000000E+01 0.13441565E+03</pdfrwt>
<pdfrwt beam="2">  1        2 0.36628070E-02 0.12813445E+03</pdfrwt>
<totfact> 0.27473564E+03</totfact>
</mgrwt>
</event>
<event>
 5    1  0.2804411E-003  0.5271292E+02  0.7818608E-02  0.1449113E+00
         11   -1    0    0    0    0  0.00000000000E+00  0.00000000000E+00  0.10002545633E+04  0.10002545633E+04  0.51100000000E-03 0. -1.
          2   -1    0    0  501    0 -0.00000000000E+00 -0.00000000000E+00 -0.19487702032E+02  0.19487702199E+02  0.25500000000E-02 0. -1.
         11    1    1    2    0    0 -0.83323641912E+01  0.37999457946E+02  0.55917308009E+01  0.39302093466E+02  0.51100000000E-03 0. -1.
         22    1    1    2    0    0 -0.51099838029E+01  0.94402087444E+01  0.12390278819E+02  0.16393550098E+02  0.00000000000E+00 0.  1.
          2    1    1    2  501    0  0.13442347994E+02 -0.47439666691E+02  0.96278485166E+03  0.96404662195E+03  0.25500000000E-02 0. -1.
<mgrwt>
<rscale>  0 0.49307390E+02</rscale>
<asrwt>0</asrwt>
<pdfrwt beam="1">  1       11 0.10000000E+01 0.52712921E+02</pdfrwt>
<pdfrwt beam="2">  1        2 0.29988711E-02 0.49307390E+02</pdfrwt>
<totfact> 0.32103718E+03</totfact>
</mgrwt>
</event>
<event>
 5    1  0.2804411E-003  0.2381514E+03  0.7818608E-02  0.1123583E+00
         11   -1    0    0    0    0  0.00000000000E+00  0.00000000000E+00  0.10001713732E+04  0.10001713732E+04  0.51100000000E-03 0. -1.
          2   -1    0    0  501    0 -0.00000000000E+00 -0.00000000000E+00 -0.10949058111E+03  0.10949058114E+03  0.25500000000E-02 0. -1.
         11    1    1    2    0    0 -0.89997346917E+02  0.18733628223E+03  0.68486673425E+03  0.71570723677E+03  0.51100000000E-03 0. -1.
         22    1    1    2    0    0 -0.17057059452E+02  0.21184582652E+02  0.15074164979E+03  0.15317563384E+03  0.00000000000E+00 0.  1.
          2    1    1    2  501    0  0.10705440637E+03 -0.20852086488E+03  0.55072408003E+02  0.24077908369E+03  0.25500000000E-02 0. -1.
<mgrwt>
<rscale>  0 0.23439624E+03</rscale>
<asrwt>0</asrwt>
<pdfrwt beam="1">  1       11 0.10000000E+01 0.23815136E+03</pdfrwt>
<pdfrwt beam="2">  1        2 0.16847591E-01 0.23439624E+03</pdfrwt>
<totfact> 0.41673101E+02</totfact>
</mgrwt>
</event>
<event>
 5    1  0.2804411E-003  0.4683083E+03  0.7818608E-02  0.1025458E+00
         11   -1    0    0    0    0  0.00000000000E+00  0.00000000000E+00  0.10004305001E+04  0.10004305001E+04  0.51100000000E-03 0. -1.
          2   -1    0    0  501    0 -0.00000000000E+00 -0.00000000000E+00 -0.98187127707E+03  0.98187127707E+03  0.25500000000E-02 0. -1.
         11    1    1    2    0    0 -0.16669240310E+03  0.36555207574E+03  0.72252632035E+03  0.82671576792E+03  0.51100000000E-03 0. -1.
         22    1    1    2    0    0 -0.52379728139E+02  0.36283518065E+02  0.16312059587E+03  0.17512412284E+03  0.00000000000E+00 0. -1.
          2    1    1    2  501    0  0.21907213124E+03 -0.40183559380E+03 -0.86708769316E+03  0.98046188644E+03  0.25500000000E-02 0. -1.
<mgrwt>
<rscale>  0 0.45767286E+03</rscale>
<asrwt>0</asrwt>
<pdfrwt beam="1">  1       11 0.10000000E+01 0.46830835E+03</pdfrwt>
<pdfrwt beam="2">  1        2 0.15112215E+00 0.45767286E+03</pdfrwt>
<totfact> 0.32877884E+01</totfact>
</mgrwt>
</event>
<event>
 5    1  0.2804411E-003  0.5385853E+02  0.7818608E-02  0.1482194E+00
         11   -1    0    0    0    0  0.00000000000E+00  0.00000000000E+00  0.10004074427E+04  0.10004074427E+04  0.51100000000E-03 0. -1.
          2   -1    0    0  501    0 -0.00000000000E+00 -0.00000000000E+00 -0.13869920709E+02  0.13869920944E+02  0.25500000000E-02 0. -1.
         11    1    1    2    0    0 -0.23421098563E+02 -0.46424309090E+02  0.74323311097E+02  0.90706774307E+02  0.51100000000E-03 0. -1.
         22    1    1    2    0    0  0.34743686704E+02 -0.75990515327E+01  0.61315234709E+02  0.70883195169E+02  0.00000000000E+00 0. -1.
          2    1    1    2  501    0 -0.11322588142E+02  0.54023360623E+02  0.85089897618E+03  0.85268739416E+03  0.25500000000E-02 0. -1.
<mgrwt>
<rscale>  0 0.43766172E+02</rscale>
<asrwt>0</asrwt>
<pdfrwt beam="1">  1       11 0.10000000E+01 0.53858531E+02</pdfrwt>
<pdfrwt beam="2">  1        2 0.21347033E-02 0.43766172E+02</pdfrwt>
<totfact> 0.49217795E+03</totfact>
</mgrwt>
</event>
<event>
 5    1  0.2804411E-003  0.2364622E+03  0.7818608E-02  0.1127067E+00
         11   -1    0    0    0    0  0.00000000000E+00  0.00000000000E+00  0.10003258810E+04  0.10003258810E+04  0.51100000000E-03 0. -1.
         -2   -1    0    0    0  501 -0.00000000000E+00 -0.00000000000E+00 -0.15071980604E+03  0.15071980606E+03  0.25500000000E-02 0. -1.
         11    1    1    2    0    0 -0.19783138414E+03 -0.53360012095E+02 -0.21012568999E+02  0.20597591000E+03  0.51100000000E-03 0. -1.
         22    1    1    2    0    0 -0.27849786403E+02  0.12251876660E+02 -0.12314872522E+02  0.32823393633E+02  0.00000000000E+00 0.  1.
         -2    1    1    2    0  501  0.22568117055E+03  0.41108135435E+02  0.88293351650E+03  0.91224638344E+03  0.25500000000E-02 0. -1.
<mgrwt>
<rscale>  0 0.22939457E+03</rscale>
<asrwt>0</asrwt>
<pdfrwt beam="1">  1       11 0.10000000E+01 0.23646224E+03</pdfrwt>
<pdfrwt beam="2">  1       -2 0.23195218E-01 0.22939457E+03</pdfrwt>
<totfact> 0.13007197E+02</totfact>
</mgrwt>
</event>
<event>
 5    1  0.2804411E-003  0.2527935E+02  0.7818608E-02  0.1665790E+00
         11   -1    0    0    0    0  0.00000000000E+00  0.00000000000E+00  0.10000831043E+04  0.10000831043E+04  0.51100000000E-03 0. -1.
          2   -1    0    0  501    0 -0.00000000000E+00 -0.00000000000E+00 -0.20080627851E+01  0.20080644042E+01  0.25500000000E-02 0. -1.
         11    1    1    2    0    0 -0.95240468892E+01 -0.38919415581E+01  0.30313051652E+02  0.32011494482E+02  0.51100000000E-03 0. -1.
         22    1    1    2    0    0 -0.14854135348E+02  0.10984193730E+00  0.54602780986E+02  0.56587287385E+02  0.00000000000E+00 0.  1.
          2    1    1    2  501    0  0.24378182238E+02  0.37820996208E+01  0.91315920889E+03  0.91349238685E+03  0.25500000000E-02 0. -1.
<mgrwt>
<rscale>  0 0.24669821E+02</rscale>
<asrwt>0</asrwt>
<pdfrwt beam="1">  1       11 0.10000000E+01 0.25279350E+02</pdfrwt>
<pdfrwt beam="2">  1        2 0.30895853E-03 0.24669821E+02</pdfrwt>
<totfact> 0.56012715E+04</totfact>
</mgrwt>
</event>
<event>
 5    1  0.2804411E-003  0.1672567E+03  0.7818608E-02  0.1182439E+00
         11   -1    0    0    0    0  0.00000000000E+00  0.00000000000E+00  0.10000628708E+04  0.10000628708E+04  0.51100000000E-03 0.  1.
          2   -1    0    0  501    0 -0.00000000000E+00 -0.00000000000E+00 -0.38052487867E+02  0.38052487953E+02  0.25500000000E-02 0.  1.
         11    1    1    2    0    0  0.14503905748E+03  0.49336558768E+02  0.19800115153E+03  0.25034951614E+03  0.51100000000E-03 0.  1.
         22    1    1    2    0    0  0.96797579798E+01  0.98989371190E+01  0.14048511969E+02  0.19724283490E+02  0.00000000000E+00 0.  1.
          2    1    1    2  501    0 -0.15471881546E+03 -0.59235495887E+02  0.74996071943E+03  0.76804155911E+03  0.25500000000E-02 0.  1.
<mgrwt>
<rscale>  0 0.16567062E+03</rscale>
<asrwt>0</asrwt>
<pdfrwt beam="1">  1       11 0.10000000E+01 0.16725668E+03</pdfrwt>
<pdfrwt beam="2">  1        2 0.58545968E-02 0.16567062E+03</pdfrwt>
<totfact> 0.15155205E+03</totfact>
</mgrwt>
</event>
<event>
 5    1  0.2804411E-003  0.1978127E+03  0.7818608E-02  0.1151598E+00
         11   -1    0    0    0    0  0.00000000000E+00  0.00000000000E+00  0.99994664160E+03  0.99994664160E+03  0.51100000000E-03 0. -1.
          2   -1    0    0  501    0 -0.00000000000E+00 -0.00000000000E+00 -0.65496324594E+03  0.65496324595E+03  0.25500000000E-02 0. -1.
         11    1    1    2    0    0  0.21855218362E+03 -0.37430793104E+02  0.69143534043E+03  0.72611910265E+03  0.51100000000E-03 0. -1.
         22    1    1    2    0    0 -0.37732403343E+02 -0.41840658019E+02  0.27293962424E+03  0.27869412158E+03  0.00000000000E+00 0. -1.
          2    1    1    2  501    0 -0.18081978027E+03  0.79271451123E+02 -0.61939156900E+03  0.65009666332E+03  0.25500000000E-02 0. -1.
<mgrwt>
<rscale>  0 0.19781266E+03</rscale>
<asrwt>0</asrwt>
<pdfrwt beam="1">  1       11 0.10000000E+01 0.56341591E+02</pdfrwt>
<pdfrwt beam="2">  1        2 0.10075820E+00 0.19781266E+03</pdfrwt>
<totfact> 0.57223470E+01</totfact>
</mgrwt>
</event>
<event>
 5    1  0.2804411E-003  0.9017416E+02  0.7818608E-02  0.1309972E+00
         11   -1    0    0    0    0  0.00000000000E+00  0.00000000000E+00  0.10002482182E+04  0.10002482182E+04  0.51100000000E-03 0. -1.
          2   -1    0    0  501    0 -0.00000000000E+00 -0.00000000000E+00 -0.78572927492E+01  0.78572931630E+01  0.25500000000E-02 0. -1.
         11    1    1    2    0    0  0.71551493824E+02  0.28858920867E+02  0.43900312449E+03  0.44573108137E+03  0.51100000000E-03 0. -1.
         22    1    1    2    0    0  0.56345855189E+01  0.11548022503E+02  0.61058780475E+02  0.62396154135E+02  0.00000000000E+00 0.  1.
          2    1    1    2  501    0 -0.77186079343E+02 -0.40406943370E+02  0.49232902048E+03  0.49997827585E+03  0.25500000000E-02 0. -1.
<mgrwt>
<rscale>  0 0.87122970E+02</rscale>
<asrwt>0</asrwt>
<pdfrwt beam="1">  1       11 0.10000000E+01 0.90174157E+02</pdfrwt>
<pdfrwt beam="2">  1        2 0.12091143E-02 0.87122970E+02</pdfrwt>
<totfact> 0.11701739E+04</totfact>
</mgrwt>
</event>
<event>
 5    1  0.2804411E-003  0.2092323E+03  0.7818608E-02  0.1149423E+00
         11   -1    0    0    0    0  0.00000000000E+00  0.00000000000E+00  0.10004440384E+04  0.10004440384E+04  0.51100000000E-03 0. -1.
          2   -1    0    0  501    0 -0.00000000000E+00 -0.00000000000E+00 -0.70158099482E+03  0.70158099482E+03  0.25500000000E-02 0. -1.
         11    1    1    2    0    0  0.43406390960E+02  0.90198001012E+02  0.41985236062E+03  0.43161997043E+03  0.51100000000E-03 0. -1.
         22    1    1    2    0    0  0.90960776380E+02  0.58448239955E+02  0.55495361171E+03  0.56538798249E+03  0.00000000000E+00 0.  1.
          2    1    1    2  501    0 -0.13436716734E+03 -0.14864624097E+03 -0.67594292874E+03  0.70501708031E+03  0.25500000000E-02 0. -1.
<mgrwt>
<rscale>  0 0.20037525E+03</rscale>
<asrwt>0</asrwt>
<pdfrwt beam="1">  1       11 0.10000000E+01 0.20923235E+03</pdfrwt>
<pdfrwt beam="2">  1        2 0.10798346E+00 0.20037525E+03</pdfrwt>
<totfact> 0.52662745E+01</totfact>
</mgrwt>
</event>
<event>
 5    1  0.2804411E-003  0.2193791E+03  0.7818608E-02  0.1134347E+00
         11   -1    0    0    0    0  0.00000000000E+00  0.00000000000E+00  0.10001682655E+04  0.10001682655E+04  0.51100000000E-03 0.  1.
          2   -1    0    0  501    0 -0.00000000000E+00 -0.00000000000E+00 -0.23712195960E+03  0.23712195962E+03  0.25500000000E-02 0.  1.
         11    1    1    2    0    0  0.83019389938E+02 -0.12784181116E+03 -0.42531411591E+02  0.15825507498E+03  0.51100000000E-03 0.  1.
         22    1    1    2    0    0  0.13574173837E+03  0.17843488643E+03  0.82379872107E+03  0.85376177068E+03  0.00000000000E+00 0.  1.
          2    1    1    2  501    0 -0.21876112831E+03 -0.50593075271E+02 -0.18221003557E+02  0.22527337948E+03  0.25500000000E-02 0.  1.
<mgrwt>
<rscale>  0 0.21937905E+03</rscale>
<asrwt>0</asrwt>
<pdfrwt beam="1">  1       11 0.10000000E+01 0.15243284E+03</pdfrwt>
<pdfrwt beam="2">  1        2 0.36486439E-01 0.21937905E+03</pdfrwt>
<totfact> 0.17479310E+02</totfact>
</mgrwt>
</event>
<event>
 5    1  0.2804411E-003  0.9077079E+02  0.7818608E-02  0.1305757E+00
         11   -1    0    0    0    0  0.00000000000E+00  0.00000000000E+00  0.10001062692E+04  0.10001062692E+04  0.51100000000E-03 0.  1.
          2   -1    0    0  501    0 -0.00000000000E+00 -0.00000000000E+00 -0.82844595347E+01  0.82844599271E+01  0.25500000000E-02 0.  1.
         11    1    1    2    0    0 -0.77034532661E+02  0.14988709873E+01  0.34264753095E+03  0.35120349700E+03  0.51100000000E-03 0.  1.
         22    1    1    2    0    0 -0.11625704029E+02 -0.66689451833E+01  0.75827195819E+02  0.77002567813E+02  0.00000000000E+00 0.  1.
          2    1    1    2  501    0  0.88660236690E+02  0.51700741960E+01  0.57334708293E+03  0.58018466435E+03  0.25500000000E-02 0.  1.
<mgrwt>
<rscale>  0 0.88810851E+02</rscale>
<asrwt>0</asrwt>
<pdfrwt beam="1">  1       11 0.10000000E+01 0.90770794E+02</pdfrwt>
<pdfrwt beam="2">  1        2 0.12746677E-02 0.88810851E+02</pdfrwt>
<totfact> 0.10921039E+04</totfact>
</mgrwt>
</event>
<event>
 5    1  0.2804411E-003  0.3299263E+03  0.7818608E-02  0.1071169E+00
         11   -1    0    0    0    0  0.00000000000E+00  0.00000000000E+00  0.10005922004E+04  0.10005922004E+04  0.51100000000E-03 0.  1.
          2   -1    0    0  501    0 -0.00000000000E+00 -0.00000000000E+00 -0.71417032757E+03  0.71417032758E+03  0.25500000000E-02 0.  1.
         11    1    1    2    0    0  0.12440718203E+03 -0.31734481332E+03  0.86903104103E+03  0.93348799015E+03  0.51100000000E-03 0.  1.
         22    1    1    2    0    0 -0.92436216872E+01  0.86840931905E+01  0.58828777946E+02  0.60180421493E+02  0.00000000000E+00 0.  1.
          2    1    1    2  501    0 -0.11516356035E+03  0.30866072013E+03 -0.64143794617E+03  0.72109411631E+03  0.25500000000E-02 0.  1.
<mgrwt>
<rscale>  0 0.32992629E+03</rscale>
<asrwt>0</asrwt>
<pdfrwt beam="1">  1       11 0.10000000E+01 0.12682981E+02</pdfrwt>
<pdfrwt beam="2">  1        2 0.10993742E+00 0.32992629E+03</pdfrwt>
<totfact> 0.50744408E+01</totfact>
</mgrwt>
</event>
<event>
 5    1  0.2804411E-003  0.1304914E+03  0.7818608E-02  0.1228164E+00
         11   -1    0    0    0    0  0.00000000000E+00  0.00000000000E+00  0.10001607086E+04  0.10001607086E+04  0.51100000000E-03 0. -1.
          2   -1    0    0  501    0 -0.00000000000E+00 -0.00000000000E+00 -0.19794912633E+02  0.19794912797E+02  0.25500000000E-02 0. -1.
         11    1    1    2    0    0  0.10721991553E+03 -0.46668780599E+02  0.25450076388E+03  0.28007985323E+03  0.51100000000E-03 0. -1.
         22    1    1    2    0    0  0.11967345239E+02 -0.40340783561E+01  0.42189220159E+02  0.44038862813E+02  0.00000000000E+00 0.  1.
          2    1    1    2  501    0 -0.11918726076E+03  0.50702858955E+02  0.68367581192E+03  0.69583690535E+03  0.25500000000E-02 0. -1.
<mgrwt>
<rscale>  0 0.12952368E+03</rscale>
<asrwt>0</asrwt>
<pdfrwt beam="1">  1       11 0.10000000E+01 0.13049136E+03</pdfrwt>
<pdfrwt beam="2">  1        2 0.30458605E-02 0.12952368E+03</pdfrwt>
<totfact> 0.35183107E+03</totfact>
</mgrwt>
</event>
<event>
 5    1  0.2804411E-003  0.1248105E+03  0.7818608E-02  0.1235366E+00
         11   -1    0    0    0    0  0.00000000000E+00  0.00000000000E+00  0.10002906101E+04  0.10002906101E+04  0.51100000000E-03 0.  1.
          2   -1    0    0  501    0 -0.00000000000E+00 -0.00000000000E+00 -0.25746653989E+02  0.25746654115E+02  0.25500000000E-02 0.  1.
         11    1    1    2    0    0  0.54350552635E+02  0.21316863000E+01  0.88358995983E+02  0.10375856027E+03  0.51100000000E-03 0.  1.
         22    1    1    2    0    0  0.80189586742E+02 -0.64301742701E+02  0.45041833247E+03  0.46199757376E+03  0.00000000000E+00 0.  1.
          2    1    1    2  501    0 -0.13454013938E+03  0.62170056401E+02  0.43576662769E+03  0.46028113021E+03  0.25500000000E-02 0.  1.
<mgrwt>
<rscale>  0 0.12481048E+03</rscale>
<asrwt>0</asrwt>
<pdfrwt beam="1">  1       11 0.10000000E+01 0.54392367E+02</pdfrwt>
<pdfrwt beam="2">  1        2 0.39621747E-02 0.12481048E+03</pdfrwt>
<totfact> 0.24695511E+03</totfact>
</mgrwt>
</event>
<event>
 5    1  0.2804411E-003  0.2902265E+03  0.7818608E-02  0.1090231E+00
         11   -1    0    0    0    0  0.00000000000E+00  0.00000000000E+00  0.10001813845E+04  0.10001813845E+04  0.51100000000E-03 0.  1.
         -2   -1    0    0    0  501 -0.00000000000E+00 -0.00000000000E+00 -0.13733488607E+03  0.13733488609E+03  0.25500000000E-02 0. -1.
         11    1    1    2    0    0 -0.12245926696E+03  0.20983983740E+03  0.29026041062E+03  0.37852362594E+03  0.51100000000E-03 0.  1.
         22    1    1    2    0    0 -0.47281684720E+02  0.80429850306E+02  0.33375545847E+03  0.34655046471E+03  0.00000000000E+00 0.  1.
         -2    1    1    2    0  501  0.16974095168E+03 -0.29026968771E+03  0.23883062936E+03  0.41244217995E+03  0.25500000000E-02 0. -1.
<mgrwt>
<rscale>  0 0.29022653E+03</rscale>
<asrwt>0</asrwt>
<pdfrwt beam="1">  1       11 0.10000000E+01 0.93298009E+02</pdfrwt>
<pdfrwt beam="2">  1       -2 0.21132276E-01 0.29022653E+03</pdfrwt>
<totfact> 0.15377728E+02</totfact>
</mgrwt>
</event>
<event>
 5    1  0.2804411E-003  0.1236119E+03  0.7818608E-02  0.1237255E+00
         11   -1    0    0    0    0  0.00000000000E+00  0.00000000000E+00  0.10003445539E+04  0.10003445539E+04  0.51100000000E-03 0. -1.
          2   -1    0    0  501    0 -0.00000000000E+00 -0.00000000000E+00 -0.29415148384E+02  0.29415148494E+02  0.25500000000E-02 0. -1.
         11    1    1    2    0    0 -0.96723812023E+02  0.73298600712E+02  0.14717935153E+03  0.19076147986E+03  0.51100000000E-03 0. -1.
         22    1    1    2    0    0 -0.22204807182E+02 -0.11086629636E+02  0.14423124938E+03  0.14635101680E+03  0.00000000000E+00 0. -1.
          2    1    1    2  501    0  0.11892861921E+03 -0.62211971076E+02  0.67951880458E+03  0.69264720573E+03  0.25500000000E-02 0. -1.
<mgrwt>
<rscale>  0 0.12361191E+03</rscale>
<asrwt>0</asrwt>
<pdfrwt beam="1">  1       11 0.10000000E+01 0.24818679E+02</pdfrwt>
<pdfrwt beam="2">  1        2 0.45269666E-02 0.12361191E+03</pdfrwt>
<totfact> 0.20704312E+03</totfact>
</mgrwt>
</event>
<event>
 5    1  0.2804411E-003  0.1784415E+03  0.7818608E-02  0.1183246E+00
         11   -1    0    0    0    0  0.00000000000E+00  0.00000000000E+00  0.10001942293E+04  0.10001942293E+04  0.51100000000E-03 0. -1.
          2   -1    0    0  501    0 -0.00000000000E+00 -0.00000000000E+00 -0.10715845340E+03  0.10715845343E+03  0.25500000000E-02 0. -1.
         11    1    1    2    0    0 -0.49660540167E+02 -0.10531559654E+03  0.58784288641E+03  0.59926355072E+03  0.51100000000E-03 0. -1.
         22    1    1    2    0    0 -0.59005183946E+02 -0.18748582059E+02  0.33484447888E+03  0.34052011115E+03  0.00000000000E+00 0. -1.
          2    1    1    2  501    0  0.10866572411E+03  0.12406417860E+03 -0.29651589346E+02  0.16756902090E+03  0.25500000000E-02 0. -1.
<mgrwt>
<rscale>  0 0.16492471E+03</rscale>
<asrwt>0</asrwt>
<pdfrwt beam="1">  1       11 0.10000000E+01 0.17844147E+03</pdfrwt>
<pdfrwt beam="2">  1        2 0.16489117E-01 0.16492471E+03</pdfrwt>
<totfact> 0.42212578E+02</totfact>
</mgrwt>
</event>
<event>
 5    1  0.2804411E-003  0.2925015E+03  0.7818608E-02  0.1090918E+00
         11   -1    0    0    0    0  0.00000000000E+00  0.00000000000E+00  0.10003557814E+04  0.10003557814E+04  0.51100000000E-03 0. -1.
         -2   -1    0    0    0  501 -0.00000000000E+00 -0.00000000000E+00 -0.24561221504E+03  0.24561221506E+03  0.25500000000E-02 0.  1.
         11    1    1    2    0    0 -0.15323336819E+03 -0.19387219446E+03  0.72130787507E+03  0.76246438838E+03  0.51100000000E-03 0. -1.
         22    1    1    2    0    0 -0.12463890633E+02 -0.42802245394E+02  0.16145631586E+03  0.16749782897E+03  0.00000000000E+00 0.  1.
         -2    1    1    2    0  501  0.16569725882E+03  0.23667443986E+03 -0.12802062462E+03  0.31600577905E+03  0.25500000000E-02 0.  1.
<mgrwt>
<rscale>  0 0.28891240E+03</rscale>
<asrwt>0</asrwt>
<pdfrwt beam="1">  1       11 0.10000000E+01 0.29250147E+03</pdfrwt>
<pdfrwt beam="2">  1       -2 0.37799937E-01 0.28891240E+03</pdfrwt>
<totfact> 0.53653689E+01</totfact>
</mgrwt>
</event>
<event>
 5    1  0.2804411E-003  0.2142706E+03  0.7818608E-02  0.1141172E+00
         11   -1    0    0    0    0  0.00000000000E+00  0.00000000000E+00  0.10001313353E+04  0.10001313353E+04  0.51100000000E-03 0.  1.
          2   -1    0    0  501    0 -0.00000000000E+00 -0.00000000000E+00 -0.51972367534E+02  0.51972367597E+02  0.25500000000E-02 0.  1.
         11    1    1    2    0    0  0.16616621847E+03  0.72385097334E+02  0.52326020572E+03  0.55376173339E+03  0.51100000000E-03 0.  1.
         22    1    1    2    0    0  0.24824887231E+02  0.16113781299E+02  0.14573940846E+03  0.14871416930E+03  0.00000000000E+00 0.  1.
          2    1    1    2  501    0 -0.19099110570E+03 -0.88498878633E+02  0.27915935361E+03  0.34962780023E+03  0.25500000000E-02 0.  1.
<mgrwt>
<rscale>  0 0.21049858E+03</rscale>
<asrwt>0</asrwt>
<pdfrwt beam="1">  1       11 0.10000000E+01 0.21427065E+03</pdfrwt>
<pdfrwt beam="2">  1        2 0.79967988E-02 0.21049858E+03</pdfrwt>
<totfact> 0.10312288E+03</totfact>
</mgrwt>
</event>
<event>
 5    1  0.2804411E-003  0.3066202E+02  0.7818608E-02  0.1678536E+00
         11   -1    0    0    0    0  0.00000000000E+00  0.00000000000E+00  0.10001169572E+04  0.10001169572E+04  0.51100000000E-03 0.  1.
          2   -1    0    0  501    0 -0.00000000000E+00 -0.00000000000E+00 -0.26067457728E+01  0.26067470200E+01  0.25500000000E-02 0.  1.
         11    1    1    2    0    0  0.10751464549E+01 -0.22714228460E+02  0.90840766543E+02  0.93643670265E+02  0.51100000000E-03 0.  1.
         22    1    1    2    0    0  0.17901168530E+02 -0.46944832518E+01  0.98508202280E+02  0.10023151163E+03  0.00000000000E+00 0.  1.
          2    1    1    2  501    0 -0.18976314985E+02  0.27408711712E+02  0.80816124257E+03  0.80884852228E+03  0.25500000000E-02 0.  1.
<mgrwt>
<rscale>  0 0.23821124E+02</rscale>
<asrwt>0</asrwt>
<pdfrwt beam="1">  1       11 0.10000000E+01 0.30662020E+02</pdfrwt>
<pdfrwt beam="2">  1        2 0.40108480E-03 0.23821124E+02</pdfrwt>
<totfact> 0.39330926E+04</totfact>
</mgrwt>
</event>
<event>
 5    1  0.2804411E-003  0.3896660E+02  0.7818608E-02  0.1545846E+00
         11   -1    0    0    0    0  0.00000000000E+00  0.00000000000E+00  0.10002025518E+04  0.10002025518E+04  0.51100000000E-03 0. -1.
          2   -1    0    0  501    0 -0.00000000000E+00 -0.00000000000E+00 -0.29936544530E+01  0.29936555391E+01  0.25500000000E-02 0. -1.
         11    1    1    2    0    0 -0.24147614739E+02 -0.69237536178E+01  0.10987192979E+03  0.11270708326E+03  0.51100000000E-03 0. -1.
         22    1    1    2    0    0 -0.11152336990E+02  0.59967745441E+01  0.31865393581E+02  0.34289054133E+02  0.00000000000E+00 0.  1.
          2    1    1    2  501    0  0.35299951729E+02  0.92697907371E+00  0.85547157393E+03  0.85620006990E+03  0.25500000000E-02 0. -1.
<mgrwt>
<rscale>  0 0.35312121E+02</rscale>
<asrwt>0</asrwt>
<pdfrwt beam="1">  1       11 0.10000000E+01 0.38966596E+02</pdfrwt>
<pdfrwt beam="2">  1        2 0.46065558E-03 0.35312121E+02</pdfrwt>
<totfact> 0.36208499E+04</totfact>
</mgrwt>
</event>
<event>
 5    1  0.2804411E-003  0.6380571E+02  0.7818608E-02  0.1388216E+00
         11   -1    0    0    0    0  0.00000000000E+00  0.00000000000E+00  0.10001358119E+04  0.10001358119E+04  0.51100000000E-03 0. -1.
          2   -1    0    0  501    0 -0.00000000000E+00 -0.00000000000E+00 -0.69998918411E+01  0.69998923056E+01  0.25500000000E-02 0. -1.
         11    1    1    2    0    0 -0.81485775068E+01 -0.49768149051E+02  0.13752302742E+03  0.14647815894E+03  0.51100000000E-03 0. -1.
         22    1    1    2    0    0 -0.82938370391E+01 -0.10377407492E+02  0.31466412501E+02  0.34155723309E+02  0.00000000000E+00 0. -1.
          2    1    1    2  501    0  0.16442414546E+02  0.60145556543E+02  0.82414648010E+03  0.82650182192E+03  0.25500000000E-02 0. -1.
<mgrwt>
<rscale>  0 0.62352554E+02</rscale>
<asrwt>0</asrwt>
<pdfrwt beam="1">  1       11 0.10000000E+01 0.63805710E+02</pdfrwt>
<pdfrwt beam="2">  1        2 0.10770527E-02 0.62352554E+02</pdfrwt>
<totfact> 0.12973703E+04</totfact>
</mgrwt>
</event>
<event>
 5    1  0.2804411E-003  0.2837768E+03  0.7818608E-02  0.1095870E+00
         11   -1    0    0    0    0  0.00000000000E+00  0.00000000000E+00  0.10001937129E+04  0.10001937129E+04  0.51100000000E-03 0.  1.
          2   -1    0    0  501    0 -0.00000000000E+00 -0.00000000000E+00 -0.84538021863E+02  0.84538021902E+02  0.25500000000E-02 0.  1.
         11    1    1    2    0    0 -0.23040886165E+03  0.10310336686E+03  0.49638986293E+03  0.55688548536E+03  0.51100000000E-03 0.  1.
         22    1    1    2    0    0 -0.24853065515E+02  0.11158857786E+02  0.98897257197E+02  0.10258100435E+03  0.00000000000E+00 0.  1.
          2    1    1    2  501    0  0.25526192716E+03 -0.11426222465E+03  0.32036857087E+03  0.42526524506E+03  0.25500000000E-02 0.  1.
<mgrwt>
<rscale>  0 0.27966857E+03</rscale>
<asrwt>0</asrwt>
<pdfrwt beam="1">  1       11 0.10000000E+01 0.28377684E+03</pdfrwt>
<pdfrwt beam="2">  1        2 0.13008369E-01 0.27966857E+03</pdfrwt>
<totfact> 0.57092754E+02</totfact>
</mgrwt>
</event>
<event>
 5    1  0.2804411E-003  0.1820451E+03  0.7818608E-02  0.1165838E+00
         11   -1    0    0    0    0  0.00000000000E+00  0.00000000000E+00  0.10001744319E+04  0.10001744319E+04  0.51100000000E-03 0.  1.
          2   -1    0    0  501    0 -0.00000000000E+00 -0.00000000000E+00 -0.10181712728E+04  0.10181712728E+04  0.25500000000E-02 0.  1.
         11    1    1    2    0    0  0.22409184800E+01  0.20457851013E+02  0.55915954599E+01  0.21326305910E+02  0.51100000000E-03 0.  1.
         22    1    1    2    0    0 -0.16291781845E+03  0.65254766587E+02  0.97057494944E+03  0.98631441874E+03  0.00000000000E+00 0.  1.
          2    1    1    2  501    0  0.16067689997E+03 -0.85712617600E+02 -0.99416338578E+03  0.10107049800E+04  0.25500000000E-02 0.  1.
<mgrwt>
<rscale>  0 0.18204506E+03</rscale>
<asrwt>0</asrwt>
<pdfrwt beam="1">  1       11 0.10000000E+01 0.20580218E+02</pdfrwt>
<pdfrwt beam="2">  1        2 0.15666905E+00 0.18204506E+03</pdfrwt>
<totfact> 0.32641458E+01</totfact>
</mgrwt>
</event>
<event>
 5    1  0.2804411E-003  0.2159563E+03  0.7818608E-02  0.1148051E+00
         11   -1    0    0    0    0  0.00000000000E+00  0.00000000000E+00  0.10001090339E+04  0.10001090339E+04  0.51100000000E-03 0.  1.
          2   -1    0    0  501    0 -0.00000000000E+00 -0.00000000000E+00 -0.16287541400E+03  0.16287541402E+03  0.25500000000E-02 0.  1.
         11    1    1    2    0    0 -0.20123633961E+02  0.61857347332E+02  0.19670107574E+03  0.20717771420E+03  0.51100000000E-03 0.  1.
         22    1    1    2    0    0  0.44858058955E+02  0.13863646365E+03  0.72305244111E+03  0.73758873846E+03  0.00000000000E+00 0.  1.
          2    1    1    2  501    0 -0.24734424994E+02 -0.20049381099E+03 -0.82519897003E+02  0.21821799521E+03  0.25500000000E-02 0.  1.
<mgrwt>
<rscale>  0 0.20201376E+03</rscale>
<asrwt>0</asrwt>
<pdfrwt beam="1">  1       11 0.10000000E+01 0.21595629E+03</pdfrwt>
<pdfrwt beam="2">  1        2 0.25060487E-01 0.20201376E+03</pdfrwt>
<totfact> 0.26364596E+02</totfact>
</mgrwt>
</event>
<event>
 5    1  0.2804411E-003  0.1321365E+03  0.7818608E-02  0.1224320E+00
         11   -1    0    0    0    0  0.00000000000E+00  0.00000000000E+00  0.10002241504E+04  0.10002241504E+04  0.51100000000E-03 0.  1.
          2   -1    0    0  501    0 -0.00000000000E+00 -0.00000000000E+00 -0.42600522038E+03  0.42600522039E+03  0.25500000000E-02 0.  1.
         11    1    1    2    0    0 -0.14414118625E+03  0.93758132480E+00  0.75993600402E+03  0.77348580520E+03  0.51100000000E-03 0.  1.
         22    1    1    2    0    0  0.18522668433E+02 -0.41715390748E+02  0.22071834352E+03  0.22538822116E+03  0.00000000000E+00 0.  1.
          2    1    1    2  501    0  0.12561851781E+03  0.40777809423E+02 -0.40643541754E+03  0.42735534441E+03  0.25500000000E-02 0.  1.
<mgrwt>
<rscale>  0 0.13213653E+03</rscale>
<asrwt>0</asrwt>
<pdfrwt beam="1">  1       11 0.10000000E+01 0.45642777E+02</pdfrwt>
<pdfrwt beam="2">  1        2 0.65553953E-01 0.13213653E+03</pdfrwt>
<totfact> 0.93250574E+01</totfact>
</mgrwt>
</event>
<event>
 5    1  0.2804411E-003  0.2038502E+03  0.7818608E-02  0.1677288E+00
         11   -1    0    0    0    0  0.00000000000E+00  0.00000000000E+00  0.99997887941E+03  0.99997887941E+03  0.51100000000E-03 0. -1.
         -2   -1    0    0    0  501 -0.00000000000E+00 -0.00000000000E+00 -0.24780300052E+03  0.24780300053E+03  0.25500000000E-02 0. -1.
         11    1    1    2    0    0  0.15318068234E+03  0.11204461387E+03  0.24341135378E+03  0.30865418204E+03  0.51100000000E-03 0. -1.
         22    1    1    2    0    0 -0.17699753827E+03 -0.11406428224E+03  0.70790481588E+03  0.73855806636E+03  0.00000000000E+00 0. -1.
         -2    1    1    2    0  501  0.23816855937E+02  0.20196683701E+01 -0.19914029077E+03  0.20056963155E+03  0.25500000000E-02 0. -1.
<mgrwt>
<rscale>  0 0.23902337E+02</rscale>
<asrwt>0</asrwt>
<pdfrwt beam="1">  1       11 0.10000000E+01 0.20385018E+03</pdfrwt>
<pdfrwt beam="2">  1       -2 0.38122732E-01 0.23902337E+02</pdfrwt>
<totfact> 0.50841987E+01</totfact>
</mgrwt>
</event>
<event>
 5    1  0.2804411E-003  0.3218482E+02  0.7818608E-02  0.1722708E+00
         11   -1    0    0    0    0  0.00000000000E+00  0.00000000000E+00  0.10000080279E+04  0.10000080279E+04  0.51100000000E-03 0. -1.
          2   -1    0    0  501    0 -0.00000000000E+00 -0.00000000000E+00 -0.41574917981E+01  0.41574925801E+01  0.25500000000E-02 0. -1.
         11    1    1    2    0    0  0.28659576755E+01  0.22712571740E+02  0.39808266701E+02  0.45921375485E+02  0.51100000000E-03 0. -1.
         22    1    1    2    0    0  0.12068031773E+02  0.69913452975E+01  0.60573047192E+02  0.62157946765E+02  0.00000000000E+00 0. -1.
          2    1    1    2  501    0 -0.14933989448E+02 -0.29703917037E+02  0.89546922225E+03  0.89608619827E+03  0.25500000000E-02 0. -1.
<mgrwt>
<rscale>  0 0.21186754E+02</rscale>
<asrwt>0</asrwt>
<pdfrwt beam="1">  1       11 0.10000000E+01 0.32184820E+02</pdfrwt>
<pdfrwt beam="2">  1        2 0.63961930E-03 0.21186754E+02</pdfrwt>
<totfact> 0.20677085E+04</totfact>
</mgrwt>
</event>
<event>
 5    1  0.2804411E-003  0.7224245E+02  0.7818608E-02  0.1357626E+00
         11   -1    0    0    0    0  0.00000000000E+00  0.00000000000E+00  0.99988396029E+03  0.99988396029E+03  0.51100000000E-03 0.  1.
          2   -1    0    0  501    0 -0.00000000000E+00 -0.00000000000E+00 -0.58782524908E+01  0.58782530439E+01  0.25500000000E-02 0.  1.
         11    1    1    2    0    0  0.19209814142E+02  0.55472008723E+02  0.24625679170E+03  0.25315720051E+03  0.51100000000E-03 0.  1.
         22    1    1    2    0    0  0.92336870387E+01  0.92873966506E+01  0.73632900063E+02  0.74788506367E+02  0.00000000000E+00 0.  1.
          2    1    1    2  501    0 -0.28443501181E+02 -0.64759405373E+02  0.67411601604E+03  0.67781650646E+03  0.25500000000E-02 0.  1.
<mgrwt>
<rscale>  0 0.70730569E+02</rscale>
<asrwt>0</asrwt>
<pdfrwt beam="1">  1       11 0.10000000E+01 0.72242451E+02</pdfrwt>
<pdfrwt beam="2">  1        2 0.90424161E-03 0.70730569E+02</pdfrwt>
<totfact> 0.16803885E+04</totfact>
</mgrwt>
</event>
<event>
 5    1  0.2804411E-003  0.3170762E+03  0.7818608E-02  0.1080490E+00
         11   -1    0    0    0    0  0.00000000000E+00  0.00000000000E+00  0.10002483896E+04  0.10002483896E+04  0.51100000000E-03 0.  1.
          2   -1    0    0  501    0 -0.00000000000E+00 -0.00000000000E+00 -0.72970501563E+03  0.72970501563E+03  0.25500000000E-02 0.  1.
         11    1    1    2    0    0  0.10506121938E+03  0.31163983058E+02  0.40212266562E+03  0.41678734609E+03  0.51100000000E-03 0.  1.
         22    1    1    2    0    0  0.16628375735E+03  0.11811895658E+03  0.53803625256E+03  0.57540019546E+03  0.00000000000E+00 0.  1.
          2    1    1    2  501    0 -0.27134497673E+03 -0.14928293964E+03 -0.66961554424E+03  0.73776586365E+03  0.25500000000E-02 0.  1.
<mgrwt>
<rscale>  0 0.30969904E+03</rscale>
<asrwt>0</asrwt>
<pdfrwt beam="1">  1       11 0.10000000E+01 0.31707622E+03</pdfrwt>
<pdfrwt beam="2">  1        2 0.11229019E+00 0.30969904E+03</pdfrwt>
<totfact> 0.49527775E+01</totfact>
</mgrwt>
</event>
<event>
 5    1  0.2804411E-003  0.1555465E+03  0.7818608E-02  0.1202661E+00
         11   -1    0    0    0    0  0.00000000000E+00  0.00000000000E+00  0.10004781662E+04  0.10004781662E+04  0.51100000000E-03 0. -1.
          2   -1    0    0  501    0 -0.00000000000E+00 -0.00000000000E+00 -0.25546323277E+02  0.25546323405E+02  0.25500000000E-02 0. -1.
         11    1    1    2    0    0  0.71359887931E+02  0.82599847863E+02  0.28783670831E+03  0.30783914489E+03  0.51100000000E-03 0. -1.
         22    1    1    2    0    0  0.33340263615E+02  0.22332864138E+02  0.50201805058E+02  0.64269364627E+02  0.00000000000E+00 0. -1.
          2    1    1    2  501    0 -0.10470015155E+03 -0.10493271200E+03  0.63689332953E+03  0.65391598007E+03  0.25500000000E-02 0. -1.
<mgrwt>
<rscale>  0 0.14823291E+03</rscale>
<asrwt>0</asrwt>
<pdfrwt beam="1">  1       11 0.10000000E+01 0.15554648E+03</pdfrwt>
<pdfrwt beam="2">  1        2 0.39320828E-02 0.14823291E+03</pdfrwt>
<totfact> 0.25340629E+03</totfact>
</mgrwt>
</event>
<event>
 5    1  0.2804411E-003  0.2459754E+03  0.7818608E-02  0.1122566E+00
         11   -1    0    0    0    0  0.00000000000E+00  0.00000000000E+00  0.10002605684E+04  0.10002605684E+04  0.51100000000E-03 0.  1.
          2   -1    0    0  501    0 -0.00000000000E+00 -0.00000000000E+00 -0.10368817377E+03  0.10368817380E+03  0.25500000000E-02 0.  1.
         11    1    1    2    0    0  0.14043650617E+03  0.96480131539E+02  0.47277289844E+03  0.50253859707E+03  0.51100000000E-03 0.  1.
         22    1    1    2    0    0  0.45424201897E+02  0.48767105157E+02  0.34699600046E+03  0.35333810012E+03  0.00000000000E+00 0.  1.
          2    1    1    2  501    0 -0.18586070807E+03 -0.14524723670E+03  0.76803495784E+02  0.24807204506E+03  0.25500000000E-02 0.  1.
<mgrwt>
<rscale>  0 0.23588337E+03</rscale>
<asrwt>0</asrwt>
<pdfrwt beam="1">  1       11 0.10000000E+01 0.24597535E+03</pdfrwt>
<pdfrwt beam="2">  1        2 0.15956183E-01 0.23588337E+03</pdfrwt>
<totfact> 0.44433215E+02</totfact>
</mgrwt>
</event>
<event>
 5    1  0.4188948E-003  0.3150661E+03  0.7818608E-02  0.1079802E+00
         11   -1    0    0    0    0  0.00000000000E+00  0.00000000000E+00  0.10004401652E+04  0.10004401652E+04  0.51100000000E-03 0.  1.
          2   -1    0    0  501    0 -0.00000000000E+00 -0.00000000000E+00 -0.81378787863E+03  0.81378787863E+03  0.25500000000E-02 0.  1.
         11    1    1    2    0    0 -0.30190678968E+03  0.14288678871E+02  0.89800152352E+03  0.94750124656E+03  0.51100000000E-03 0.  1.
         22    1    1    2    0    0 -0.83255703288E+01  0.94232195556E+01  0.46142450693E+02  0.47825076519E+02  0.00000000000E+00 0.  1.
          2    1    1    2  501    0  0.31023236001E+03 -0.23711898427E+02 -0.75749168767E+03  0.81890172073E+03  0.25500000000E-02 0.  1.
<mgrwt>
<rscale>  0 0.31113722E+03</rscale>
<asrwt>0</asrwt>
<pdfrwt beam="1">  1       11 0.10000000E+01 0.31506610E+03</pdfrwt>
<pdfrwt beam="2">  1        2 0.12525324E+00 0.31113722E+03</pdfrwt>
<totfact> 0.43115269E+01</totfact>
</mgrwt>
</event>
<event>
 5    1  0.6581187E-003  0.2034857E+03  0.7818608E-02  0.1149194E+00
         11   -1    0    0    0    0  0.00000000000E+00  0.00000000000E+00  0.99974391508E+03  0.99974391508E+03  0.51100000000E-03 0. -1.
          2   -1    0    0  501    0 -0.00000000000E+00 -0.00000000000E+00 -0.80107174041E+03  0.80107174041E+03  0.25500000000E-02 0. -1.
         11    1    1    2    0    0 -0.19097419152E+03  0.20175744810E+02  0.91722791344E+03  0.93711538654E+03  0.51100000000E-03 0. -1.
         22    1    1    2    0    0 -0.76132866465E+01  0.85012339381E+01  0.59297296314E+02  0.60385449093E+02  0.00000000000E+00 0.  1.
          2    1    1    2  501    0  0.19858747816E+03 -0.28676978748E+02 -0.77785303509E+03  0.80331481985E+03  0.25500000000E-02 0. -1.
<mgrwt>
<rscale>  0 0.20064734E+03</rscale>
<asrwt>0</asrwt>
<pdfrwt beam="1">  1       11 0.10000000E+01 0.20348570E+03</pdfrwt>
<pdfrwt beam="2">  1        2 0.12321024E+00 0.20064734E+03</pdfrwt>
<totfact> 0.44746717E+01</totfact>
</mgrwt>
</event>
<event>
 5    1  0.2804411E-003  0.2235486E+03  0.7818608E-02  0.1132279E+00
         11   -1    0    0    0    0  0.00000000000E+00  0.00000000000E+00  0.10002680198E+04  0.10002680198E+04  0.51100000000E-03 0.  1.
          2   -1    0    0  501    0 -0.00000000000E+00 -0.00000000000E+00 -0.66799806084E+02  0.66799806133E+02  0.25500000000E-02 0. -1.
         11    1    1    2    0    0 -0.19582215316E+03  0.72866565267E+02  0.68311847084E+03  0.71435754157E+03  0.51100000000E-03 0.  1.
         22    1    1    2    0    0 -0.10211870263E+02  0.10245464062E+02  0.55011226290E+02  0.56881340052E+02  0.00000000000E+00 0.  1.
          2    1    1    2  501    0  0.20603402343E+03 -0.83112029330E+02  0.19533851662E+03  0.29582894434E+03  0.25500000000E-02 0. -1.
<mgrwt>
<rscale>  0 0.22216577E+03</rscale>
<asrwt>0</asrwt>
<pdfrwt beam="1">  1       11 0.10000000E+01 0.22354857E+03</pdfrwt>
<pdfrwt beam="2">  1        2 0.10279647E-01 0.22216577E+03</pdfrwt>
<totfact> 0.75453828E+02</totfact>
</mgrwt>
</event>
<event>
 5    1  0.2804411E-003  0.2607579E+03  0.7818608E-02  0.1287748E+00
         11   -1    0    0    0    0  0.00000000000E+00  0.00000000000E+00  0.10001429750E+04  0.10001429750E+04  0.51100000000E-03 0.  1.
          2   -1    0    0  501    0 -0.00000000000E+00 -0.00000000000E+00 -0.13999331932E+03  0.13999331934E+03  0.25500000000E-02 0.  1.
         11    1    1    2    0    0  0.43127076933E+02 -0.25150955938E+03  0.75556551353E+03  0.79749372941E+03  0.51100000000E-03 0.  1.
         22    1    1    2    0    0  0.20844990719E+02 -0.29032653159E+02 -0.19911282388E+01  0.35796273259E+02  0.00000000000E+00 0. -1.
          2    1    1    2  501    0 -0.63972067652E+02  0.28054221254E+03  0.10657527042E+03  0.30684629170E+03  0.25500000000E-02 0.  1.
<mgrwt>
<rscale>  0 0.96538651E+02</rscale>
<asrwt>0</asrwt>
<pdfrwt beam="1">  1       11 0.10000000E+01 0.26075794E+03</pdfrwt>
<pdfrwt beam="2">  1        2 0.21540512E-01 0.96538651E+02</pdfrwt>
<totfact> 0.30568755E+02</totfact>
</mgrwt>
</event>
<event>
 5    1  0.2804411E-003  0.1242632E+03  0.7818608E-02  0.1236225E+00
         11   -1    0    0    0    0  0.00000000000E+00  0.00000000000E+00  0.10003196071E+04  0.10003196071E+04  0.51100000000E-03 0.  1.
         -2   -1    0    0    0  501 -0.00000000000E+00 -0.00000000000E+00 -0.55989612923E+02  0.55989612981E+02  0.25500000000E-02 0.  1.
         11    1    1    2    0    0  0.81851618168E+02 -0.50979203217E+02  0.40596378999E+03  0.41725911055E+03  0.51100000000E-03 0.  1.
         22    1    1    2    0    0  0.45418258754E+02  0.93272026396E+02  0.48290319249E+03  0.49392102856E+03  0.00000000000E+00 0.  1.
         -2    1    1    2    0  501 -0.12726987692E+03 -0.42292823179E+02  0.55463011666E+02  0.14512908094E+03  0.25500000000E-02 0.  1.
<mgrwt>
<rscale>  0 0.12426320E+03</rscale>
<asrwt>0</asrwt>
<pdfrwt beam="1">  1       11 0.10000000E+01 0.96429075E+02</pdfrwt>
<pdfrwt beam="2">  1       -2 0.86165394E-02 0.12426320E+03</pdfrwt>
<totfact> 0.64026380E+02</totfact>
</mgrwt>
</event>
<event>
 5    1  0.2804411E-003  0.1176889E+03  0.7818608E-02  0.1252825E+00
         11   -1    0    0    0    0  0.00000000000E+00  0.00000000000E+00  0.10002373167E+04  0.10002373167E+04  0.51100000000E-03 0.  1.
          2   -1    0    0  501    0 -0.00000000000E+00 -0.00000000000E+00 -0.19673825623E+02  0.19673825789E+02  0.25500000000E-02 0.  1.
         11    1    1    2    0    0  0.64116459471E+02  0.59975655513E+02  0.13621613331E+03  0.16205812106E+03  0.51100000000E-03 0.  1.
         22    1    1    2    0    0  0.25097198152E+02  0.11461038820E+02  0.72181732153E+02  0.77275010337E+02  0.00000000000E+00 0.  1.
          2    1    1    2  501    0 -0.89213657623E+02 -0.71436694333E+02  0.77216562561E+03  0.78057801108E+03  0.25500000000E-02 0.  1.
<mgrwt>
<rscale>  0 0.11429032E+03</rscale>
<asrwt>0</asrwt>
<pdfrwt beam="1">  1       11 0.10000000E+01 0.11768890E+03</pdfrwt>
<pdfrwt beam="2">  1        2 0.30274606E-02 0.11429032E+03</pdfrwt>
<totfact> 0.35010289E+03</totfact>
</mgrwt>
</event>
<event>
 5    1  0.2804411E-003  0.1439002E+03  0.7818608E-02  0.1215816E+00
         11   -1    0    0    0    0  0.00000000000E+00  0.00000000000E+00  0.10002540971E+04  0.10002540971E+04  0.51100000000E-03 0.  1.
         -2   -1    0    0    0  501 -0.00000000000E+00 -0.00000000000E+00 -0.25922806145E+02  0.25922806271E+02  0.25500000000E-02 0. -1.
         11    1    1    2    0    0 -0.12415363199E+03  0.40463422830E+01  0.68628624873E+03  0.69743767637E+03  0.51100000000E-03 0.  1.
         22    1    1    2    0    0 -0.13854045321E+02 -0.10685651763E+02  0.56048972125E+02  0.58716309503E+02  0.00000000000E+00 0.  1.
         -2    1    1    2    0  501  0.13800767731E+03  0.66393094799E+01  0.23199607011E+03  0.27002291751E+03  0.25500000000E-02 0. -1.
<mgrwt>
<rscale>  0 0.13816729E+03</rscale>
<asrwt>0</asrwt>
<pdfrwt beam="1">  1       11 0.10000000E+01 0.14390021E+03</pdfrwt>
<pdfrwt beam="2">  1       -2 0.39891373E-02 0.13816729E+03</pdfrwt>
<totfact> 0.20734125E+03</totfact>
</mgrwt>
</event>
<event>
 5    1  0.2804411E-003  0.9776426E+02  0.7818608E-02  0.1292557E+00
         11   -1    0    0    0    0  0.00000000000E+00  0.00000000000E+00  0.10001746007E+04  0.10001746007E+04  0.51100000000E-03 0.  1.
          2   -1    0    0  501    0 -0.00000000000E+00 -0.00000000000E+00 -0.99561367265E+01  0.99561370530E+01  0.25500000000E-02 0.  1.
         11    1    1    2    0    0 -0.17252282820E+02 -0.27843363485E+02  0.85804475252E+02  0.91843900865E+02  0.51100000000E-03 0.  1.
         22    1    1    2    0    0 -0.42225942540E+02 -0.45448488326E+02  0.28090562479E+03  0.28767440858E+03  0.00000000000E+00 0.  1.
          2    1    1    2  501    0  0.59478225360E+02  0.73291851811E+02  0.62350836392E+03  0.63061242830E+03  0.25500000000E-02 0.  1.
<mgrwt>
<rscale>  0 0.94389379E+02</rscale>
<asrwt>0</asrwt>
<pdfrwt beam="1">  1       11 0.10000000E+01 0.97764256E+02</pdfrwt>
<pdfrwt beam="2">  1        2 0.15319808E-02 0.94389379E+02</pdfrwt>
<totfact> 0.85776974E+03</totfact>
</mgrwt>
</event>
<event>
 5    1  0.2804411E-003  0.8355139E+03  0.7818608E-02  0.9526397E-01
         11   -1    0    0    0    0  0.00000000000E+00  0.00000000000E+00  0.99966209368E+03  0.99966209368E+03  0.51100000000E-03 0. -1.
          2   -1    0    0  501    0 -0.00000000000E+00 -0.00000000000E+00 -0.28454237305E+04  0.28454237305E+04  0.25500000000E-02 0. -1.
         11    1    1    2    0    0  0.50476344571E+03  0.57404849250E+03  0.65288889999E+03  0.10052769388E+04  0.51100000000E-03 0. -1.
         22    1    1    2    0    0  0.61902493003E+02  0.23692561466E+02  0.96509634943E+02  0.11707845979E+03  0.00000000000E+00 0. -1.
          2    1    1    2  501    0 -0.56666593872E+03 -0.59774105397E+03 -0.25951601718E+04  0.27227304257E+04  0.25500000000E-02 0. -1.
<mgrwt>
<rscale>  0 0.82365324E+03</rscale>
<asrwt>0</asrwt>
<pdfrwt beam="1">  1       11 0.10000000E+01 0.83551390E+03</pdfrwt>
<pdfrwt beam="2">  1        2 0.43760956E+00 0.82365324E+03</pdfrwt>
<totfact> 0.27911826E+00</totfact>
</mgrwt>
</event>
<event>
 5    1  0.2804411E-003  0.8001563E+02  0.7818608E-02  0.1329007E+00
         11   -1    0    0    0    0  0.00000000000E+00  0.00000000000E+00  0.10001942740E+04  0.10001942740E+04  0.51100000000E-03 0.  1.
          2   -1    0    0  501    0 -0.00000000000E+00 -0.00000000000E+00 -0.11443297153E+02  0.11443297437E+02  0.25500000000E-02 0.  1.
         11    1    1    2    0    0  0.46212689910E+02  0.15703626506E+01  0.19148992506E+03  0.19699357895E+03  0.51100000000E-03 0.  1.
         22    1    1    2    0    0  0.26598278138E+02  0.63806006775E+02  0.35839498889E+03  0.36500088077E+03  0.00000000000E+00 0.  1.
          2    1    1    2  501    0 -0.72810968048E+02 -0.65376369426E+02  0.43886606289E+03  0.44964311171E+03  0.25500000000E-02 0.  1.
<mgrwt>
<rscale>  0 0.80015631E+02</rscale>
<asrwt>0</asrwt>
<pdfrwt beam="1">  1       11 0.10000000E+01 0.46239387E+02</pdfrwt>
<pdfrwt beam="2">  1        2 0.17608492E-02 0.80015631E+02</pdfrwt>
<totfact> 0.69423198E+03</totfact>
</mgrwt>
</event>
<event>
 5    1  0.2804411E-003  0.6532894E+02  0.7818608E-02  0.1385883E+00
         11   -1    0    0    0    0  0.00000000000E+00  0.00000000000E+00  0.10002541511E+04  0.10002541511E+04  0.51100000000E-03 0. -1.
          2   -1    0    0  501    0 -0.00000000000E+00 -0.00000000000E+00 -0.61352959343E+01  0.61352964642E+01  0.25500000000E-02 0. -1.
         11    1    1    2    0    0 -0.28767167329E+02  0.22294145125E+02  0.13400211166E+03  0.13885656179E+03  0.51100000000E-03 0. -1.
         22    1    1    2    0    0 -0.11725153301E+02  0.25894212627E+02  0.80346915665E+02  0.85226852132E+02  0.00000000000E+00 0. -1.
          2    1    1    2  501    0  0.40492320630E+02 -0.48188357752E+02  0.77976982787E+03  0.78230603367E+03  0.25500000000E-02 0. -1.
<mgrwt>
<rscale>  0 0.62942401E+02</rscale>
<asrwt>0</asrwt>
<pdfrwt beam="1">  1       11 0.10000000E+01 0.65328944E+02</pdfrwt>
<pdfrwt beam="2">  1        2 0.94413159E-03 0.62942401E+02</pdfrwt>
<totfact> 0.15529531E+04</totfact>
</mgrwt>
</event>
<event>
 5    1  0.2804411E-003  0.2009178E+03  0.7818608E-02  0.1151152E+00
         11   -1    0    0    0    0  0.00000000000E+00  0.00000000000E+00  0.99991509894E+03  0.99991509894E+03  0.51100000000E-03 0. -1.
          2   -1    0    0  501    0 -0.00000000000E+00 -0.00000000000E+00 -0.10259750068E+03  0.10259750071E+03  0.25500000000E-02 0. -1.
         11    1    1    2    0    0  0.15338073459E+03  0.87035941489E+02  0.79292862440E+03  0.81230333512E+03  0.51100000000E-03 0. -1.
         22    1    1    2    0    0  0.13673453396E+02  0.19873216801E+02  0.87945716131E+02  0.91194062634E+02  0.00000000000E+00 0. -1.
          2    1    1    2  501    0 -0.16705418799E+03 -0.10690915829E+03  0.16443257727E+02  0.19901520189E+03  0.25500000000E-02 0. -1.
<mgrwt>
<rscale>  0 0.19833474E+03</rscale>
<asrwt>0</asrwt>
<pdfrwt beam="1">  1       11 0.10000000E+01 0.20091775E+03</pdfrwt>
<pdfrwt beam="2">  1        2 0.15782890E-01 0.19833474E+03</pdfrwt>
<totfact> 0.44732905E+02</totfact>
</mgrwt>
</event>
<event>
 5    1  0.2804411E-003  0.2837916E+03  0.7818608E-02  0.1111156E+00
         11   -1    0    0    0    0  0.00000000000E+00  0.00000000000E+00  0.10002568275E+04  0.10002568275E+04  0.51100000000E-03 0. -1.
          2   -1    0    0  501    0 -0.00000000000E+00 -0.00000000000E+00 -0.26771987077E+03  0.26771987079E+03  0.25500000000E-02 0. -1.
         11    1    1    2    0    0  0.16226791976E+03  0.79765055690E+02  0.56701817061E+03  0.59514951709E+03  0.51100000000E-03 0. -1.
         22    1    1    2    0    0  0.14552143213E+02  0.10178892070E+03  0.34648324706E+03  0.36141857968E+03  0.00000000000E+00 0. -1.
          2    1    1    2  501    0 -0.17682006297E+03 -0.18155397639E+03 -0.18096446089E+03  0.31140860156E+03  0.25500000000E-02 0. -1.
<mgrwt>
<rscale>  0 0.25343082E+03</rscale>
<asrwt>0</asrwt>
<pdfrwt beam="1">  1       11 0.10000000E+01 0.28379162E+03</pdfrwt>
<pdfrwt beam="2">  1        2 0.41198249E-01 0.25343082E+03</pdfrwt>
<totfact> 0.15341766E+02</totfact>
</mgrwt>
</event>
<event>
 5    1  0.2804411E-003  0.1197458E+03  0.7818608E-02  0.1246567E+00
         11   -1    0    0    0    0  0.00000000000E+00  0.00000000000E+00  0.10003017782E+04  0.10003017782E+04  0.51100000000E-03 0. -1.
          2   -1    0    0  501    0 -0.00000000000E+00 -0.00000000000E+00 -0.14249047513E+02  0.14249047741E+02  0.25500000000E-02 0. -1.
         11    1    1    2    0    0  0.26496689474E+01  0.12072962204E+02  0.60084150346E+02  0.61342336808E+02  0.51100000000E-03 0. -1.
         22    1    1    2    0    0 -0.37737076600E+02  0.10050677501E+03  0.48550735453E+03  0.49723544733E+03  0.00000000000E+00 0. -1.
          2    1    1    2  501    0  0.35087407653E+02 -0.11257973722E+03  0.44046122582E+03  0.45597304182E+03  0.25500000000E-02 0. -1.
<mgrwt>
<rscale>  0 0.11792084E+03</rscale>
<asrwt>0</asrwt>
<pdfrwt beam="1">  1       11 0.10000000E+01 0.11974578E+03</pdfrwt>
<pdfrwt beam="2">  1        2 0.21928227E-02 0.11792084E+03</pdfrwt>
<totfact> 0.54236616E+03</totfact>
</mgrwt>
</event>
<event>
 5    1  0.2804411E-003  0.1467439E+03  0.7818608E-02  0.1209460E+00
         11   -1    0    0    0    0  0.00000000000E+00  0.00000000000E+00  0.10001335707E+04  0.10001335707E+04  0.51100000000E-03 0. -1.
         -2   -1    0    0    0  501 -0.00000000000E+00 -0.00000000000E+00 -0.24602477932E+02  0.24602478064E+02  0.25500000000E-02 0.  1.
         11    1    1    2    0    0  0.83827644124E+02  0.67809177542E+02  0.58108529168E+03  0.59100361647E+03  0.51100000000E-03 0. -1.
         22    1    1    2    0    0  0.27414520633E+02  0.21911312054E+02  0.10896555625E+03  0.11447774450E+03  0.00000000000E+00 0. -1.
         -2    1    1    2    0  501 -0.11124216476E+03 -0.89720489596E+02  0.28548024482E+03  0.31925468777E+03  0.25500000000E-02 0.  1.
<mgrwt>
<rscale>  0 0.14291461E+03</rscale>
<asrwt>0</asrwt>
<pdfrwt beam="1">  1       11 0.10000000E+01 0.14674392E+03</pdfrwt>
<pdfrwt beam="2">  1       -2 0.37855021E-02 0.14291461E+03</pdfrwt>
<totfact> 0.22484835E+03</totfact>
</mgrwt>
</event>
<event>
 5    1  0.2804411E-003  0.8943117E+02  0.7818608E-02  0.1307933E+00
         11   -1    0    0    0    0  0.00000000000E+00  0.00000000000E+00  0.10004929660E+04  0.10004929660E+04  0.51100000000E-03 0. -1.
          2   -1    0    0  501    0 -0.00000000000E+00 -0.00000000000E+00 -0.82029975555E+01  0.82029979519E+01  0.25500000000E-02 0. -1.
         11    1    1    2    0    0  0.28660914740E+00  0.64533153042E+02  0.26157275739E+03  0.26941588185E+03  0.51100000000E-03 0. -1.
         22    1    1    2    0    0  0.61327242841E+01  0.23166178952E+02  0.13556671666E+03  0.13766850337E+03  0.00000000000E+00 0. -1.
          2    1    1    2  501    0 -0.64193334315E+01 -0.87699331994E+02  0.59515049438E+03  0.60161157871E+03  0.25500000000E-02 0. -1.
<mgrwt>
<rscale>  0 0.87933956E+02</rscale>
<asrwt>0</asrwt>
<pdfrwt beam="1">  1       11 0.10000000E+01 0.89431174E+02</pdfrwt>
<pdfrwt beam="2">  1        2 0.12626217E-02 0.87933956E+02</pdfrwt>
<totfact> 0.11046740E+04</totfact>
</mgrwt>
</event>
<event>
 5    1  0.2804411E-003  0.4214326E+03  0.7818608E-02  0.1038394E+00
         11   -1    0    0    0    0  0.00000000000E+00  0.00000000000E+00  0.99994651794E+03  0.99994651794E+03  0.51100000000E-03 0. -1.
          2   -1    0    0  501    0 -0.00000000000E+00 -0.00000000000E+00 -0.64820653675E+03  0.64820653676E+03  0.25500000000E-02 0.  1.
         11    1    1    2    0    0  0.22135095831E+03 -0.32347958103E+03  0.81997376682E+03  0.90884116564E+03  0.51100000000E-03 0. -1.
         22    1    1    2    0    0 -0.12111345660E+01 -0.29437003250E+02  0.60075817834E+02  0.66911194099E+02  0.00000000000E+00 0. -1.
          2    1    1    2  501    0 -0.22013982374E+03  0.35291658428E+03 -0.52830960347E+03  0.67240069496E+03  0.25500000000E-02 0.  1.
<mgrwt>
<rscale>  0 0.41594670E+03</rscale>
<asrwt>0</asrwt>
<pdfrwt beam="1">  1       11 0.10000000E+01 0.42143255E+03</pdfrwt>
<pdfrwt beam="2">  1        2 0.99718746E-01 0.41594670E+03</pdfrwt>
<totfact> 0.56796109E+01</totfact>
</mgrwt>
</event>
<event>
 5    1  0.2804411E-003  0.1273087E+03  0.7818608E-02  0.1231505E+00
         11   -1    0    0    0    0  0.00000000000E+00  0.00000000000E+00  0.10000218991E+04  0.10000218991E+04  0.51100000000E-03 0. -1.
          2   -1    0    0  501    0 -0.00000000000E+00 -0.00000000000E+00 -0.26373050187E+02  0.26373050310E+02  0.25500000000E-02 0. -1.
         11    1    1    2    0    0 -0.18072017798E+02  0.17226818718E+02  0.91777587632E+01  0.26600608388E+02  0.51100000000E-03 0. -1.
         22    1    1    2    0    0 -0.45021582192E+02  0.10355071852E+03  0.60324071432E+03  0.61371740531E+03  0.00000000000E+00 0. -1.
          2    1    1    2  501    0  0.63093599990E+02 -0.12077753723E+03  0.36123037584E+03  0.38607693572E+03  0.25500000000E-02 0. -1.
<mgrwt>
<rscale>  0 0.12730870E+03</rscale>
<asrwt>0</asrwt>
<pdfrwt beam="1">  1       11 0.10000000E+01 0.24967213E+02</pdfrwt>
<pdfrwt beam="2">  1        2 0.40574811E-02 0.12730870E+03</pdfrwt>
<totfact> 0.23976169E+03</totfact>
</mgrwt>
</event>
<event>
 5    1  0.2804411E-003  0.2057916E+03  0.7818608E-02  0.1144943E+00
         11   -1    0    0    0    0  0.00000000000E+00  0.00000000000E+00  0.10001242182E+04  0.10001242182E+04  0.51100000000E-03 0. -1.
          2   -1    0    0  501    0 -0.00000000000E+00 -0.00000000000E+00 -0.63531617356E+02  0.63531617407E+02  0.25500000000E-02 0. -1.
         11    1    1    2    0    0  0.57135407438E+02 -0.20751766300E+03  0.49420997966E+03  0.53904688037E+03  0.51100000000E-03 0. -1.
         22    1    1    2    0    0  0.31036446746E+02  0.25543835735E+02  0.22161587891E+03  0.22523176143E+03  0.00000000000E+00 0. -1.
          2    1    1    2  501    0 -0.88171854184E+02  0.18197382726E+03  0.22076674230E+03  0.29937719384E+03  0.25500000000E-02 0. -1.
<mgrwt>
<rscale>  0 0.20579161E+03</rscale>
<asrwt>0</asrwt>
<pdfrwt beam="1">  1       11 0.10000000E+01 0.40196375E+02</pdfrwt>
<pdfrwt beam="2">  1        2 0.97753088E-02 0.20579161E+03</pdfrwt>
<totfact> 0.80010321E+02</totfact>
</mgrwt>
</event>
<event>
 5    1  0.2804411E-003  0.3194210E+03  0.7818608E-02  0.1080905E+00
         11   -1    0    0    0    0  0.00000000000E+00  0.00000000000E+00  0.10000310729E+04  0.10000310729E+04  0.51100000000E-03 0. -1.
          2   -1    0    0  501    0 -0.00000000000E+00 -0.00000000000E+00 -0.11436465416E+03  0.11436465419E+03  0.25500000000E-02 0. -1.
         11    1    1    2    0    0  0.26042962782E+02 -0.20378678741E+03  0.51600017097E+03  0.55539487490E+03  0.51100000000E-03 0. -1.
         22    1    1    2    0    0  0.39073700435E+01 -0.10359442620E+03  0.13963280731E+03  0.17390915317E+03  0.00000000000E+00 0. -1.
          2    1    1    2  501    0 -0.29950332826E+02  0.30738121361E+03  0.23003344050E+03  0.38509169904E+03  0.25500000000E-02 0. -1.
<mgrwt>
<rscale>  0 0.30883690E+03</rscale>
<asrwt>0</asrwt>
<pdfrwt beam="1">  1       11 0.10000000E+01 0.31942098E+03</pdfrwt>
<pdfrwt beam="2">  1        2 0.17595108E-01 0.30883690E+03</pdfrwt>
<totfact> 0.39940213E+02</totfact>
</mgrwt>
</event>
<event>
 5    1  0.2804411E-003  0.1640120E+02  0.7818608E-02  0.1828096E+00
         11   -1    0    0    0    0  0.00000000000E+00  0.00000000000E+00  0.99987548608E+03  0.99987548608E+03  0.51100000000E-03 0. -1.
          2   -1    0    0  501    0 -0.00000000000E+00 -0.00000000000E+00 -0.19130883996E+01  0.19130900991E+01  0.25500000000E-02 0. -1.
         11    1    1    2    0    0 -0.78261458524E+01  0.10200238793E+02  0.49455438280E+02  0.51099254457E+02  0.51100000000E-03 0. -1.
         22    1    1    2    0    0 -0.15640317978E+02 -0.32345828589E+01  0.68317635003E+02  0.70159684471E+02  0.00000000000E+00 0. -1.
          2    1    1    2  501    0  0.23466463830E+02 -0.69656559343E+01  0.88018932440E+03  0.88052963725E+03  0.25500000000E-02 0. -1.
<mgrwt>
<rscale>  0 0.16401196E+02</rscale>
<asrwt>0</asrwt>
<pdfrwt beam="1">  1       11 0.10000000E+01 0.12856656E+02</pdfrwt>
<pdfrwt beam="2">  1        2 0.29428477E-03 0.16401196E+02</pdfrwt>
<totfact> 0.52746962E+04</totfact>
</mgrwt>
</event>
<event>
 5    1  0.2804411E-003  0.4375455E+03  0.7818608E-02  0.1031503E+00
         11   -1    0    0    0    0  0.00000000000E+00  0.00000000000E+00  0.10003765967E+04  0.10003765967E+04  0.51100000000E-03 0. -1.
          2   -1    0    0  501    0 -0.00000000000E+00 -0.00000000000E+00 -0.37826140028E+03  0.37826140028E+03  0.25500000000E-02 0. -1.
         11    1    1    2    0    0 -0.37741115349E+03 -0.19430797567E+03  0.77054015991E+03  0.87973115565E+03  0.51100000000E-03 0. -1.
         22    1    1    2    0    0 -0.46494953185E+01 -0.23982348064E+02  0.15959480226E+02  0.29180058850E+02  0.00000000000E+00 0.  1.
          2    1    1    2  501    0  0.38206064881E+03  0.21829032374E+03 -0.16438444374E+03  0.46972678246E+03  0.25500000000E-02 0. -1.
<mgrwt>
<rscale>  0 0.43754549E+03</rscale>
<asrwt>0</asrwt>
<pdfrwt beam="1">  1       11 0.10000000E+01 0.24428893E+02</pdfrwt>
<pdfrwt beam="2">  1        2 0.58215976E-01 0.43754549E+03</pdfrwt>
<totfact> 0.10513883E+02</totfact>
</mgrwt>
</event>
<event>
 5    1  0.2804411E-003  0.3406059E+03  0.7818608E-02  0.1368130E+00
         11   -1    0    0    0    0  0.00000000000E+00  0.00000000000E+00  0.99998248867E+03  0.99998248867E+03  0.51100000000E-03 0. -1.
          2   -1    0    0  501    0 -0.00000000000E+00 -0.00000000000E+00 -0.12894995510E+03  0.12894995513E+03  0.25500000000E-02 0. -1.
         11    1    1    2    0    0  0.89108013538E+02 -0.32650441501E+03  0.56239975697E+03  0.65638316381E+03  0.51100000000E-03 0. -1.
         22    1    1    2    0    0  0.13256506562E+02 -0.22860422700E+01  0.10466841080E+02  0.17044521633E+02  0.00000000000E+00 0. -1.
          2    1    1    2  501    0 -0.10236452010E+03  0.32879045728E+03  0.29816593552E+03  0.45550475835E+03  0.25500000000E-02 0. -1.
<mgrwt>
<rscale>  0 0.67689658E+02</rscale>
<asrwt>0</asrwt>
<pdfrwt beam="1">  1       11 0.10000000E+01 0.34060593E+03</pdfrwt>
<pdfrwt beam="2">  1        2 0.19838107E-01 0.67689658E+02</pdfrwt>
<totfact> 0.33042860E+02</totfact>
</mgrwt>
</event>
<event>
 5    1  0.2804411E-003  0.1199107E+03  0.7818608E-02  0.1325868E+00
         11   -1    0    0    0    0  0.00000000000E+00  0.00000000000E+00  0.10002404362E+04  0.10002404362E+04  0.51100000000E-03 0.  1.
          2   -1    0    0  501    0 -0.00000000000E+00 -0.00000000000E+00 -0.59807479876E+03  0.59807479877E+03  0.25500000000E-02 0. -1.
         11    1    1    2    0    0 -0.81605084994E+02  0.50961058172E+02  0.39214376663E+03  0.40377364086E+03  0.51100000000E-03 0.  1.
         22    1    1    2    0    0  0.12409099777E+03 -0.12007999330E+03  0.58700798940E+03  0.61187920388E+03  0.00000000000E+00 0.  1.
          2    1    1    2  501    0 -0.42485912775E+02  0.69118935129E+02 -0.57698611857E+03  0.58266239025E+03  0.25500000000E-02 0. -1.
<mgrwt>
<rscale>  0 0.81132484E+02</rscale>
<asrwt>0</asrwt>
<pdfrwt beam="1">  1       11 0.10000000E+01 0.11991071E+03</pdfrwt>
<pdfrwt beam="2">  1        2 0.92033628E-01 0.81132484E+02</pdfrwt>
<totfact> 0.64893631E+01</totfact>
</mgrwt>
</event>
<event>
 5    1  0.2804411E-003  0.1072061E+03  0.7818608E-02  0.1544352E+00
         11   -1    0    0    0    0  0.00000000000E+00  0.00000000000E+00  0.10002692109E+04  0.10002692109E+04  0.51100000000E-03 0.  1.
          2   -1    0    0  501    0 -0.00000000000E+00 -0.00000000000E+00 -0.98258098440E+03  0.98258098441E+03  0.25500000000E-02 0. -1.
         11    1    1    2    0    0 -0.68256865036E+02 -0.62755686123E+02  0.35374906933E+03  0.36569889229E+03  0.51100000000E-03 0.  1.
         22    1    1    2    0    0  0.73218180543E+02  0.97890180138E+02  0.63438574451E+03  0.64605623762E+03  0.00000000000E+00 0.  1.
          2    1    1    2  501    0 -0.49613155077E+01 -0.35134494015E+02 -0.97044658730E+03  0.97109506545E+03  0.25500000000E-02 0. -1.
<mgrwt>
<rscale>  0 0.35483057E+02</rscale>
<asrwt>0</asrwt>
<pdfrwt beam="1">  1       11 0.10000000E+01 0.10720606E+03</pdfrwt>
<pdfrwt beam="2">  1        2 0.15120700E+00 0.35483057E+02</pdfrwt>
<totfact> 0.37238038E+01</totfact>
</mgrwt>
</event>
<event>
 5    1  0.2804411E-003  0.1454550E+03  0.7818608E-02  0.1206172E+00
         11   -1    0    0    0    0  0.00000000000E+00  0.00000000000E+00  0.10002251440E+04  0.10002251440E+04  0.51100000000E-03 0.  1.
          2   -1    0    0  501    0 -0.00000000000E+00 -0.00000000000E+00 -0.74018844795E+02  0.74018844839E+02  0.25500000000E-02 0.  1.
         11    1    1    2    0    0  0.23618543493E+01 -0.27117875698E+02  0.12820149131E+03  0.13105945183E+03  0.51100000000E-03 0.  1.
         22    1    1    2    0    0  0.14062900022E+03 -0.31969123537E+01  0.78380527301E+03  0.79632747155E+03  0.00000000000E+00 0.  1.
          2    1    1    2  501    0 -0.14299085457E+03  0.30314788052E+02  0.14199534837E+02  0.14685706541E+03  0.25500000000E-02 0.  1.
<mgrwt>
<rscale>  0 0.14545502E+03</rscale>
<asrwt>0</asrwt>
<pdfrwt beam="1">  1       11 0.10000000E+01 0.27220535E+02</pdfrwt>
<pdfrwt beam="2">  1        2 0.11390078E-01 0.14545502E+03</pdfrwt>
<totfact> 0.65145938E+02</totfact>
</mgrwt>
</event>
<event>
 5    1  0.2804411E-003  0.6544646E+03  0.7818608E-02  0.9798438E-01
         11   -1    0    0    0    0  0.00000000000E+00  0.00000000000E+00  0.10007508469E+04  0.10007508469E+04  0.51100000000E-03 0.  1.
          2   -1    0    0  501    0 -0.00000000000E+00 -0.00000000000E+00 -0.21669801803E+04  0.21669801803E+04  0.25500000000E-02 0.  1.
         11    1    1    2    0    0  0.31426090465E+03  0.56270324293E+03  0.82953722011E+03  0.10504888649E+04  0.51100000000E-03 0.  1.
         22    1    1    2    0    0  0.11558415487E+02  0.55338314496E+01  0.36016560720E+01  0.13311355511E+02  0.00000000000E+00 0. -1.
          2    1    1    2  501    0 -0.32581932013E+03 -0.56823707438E+03 -0.19993682096E+04  0.21039308067E+04  0.25500000000E-02 0.  1.
<mgrwt>
<rscale>  0 0.65446457E+03</rscale>
<asrwt>0</asrwt>
<pdfrwt beam="1">  1       11 0.10000000E+01 0.12814845E+02</pdfrwt>
<pdfrwt beam="2">  1        2 0.33363188E+00 0.65446457E+03</pdfrwt>
<totfact> 0.69377489E+00</totfact>
</mgrwt>
</event>
<event>
 5    1  0.2804411E-003  0.9571648E+02  0.7818608E-02  0.1380855E+00
         11   -1    0    0    0    0  0.00000000000E+00  0.00000000000E+00  0.10003605968E+04  0.10003605968E+04  0.51100000000E-03 0. -1.
          2   -1    0    0  501    0 -0.00000000000E+00 -0.00000000000E+00 -0.18117416677E+02  0.18117416857E+02  0.25500000000E-02 0. -1.
         11    1    1    2    0    0 -0.42637064816E+02 -0.99030761763E+02  0.47113981657E+03  0.48331949871E+03  0.51100000000E-03 0. -1.
         22    1    1    2    0    0  0.80452367209E+02  0.47100626626E+02  0.33390665978E+03  0.34667666473E+03  0.00000000000E+00 0.  1.
          2    1    1    2  501    0 -0.37815302393E+02  0.51930135137E+02  0.17719670376E+03  0.18848185021E+03  0.25500000000E-02 0. -1.
<mgrwt>
<rscale>  0 0.64239677E+02</rscale>
<asrwt>0</asrwt>
<pdfrwt beam="1">  1       11 0.10000000E+01 0.95716477E+02</pdfrwt>
<pdfrwt beam="2">  1        2 0.27882999E-02 0.64239677E+02</pdfrwt>
<totfact> 0.36536570E+03</totfact>
</mgrwt>
</event>
<event>
 5    1  0.2804411E-003  0.3397040E+03  0.7818608E-02  0.1066922E+00
         11   -1    0    0    0    0  0.00000000000E+00  0.00000000000E+00  0.10002049998E+04  0.10002049998E+04  0.51100000000E-03 0.  1.
          2   -1    0    0  501    0 -0.00000000000E+00 -0.00000000000E+00 -0.16144476975E+03  0.16144476978E+03  0.25500000000E-02 0.  1.
         11    1    1    2    0    0  0.31669317889E+03 -0.28213918697E+01  0.45672481717E+03  0.55578780882E+03  0.51100000000E-03 0.  1.
         22    1    1    2    0    0  0.34898898770E+02 -0.28961254416E+02  0.20684251238E+03  0.21175578462E+03  0.00000000000E+00 0.  1.
          2    1    1    2  501    0 -0.35159207766E+03  0.31782646285E+02  0.17519290050E+03  0.39410617614E+03  0.25500000000E-02 0.  1.
<mgrwt>
<rscale>  0 0.33970402E+03</rscale>
<asrwt>0</asrwt>
<pdfrwt beam="1">  1       11 0.10000000E+01 0.45350715E+02</pdfrwt>
<pdfrwt beam="2">  1        2 0.24842748E-01 0.33970402E+03</pdfrwt>
<totfact> 0.26904535E+02</totfact>
</mgrwt>
</event>
<event>
 5    1  0.2804411E-003  0.1850429E+03  0.7818608E-02  0.1259997E+00
         11   -1    0    0    0    0  0.00000000000E+00  0.00000000000E+00  0.10002100748E+04  0.10002100748E+04  0.51100000000E-03 0.  1.
          2   -1    0    0  501    0 -0.00000000000E+00 -0.00000000000E+00 -0.77454838237E+02  0.77454838279E+02  0.25500000000E-02 0.  1.
         11    1    1    2    0    0  0.25468487315E+03  0.60228432552E+02  0.43991125542E+03  0.51187279802E+03  0.51100000000E-03 0.  1.
         22    1    1    2    0    0 -0.15385126661E+03 -0.15496789929E+02  0.39688823246E+03  0.42594674762E+03  0.00000000000E+00 0.  1.
          2    1    1    2  501    0 -0.10083360654E+03 -0.44731642623E+02  0.85955748670E+02  0.13984536744E+03  0.25500000000E-02 0.  1.
<mgrwt>
<rscale>  0 0.11031018E+03</rscale>
<asrwt>0</asrwt>
<pdfrwt beam="1">  1       11 0.10000000E+01 0.18504292E+03</pdfrwt>
<pdfrwt beam="2">  1        2 0.11918632E-01 0.11031018E+03</pdfrwt>
<totfact> 0.60802965E+02</totfact>
</mgrwt>
</event>
<event>
 5    1  0.2804411E-003  0.7396278E+02  0.7818608E-02  0.1423245E+00
         11   -1    0    0    0    0  0.00000000000E+00  0.00000000000E+00  0.10000987515E+04  0.10000987515E+04  0.51100000000E-03 0.  1.
          2   -1    0    0  501    0 -0.00000000000E+00 -0.00000000000E+00 -0.57013134741E+02  0.57013134798E+02  0.25500000000E-02 0.  1.
         11    1    1    2    0    0 -0.89854194759E+02 -0.67746863645E+02  0.24433024625E+02  0.11515375175E+03  0.51100000000E-03 0.  1.
         22    1    1    2    0    0  0.33163769014E+02  0.22227722409E+02  0.29012231785E+02  0.49351968673E+02  0.00000000000E+00 0.  1.
          2    1    1    2  501    0  0.56690425746E+02  0.45519141236E+02  0.88964036037E+03  0.89260616590E+03  0.25500000000E-02 0.  1.
<mgrwt>
<rscale>  0 0.54340328E+02</rscale>
<asrwt>0</asrwt>
<pdfrwt beam="1">  1       11 0.10000000E+01 0.73962778E+02</pdfrwt>
<pdfrwt beam="2">  1        2 0.87721174E-02 0.54340328E+02</pdfrwt>
<totfact> 0.83904206E+02</totfact>
</mgrwt>
</event>
<event>
 5    1  0.2804411E-003  0.4746912E+02  0.7818608E-02  0.1471671E+00
         11   -1    0    0    0    0  0.00000000000E+00  0.00000000000E+00  0.10005007456E+04  0.10005007456E+04  0.51100000000E-03 0. -1.
         -2   -1    0    0    0  501 -0.00000000000E+00 -0.00000000000E+00 -0.61136961273E+01  0.61136966591E+01  0.25500000000E-02 0.  1.
         11    1    1    2    0    0  0.13066490435E+02 -0.88512009684E+01  0.24982549649E+02  0.29550037531E+02  0.51100000000E-03 0. -1.
         22    1    1    2    0    0  0.31075545021E+02 -0.18922205196E+01  0.71168783164E+02  0.77680536133E+02  0.00000000000E+00 0. -1.
         -2    1    1    2    0  501 -0.44142035456E+02  0.10743421488E+02  0.89823571664E+03  0.89938386857E+03  0.25500000000E-02 0.  1.
<mgrwt>
<rscale>  0 0.45430611E+02</rscale>
<asrwt>0</asrwt>
<pdfrwt beam="1">  1       11 0.10000000E+01 0.47469118E+02</pdfrwt>
<pdfrwt beam="2">  1       -2 0.94103963E-03 0.45430611E+02</pdfrwt>
<totfact> 0.13999059E+04</totfact>
</mgrwt>
</event>
<event>
 5    1  0.2804411E-003  0.2536907E+03  0.7818608E-02  0.1113639E+00
         11   -1    0    0    0    0  0.00000000000E+00  0.00000000000E+00  0.10002669553E+04  0.10002669553E+04  0.51100000000E-03 0. -1.
          2   -1    0    0  501    0 -0.00000000000E+00 -0.00000000000E+00 -0.57885190830E+03  0.57885190830E+03  0.25500000000E-02 0. -1.
         11    1    1    2    0    0  0.23667843415E+03  0.54590493064E+02  0.92840661962E+03  0.95965392433E+03  0.51100000000E-03 0. -1.
         22    1    1    2    0    0  0.80768019705E+01 -0.63106508156E+01  0.27647389539E+02  0.29486220376E+02  0.00000000000E+00 0.  1.
          2    1    1    2  501    0 -0.24475523612E+03 -0.48279842248E+02 -0.53463896221E+03  0.58997871885E+03  0.25500000000E-02 0. -1.
<mgrwt>
<rscale>  0 0.24947158E+03</rscale>
<asrwt>0</asrwt>
<pdfrwt beam="1">  1       11 0.10000000E+01 0.25369067E+03</pdfrwt>
<pdfrwt beam="2">  1        2 0.89077911E-01 0.24947158E+03</pdfrwt>
<totfact> 0.65705351E+01</totfact>
</mgrwt>
</event>
<event>
 5    1  0.2804411E-003  0.9960703E+02  0.7818608E-02  0.1281124E+00
         11   -1    0    0    0    0  0.00000000000E+00  0.00000000000E+00  0.10004444583E+04  0.10004444583E+04  0.51100000000E-03 0.  1.
          2   -1    0    0  501    0 -0.00000000000E+00 -0.00000000000E+00 -0.17497819220E+02  0.17497819406E+02  0.25500000000E-02 0.  1.
         11    1    1    2    0    0 -0.99401896257E+01  0.95052115411E+02  0.18381217848E+03  0.20717294459E+03  0.51100000000E-03 0.  1.
         22    1    1    2    0    0 -0.15006035724E+02  0.16555838905E+02  0.11695262443E+03  0.11906801952E+03  0.00000000000E+00 0.  1.
          2    1    1    2  501    0  0.24946225349E+02 -0.11160795432E+03  0.68218183614E+03  0.69170131357E+03  0.25500000000E-02 0.  1.
<mgrwt>
<rscale>  0 0.99607029E+02</rscale>
<asrwt>0</asrwt>
<pdfrwt beam="1">  1       11 0.10000000E+01 0.22344505E+02</pdfrwt>
<pdfrwt beam="2">  1        2 0.26931686E-02 0.99607029E+02</pdfrwt>
<totfact> 0.40325148E+03</totfact>
</mgrwt>
</event>
<event>
 5    1  0.2804411E-003  0.3010929E+02  0.7818608E-02  0.1642161E+00
         11   -1    0    0    0    0  0.00000000000E+00  0.00000000000E+00  0.10003873135E+04  0.10003873135E+04  0.51100000000E-03 0.  1.
          2   -1    0    0  501    0 -0.00000000000E+00 -0.00000000000E+00 -0.41406963674E+01  0.41406971526E+01  0.25500000000E-02 0.  1.
         11    1    1    2    0    0 -0.10046863153E+02  0.22271526421E+02  0.83669904196E+02  0.87164288656E+02  0.51100000000E-03 0.  1.
         22    1    1    2    0    0 -0.20218748950E+02 -0.11136915974E+02  0.61707014808E+02  0.65883111516E+02  0.00000000000E+00 0.  1.
          2    1    1    2  501    0  0.30265612103E+02 -0.11134610448E+02  0.85086969810E+03  0.85148061045E+03  0.25500000000E-02 0.  1.
<mgrwt>
<rscale>  0 0.26363135E+02</rscale>
<asrwt>0</asrwt>
<pdfrwt beam="1">  1       11 0.10000000E+01 0.30109289E+02</pdfrwt>
<pdfrwt beam="2">  1        2 0.63727698E-03 0.26363135E+02</pdfrwt>
<totfact> 0.21937897E+04</totfact>
</mgrwt>
</event>
<event>
 5    1  0.2804411E-003  0.1861779E+03  0.7818608E-02  0.1180655E+00
         11   -1    0    0    0    0  0.00000000000E+00  0.00000000000E+00  0.10001284647E+04  0.10001284647E+04  0.51100000000E-03 0. -1.
          2   -1    0    0  501    0 -0.00000000000E+00 -0.00000000000E+00 -0.39067345968E+02  0.39067346051E+02  0.25500000000E-02 0. -1.
         11    1    1    2    0    0 -0.62853777028E+02  0.19619526041E+02  0.19959244447E+03  0.21017294540E+03  0.51100000000E-03 0. -1.
         22    1    1    2    0    0 -0.98842511679E+02 -0.62695407359E+02  0.53374698030E+03  0.54643059504E+03  0.00000000000E+00 0. -1.
          2    1    1    2  501    0  0.16169628871E+03  0.43075881318E+02  0.22772169399E+03  0.28259227033E+03  0.25500000000E-02 0. -1.
<mgrwt>
<rscale>  0 0.16733565E+03</rscale>
<asrwt>0</asrwt>
<pdfrwt beam="1">  1       11 0.10000000E+01 0.18617789E+03</pdfrwt>
<pdfrwt beam="2">  1        2 0.60111329E-02 0.16733565E+03</pdfrwt>
<totfact> 0.14656055E+03</totfact>
</mgrwt>
</event>
<event>
 5    1  0.2804411E-003  0.1000753E+03  0.7818608E-02  0.1658763E+00
         11   -1    0    0    0    0  0.00000000000E+00  0.00000000000E+00  0.10000627699E+04  0.10000627699E+04  0.51100000000E-03 0. -1.
         -2   -1    0    0    0  501 -0.00000000000E+00 -0.00000000000E+00 -0.24912720850E+02  0.24912720980E+02  0.25500000000E-02 0. -1.
         11    1    1    2    0    0 -0.11341954564E+02 -0.10977796706E+03  0.63457706676E+03  0.64410239531E+03  0.51100000000E-03 0. -1.
         22    1    1    2    0    0  0.19944669311E+02  0.86138019875E+02  0.34427340111E+03  0.35544580883E+03  0.00000000000E+00 0.  1.
         -2    1    1    2    0  501 -0.86027147467E+01  0.23639947183E+02 -0.37004188428E+01  0.25427286720E+02  0.25500000000E-02 0. -1.
<mgrwt>
<rscale>  0 0.25156586E+02</rscale>
<asrwt>0</asrwt>
<pdfrwt beam="1">  1       11 0.10000000E+01 0.10007529E+03</pdfrwt>
<pdfrwt beam="2">  1       -2 0.38329668E-02 0.25156586E+02</pdfrwt>
<totfact> 0.17858672E+03</totfact>
</mgrwt>
</event>
<event>
 5    1  0.2804411E-003  0.2735330E+03  0.7818608E-02  0.1101167E+00
         11   -1    0    0    0    0  0.00000000000E+00  0.00000000000E+00  0.10001847880E+04  0.10001847880E+04  0.51100000000E-03 0. -1.
         -2   -1    0    0    0  501 -0.00000000000E+00 -0.00000000000E+00 -0.12301905321E+03  0.12301905323E+03  0.25500000000E-02 0. -1.
         11    1    1    2    0    0  0.16085072354E+03 -0.17839224772E+03  0.73644414815E+03  0.77462683446E+03  0.51100000000E-03 0. -1.
         22    1    1    2    0    0  0.25199219106E+02 -0.17546325172E+02  0.58630450810E+02  0.66184620062E+02  0.00000000000E+00 0. -1.
         -2    1    1    2    0  501 -0.18604994264E+03  0.19593857289E+03  0.82091135877E+02  0.28239238676E+03  0.25500000000E-02 0. -1.
<mgrwt>
<rscale>  0 0.27019716E+03</rscale>
<asrwt>0</asrwt>
<pdfrwt beam="1">  1       11 0.10000000E+01 0.27353297E+03</pdfrwt>
<pdfrwt beam="2">  1       -2 0.18929505E-01 0.27019716E+03</pdfrwt>
<totfact> 0.18546556E+02</totfact>
</mgrwt>
</event>
<event>
 5    1  0.2804411E-003  0.1236221E+03  0.7818608E-02  0.1240460E+00
         11   -1    0    0    0    0  0.00000000000E+00  0.00000000000E+00  0.10005206830E+04  0.10005206830E+04  0.51100000000E-03 0. -1.
         -2   -1    0    0    0  501 -0.00000000000E+00 -0.00000000000E+00 -0.17442377089E+02  0.17442377276E+02  0.25500000000E-02 0.  1.
         11    1    1    2    0    0 -0.18789431478E+02 -0.90343635690E+02  0.50516679884E+03  0.51352556888E+03  0.51100000000E-03 0. -1.
         22    1    1    2    0    0  0.64831049523E+01 -0.30644801449E+02  0.17923399698E+03  0.18195043330E+03  0.00000000000E+00 0.  1.
         -2    1    1    2    0  501  0.12306326525E+02  0.12098843714E+03  0.29867751005E+03  0.32248705805E+03  0.25500000000E-02 0.  1.
<mgrwt>
<rscale>  0 0.12161270E+03</rscale>
<asrwt>0</asrwt>
<pdfrwt beam="1">  1       11 0.10000000E+01 0.12362209E+03</pdfrwt>
<pdfrwt beam="2">  1       -2 0.26848398E-02 0.12161270E+03</pdfrwt>
<totfact> 0.36655867E+03</totfact>
</mgrwt>
</event>
<event>
 5    1  0.2804411E-003  0.5148634E+02  0.7818608E-02  0.1705883E+00
         11   -1    0    0    0    0  0.00000000000E+00  0.00000000000E+00  0.10001555843E+04  0.10001555843E+04  0.51100000000E-03 0.  1.
          2   -1    0    0  501    0 -0.00000000000E+00 -0.00000000000E+00 -0.23123024728E+02  0.23123024869E+02  0.25500000000E-02 0.  1.
         11    1    1    2    0    0 -0.29828838964E+02 -0.49930798455E+02  0.66086415039E+02  0.88035552598E+02  0.51100000000E-03 0.  1.
         22    1    1    2    0    0  0.35862814716E+02  0.28631417411E+02  0.31830502027E+02  0.55848727843E+02  0.00000000000E+00 0.  1.
          2    1    1    2  501    0 -0.60339757522E+01  0.21299381043E+02  0.87911564250E+03  0.87939432872E+03  0.25500000000E-02 0.  1.
<mgrwt>
<rscale>  0 0.22137581E+02</rscale>
<asrwt>0</asrwt>
<pdfrwt beam="1">  1       11 0.10000000E+01 0.51486344E+02</pdfrwt>
<pdfrwt beam="2">  1        2 0.35579418E-02 0.22137581E+02</pdfrwt>
<totfact> 0.23035500E+03</totfact>
</mgrwt>
</event>
<event>
 5    1  0.2804411E-003  0.6321531E+02  0.7818608E-02  0.1650206E+00
         11   -1    0    0    0    0  0.00000000000E+00  0.00000000000E+00  0.10000300130E+04  0.10000300130E+04  0.51100000000E-03 0.  1.
          2   -1    0    0  501    0 -0.00000000000E+00 -0.00000000000E+00 -0.15891780887E+02  0.15891781091E+02  0.25500000000E-02 0.  1.
         11    1    1    2    0    0 -0.45625130956E+02  0.45785403072E+02  0.64400881693E+02  0.91243790322E+02  0.51100000000E-03 0.  1.
         22    1    1    2    0    0 -0.56271881530E+01 -0.88693759533E+01  0.18849173463E+02  0.21578285765E+02  0.00000000000E+00 0.  1.
          2    1    1    2  501    0  0.51252319109E+02 -0.36916027118E+02  0.90088817692E+03  0.90309971797E+03  0.25500000000E-02 0.  1.
<mgrwt>
<rscale>  0 0.25768285E+02</rscale>
<asrwt>0</asrwt>
<pdfrwt beam="1">  1       11 0.10000000E+01 0.63215315E+02</pdfrwt>
<pdfrwt beam="2">  1        2 0.24449627E-02 0.25768285E+02</pdfrwt>
<totfact> 0.37920723E+03</totfact>
</mgrwt>
</event>
<event>
 5    1  0.2804411E-003  0.1372327E+03  0.7818608E-02  0.1220627E+00
         11   -1    0    0    0    0  0.00000000000E+00  0.00000000000E+00  0.10002561928E+04  0.10002561928E+04  0.51100000000E-03 0. -1.
          2   -1    0    0  501    0 -0.00000000000E+00 -0.00000000000E+00 -0.29562522454E+02  0.29562522564E+02  0.25500000000E-02 0. -1.
         11    1    1    2    0    0  0.23556091514E+02 -0.12254940711E+03  0.14713361882E+03  0.19292886880E+03  0.51100000000E-03 0. -1.
         22    1    1    2    0    0  0.52294432372E+01 -0.90507134673E+01  0.25819887368E+02  0.27855503487E+02  0.00000000000E+00 0.  1.
          2    1    1    2  501    0 -0.28785534751E+02  0.13160012058E+03  0.79774016415E+03  0.80903434306E+03  0.25500000000E-02 0. -1.
<mgrwt>
<rscale>  0 0.13471154E+03</rscale>
<asrwt>0</asrwt>
<pdfrwt beam="1">  1       11 0.10000000E+01 0.13723274E+03</pdfrwt>
<pdfrwt beam="2">  1        2 0.45492454E-02 0.13471154E+03</pdfrwt>
<totfact> 0.20726615E+03</totfact>
</mgrwt>
</event>
<event>
 5    1  0.2804411E-003  0.2045388E+03  0.7818608E-02  0.1148822E+00
         11   -1    0    0    0    0  0.00000000000E+00  0.00000000000E+00  0.10005560649E+04  0.10005560649E+04  0.51100000000E-03 0. -1.
          2   -1    0    0  501    0 -0.00000000000E+00 -0.00000000000E+00 -0.56076589074E+03  0.56076589075E+03  0.25500000000E-02 0.  1.
         11    1    1    2    0    0 -0.11975785899E+03 -0.10464435907E+03  0.76562787873E+03  0.78197086606E+03  0.51100000000E-03 0. -1.
         22    1    1    2    0    0 -0.43687629872E+02 -0.12500928573E+02  0.20590264307E+03  0.21085725182E+03  0.00000000000E+00 0. -1.
          2    1    1    2  501    0  0.16344548886E+03  0.11714528764E+03 -0.53174034766E+03  0.56849383777E+03  0.25500000000E-02 0.  1.
<mgrwt>
<rscale>  0 0.20109064E+03</rscale>
<asrwt>0</asrwt>
<pdfrwt beam="1">  1       11 0.10000000E+01 0.20453879E+03</pdfrwt>
<pdfrwt beam="2">  1        2 0.86319646E-01 0.20109064E+03</pdfrwt>
<totfact> 0.68426292E+01</totfact>
</mgrwt>
</event>
<event>
 5    1  0.2804411E-003  0.3581529E+03  0.7818608E-02  0.1060780E+00
         11   -1    0    0    0    0  0.00000000000E+00  0.00000000000E+00  0.99981132246E+03  0.99981132246E+03  0.51100000000E-03 0. -1.
          2   -1    0    0  501    0 -0.00000000000E+00 -0.00000000000E+00 -0.14762544705E+03  0.14762544708E+03  0.25500000000E-02 0. -1.
         11    1    1    2    0    0  0.85768214476E+01 -0.27870419786E+02  0.36313393704E+02  0.46572360127E+02  0.51100000000E-03 0. -1.
         22    1    1    2    0    0 -0.34881454892E+02 -0.32566062782E+03  0.60612228079E+03  0.68895266868E+03  0.00000000000E+00 0. -1.
          2    1    1    2  501    0  0.26304633444E+02  0.35353104761E+03  0.20975020091E+03  0.41191174073E+03  0.25500000000E-02 0. -1.
<mgrwt>
<rscale>  0 0.35450830E+03</rscale>
<asrwt>0</asrwt>
<pdfrwt beam="1">  1       11 0.10000000E+01 0.35815286E+03</pdfrwt>
<pdfrwt beam="2">  1        2 0.22707321E-01 0.35450830E+03</pdfrwt>
<totfact> 0.29825229E+02</totfact>
</mgrwt>
</event>
<event>
 5    1  0.2804411E-003  0.3319035E+02  0.7818608E-02  0.1587732E+00
         11   -1    0    0    0    0  0.00000000000E+00  0.00000000000E+00  0.10004237954E+04  0.10004237954E+04  0.51100000000E-03 0.  1.
          2   -1    0    0  501    0 -0.00000000000E+00 -0.00000000000E+00 -0.21967683354E+01  0.21967698154E+01  0.25500000000E-02 0.  1.
         11    1    1    2    0    0 -0.59130646461E+01  0.15913904124E+02  0.60053625824E+02  0.62407168281E+02  0.51100000000E-03 0.  1.
         22    1    1    2    0    0  0.43515239871E+01  0.15004958314E+02  0.81682929282E+02  0.83163606650E+02  0.00000000000E+00 0.  1.
          2    1    1    2  501    0  0.15615406590E+01 -0.30918862438E+02  0.85649047192E+03  0.85704979025E+03  0.25500000000E-02 0.  1.
<mgrwt>
<rscale>  0 0.30958270E+02</rscale>
<asrwt>0</asrwt>
<pdfrwt beam="1">  1       11 0.10000000E+01 0.33190352E+02</pdfrwt>
<pdfrwt beam="2">  1        2 0.33810769E-03 0.30958270E+02</pdfrwt>
<totfact> 0.52904215E+04</totfact>
</mgrwt>
</event>
<event>
 5    1  0.2804411E-003  0.8668752E+02  0.7818608E-02  0.1315236E+00
         11   -1    0    0    0    0  0.00000000000E+00  0.00000000000E+00  0.10001570112E+04  0.10001570112E+04  0.51100000000E-03 0. -1.
          2   -1    0    0  501    0 -0.00000000000E+00 -0.00000000000E+00 -0.73976320877E+01  0.73976325271E+01  0.25500000000E-02 0. -1.
         11    1    1    2    0    0 -0.23268836059E+02  0.72369455447E+02  0.42701258762E+03  0.43372632707E+03  0.51100000000E-03 0. -1.
         22    1    1    2    0    0  0.24405129876E+01  0.10116583259E+02  0.45804758287E+02  0.46972090035E+02  0.00000000000E+00 0.  1.
          2    1    1    2  501    0  0.20828323072E+02 -0.82486038706E+02  0.51994203317E+03  0.52685622658E+03  0.25500000000E-02 0. -1.
<mgrwt>
<rscale>  0 0.85075059E+02</rscale>
<asrwt>0</asrwt>
<pdfrwt beam="1">  1       11 0.10000000E+01 0.86687517E+02</pdfrwt>
<pdfrwt beam="2">  1        2 0.11382759E-02 0.85075059E+02</pdfrwt>
<totfact> 0.12659087E+04</totfact>
</mgrwt>
</event>
<event>
 5    1  0.2804411E-003  0.2092068E+03  0.7818608E-02  0.1142196E+00
         11   -1    0    0    0    0  0.00000000000E+00  0.00000000000E+00  0.10005613351E+04  0.10005613351E+04  0.51100000000E-03 0. -1.
          2   -1    0    0  501    0 -0.00000000000E+00 -0.00000000000E+00 -0.11049780530E+03  0.11049780533E+03  0.25500000000E-02 0. -1.
         11    1    1    2    0    0  0.11828838346E+03 -0.10196447682E+03  0.23693900180E+03  0.28377629705E+03  0.51100000000E-03 0. -1.
         22    1    1    2    0    0 -0.22318593401E+03 -0.83793237693E+02  0.52957141768E+03  0.58075739707E+03  0.00000000000E+00 0. -1.
          2    1    1    2  501    0  0.10489755056E+03  0.18575771451E+03  0.12355311034E+03  0.24652544634E+03  0.25500000000E-02 0. -1.
<mgrwt>
<rscale>  0 0.20920684E+03</rscale>
<asrwt>0</asrwt>
<pdfrwt beam="1">  1       11 0.10000000E+01 0.15616945E+03</pdfrwt>
<pdfrwt beam="2">  1        2 0.17009204E-01 0.20920684E+03</pdfrwt>
<totfact> 0.41054093E+02</totfact>
</mgrwt>
</event>
<event>
 5    1  0.2804411E-003  0.1778724E+03  0.7818608E-02  0.1170817E+00
         11   -1    0    0    0    0  0.00000000000E+00  0.00000000000E+00  0.10001703017E+04  0.10001703017E+04  0.51100000000E-03 0.  1.
          2   -1    0    0  501    0 -0.00000000000E+00 -0.00000000000E+00 -0.14113449110E+03  0.14113449112E+03  0.25500000000E-02 0.  1.
         11    1    1    2    0    0 -0.74217533134E+02  0.14891928029E+03  0.87866352799E+03  0.89427892164E+03  0.51100000000E-03 0.  1.
         22    1    1    2    0    0 -0.58790518380E+00  0.11408500024E+02  0.54147619784E+02  0.55339535899E+02  0.00000000000E+00 0. -1.
          2    1    1    2  501    0  0.74805438318E+02 -0.16032778032E+03 -0.73775337193E+02  0.19168633526E+03  0.25500000000E-02 0.  1.
<mgrwt>
<rscale>  0 0.17692046E+03</rscale>
<asrwt>0</asrwt>
<pdfrwt beam="1">  1       11 0.10000000E+01 0.17787236E+03</pdfrwt>
<pdfrwt beam="2">  1        2 0.21716696E-01 0.17692046E+03</pdfrwt>
<totfact> 0.30858258E+02</totfact>
</mgrwt>
</event>
<event>
 5    1  0.2804411E-003  0.2690095E+02  0.7818608E-02  0.1663223E+00
         11   -1    0    0    0    0  0.00000000000E+00  0.00000000000E+00  0.10002527408E+04  0.10002527408E+04  0.51100000000E-03 0.  1.
          2   -1    0    0  501    0 -0.00000000000E+00 -0.00000000000E+00 -0.57485301041E+01  0.57485306697E+01  0.25500000000E-02 0.  1.
         11    1    1    2    0    0  0.78750572900E+01 -0.12383249185E+02  0.83560481078E+01  0.16887419221E+02  0.51100000000E-03 0.  1.
         22    1    1    2    0    0  0.42923661275E+01 -0.92796214939E+01  0.18424302807E+02  0.21071087204E+02  0.00000000000E+00 0.  1.
          2    1    1    2  501    0 -0.12167423418E+02  0.21662870679E+02  0.96772385975E+03  0.96804276501E+03  0.25500000000E-02 0.  1.
<mgrwt>
<rscale>  0 0.24846049E+02</rscale>
<asrwt>0</asrwt>
<pdfrwt beam="1">  1       11 0.10000000E+01 0.26900948E+02</pdfrwt>
<pdfrwt beam="2">  1        2 0.88461279E-03 0.24846049E+02</pdfrwt>
<totfact> 0.14062419E+04</totfact>
</mgrwt>
</event>
<event>
 5    1  0.2804411E-003  0.2310480E+03  0.7818608E-02  0.1143144E+00
         11   -1    0    0    0    0  0.00000000000E+00  0.00000000000E+00  0.10001229404E+04  0.10001229404E+04  0.51100000000E-03 0. -1.
          2   -1    0    0  501    0 -0.00000000000E+00 -0.00000000000E+00 -0.69208601294E+02  0.69208601341E+02  0.25500000000E-02 0. -1.
         11    1    1    2    0    0  0.21804317210E+02 -0.12892958905E+03  0.33153620099E+03  0.35639096474E+03  0.51100000000E-03 0. -1.
         22    1    1    2    0    0 -0.42418562476E+02 -0.78065909193E+02  0.44529156113E+03  0.45406849157E+03  0.00000000000E+00 0. -1.
          2    1    1    2  501    0  0.20614245266E+02  0.20699549824E+03  0.15408657696E+03  0.25887208541E+03  0.25500000000E-02 0. -1.
<mgrwt>
<rscale>  0 0.20801943E+03</rscale>
<asrwt>0</asrwt>
<pdfrwt beam="1">  1       11 0.10000000E+01 0.23104796E+03</pdfrwt>
<pdfrwt beam="2">  1        2 0.10648786E-01 0.20801943E+03</pdfrwt>
<totfact> 0.72001787E+02</totfact>
</mgrwt>
</event>
<event>
 5    1  0.2804411E-003  0.5303715E+02  0.7818608E-02  0.1669213E+00
         11   -1    0    0    0    0  0.00000000000E+00  0.00000000000E+00  0.99986426149E+03  0.99986426149E+03  0.51100000000E-03 0. -1.
          2   -1    0    0  501    0 -0.00000000000E+00 -0.00000000000E+00 -0.86164874691E+01  0.86164878464E+01  0.25500000000E-02 0. -1.
         11    1    1    2    0    0  0.58523279095E+02 -0.16325835209E+02  0.17182101817E+03  0.18224700101E+03  0.51100000000E-03 0. -1.
         22    1    1    2    0    0 -0.10652983024E+02 -0.36471832530E+01  0.97424603317E+01  0.14889712096E+02  0.00000000000E+00 0. -1.
          2    1    1    2  501    0 -0.47870296072E+02  0.19973018462E+02  0.80968429552E+03  0.81134403623E+03  0.25500000000E-02 0. -1.
<mgrwt>
<rscale>  0 0.24437655E+02</rscale>
<asrwt>0</asrwt>
<pdfrwt beam="1">  1       11 0.10000000E+01 0.53037153E+02</pdfrwt>
<pdfrwt beam="2">  1        2 0.13254335E-02 0.24437655E+02</pdfrwt>
<totfact> 0.82691032E+03</totfact>
</mgrwt>
</event>
<event>
 5    1  0.2804411E-003  0.1475994E+03  0.7818608E-02  0.1206601E+00
         11   -1    0    0    0    0  0.00000000000E+00  0.00000000000E+00  0.10001773892E+04  0.10001773892E+04  0.51100000000E-03 0. -1.
         -2   -1    0    0    0  501 -0.00000000000E+00 -0.00000000000E+00 -0.31504143110E+02  0.31504143213E+02  0.25500000000E-02 0.  1.
         11    1    1    2    0    0 -0.89741596770E+02 -0.94651046326E+02  0.73450360725E+03  0.74599458699E+03  0.51100000000E-03 0. -1.
         22    1    1    2    0    0 -0.94757203643E+01 -0.11253042171E+02  0.44498043928E+02  0.46866791526E+02  0.00000000000E+00 0. -1.
         -2    1    1    2    0  501  0.99217317135E+02  0.10590408850E+03  0.18967159489E+03  0.23882015387E+03  0.25500000000E-02 0.  1.
<mgrwt>
<rscale>  0 0.14511978E+03</rscale>
<asrwt>0</asrwt>
<pdfrwt beam="1">  1       11 0.10000000E+01 0.14759943E+03</pdfrwt>
<pdfrwt beam="2">  1       -2 0.48476509E-02 0.14511978E+03</pdfrwt>
<totfact> 0.15565140E+03</totfact>
</mgrwt>
</event>
<event>
 5    1  0.2804411E-003  0.9996883E+02  0.7818608E-02  0.1284417E+00
         11   -1    0    0    0    0  0.00000000000E+00  0.00000000000E+00  0.99998673720E+03  0.99998673720E+03  0.51100000000E-03 0.  1.
          2   -1    0    0  501    0 -0.00000000000E+00 -0.00000000000E+00 -0.11869404755E+02  0.11869405029E+02  0.25500000000E-02 0.  1.
         11    1    1    2    0    0 -0.30032735142E+01  0.84397909208E+02  0.26401122794E+03  0.27718938509E+03  0.51100000000E-03 0.  1.
         22    1    1    2    0    0 -0.57533890739E-01  0.13619884342E+02  0.22959194101E+02  0.26695114786E+02  0.00000000000E+00 0. -1.
          2    1    1    2  501    0  0.30608074049E+01 -0.98017793549E+02  0.70114691040E+03  0.70797164235E+03  0.25500000000E-02 0.  1.
<mgrwt>
<rscale>  0 0.98065572E+02</rscale>
<asrwt>0</asrwt>
<pdfrwt beam="1">  1       11 0.10000000E+01 0.99968826E+02</pdfrwt>
<pdfrwt beam="2">  1        2 0.18260380E-02 0.98065572E+02</pdfrwt>
<totfact> 0.67932555E+03</totfact>
</mgrwt>
</event>
<event>
 5    1  0.2804411E-003  0.3026857E+03  0.7818608E-02  0.1089555E+00
         11   -1    0    0    0    0  0.00000000000E+00  0.00000000000E+00  0.10004282253E+04  0.10004282253E+04  0.51100000000E-03 0. -1.
          2   -1    0    0  501    0 -0.00000000000E+00 -0.00000000000E+00 -0.29036936476E+03  0.29036936477E+03  0.25500000000E-02 0.  1.
         11    1    1    2    0    0  0.18430322001E+03  0.14076768178E+03  0.78185576820E+03  0.81552538858E+03  0.51100000000E-03 0. -1.
         22    1    1    2    0    0  0.59751580314E+02  0.18684219727E+02  0.11365589390E+03  0.12975751860E+03  0.00000000000E+00 0.  1.
          2    1    1    2  501    0 -0.24405480032E+03 -0.15945190151E+03 -0.18545280158E+03  0.34551468286E+03  0.25500000000E-02 0.  1.
<mgrwt>
<rscale>  0 0.29152642E+03</rscale>
<asrwt>0</asrwt>
<pdfrwt beam="1">  1       11 0.10000000E+01 0.30268571E+03</pdfrwt>
<pdfrwt beam="2">  1        2 0.44691338E-01 0.29152642E+03</pdfrwt>
<totfact> 0.14054766E+02</totfact>
</mgrwt>
</event>
<event>
 5    1  0.2804411E-003  0.1230049E+03  0.7818608E-02  0.1238221E+00
         11   -1    0    0    0    0  0.00000000000E+00  0.00000000000E+00  0.10001062983E+04  0.10001062983E+04  0.51100000000E-03 0. -1.
          2   -1    0    0  501    0 -0.00000000000E+00 -0.00000000000E+00 -0.62559540661E+03  0.62559540662E+03  0.25500000000E-02 0. -1.
         11    1    1    2    0    0 -0.17593583623E+02 -0.95968876505E+02  0.53034817169E+03  0.53924831261E+03  0.51100000000E-03 0. -1.
         22    1    1    2    0    0 -0.82517162701E+02  0.23462442993E+02  0.45511101180E+03  0.46312590236E+03  0.00000000000E+00 0. -1.
          2    1    1    2  501    0  0.10011074632E+03  0.72506433512E+02 -0.61094829182E+03  0.62332748994E+03  0.25500000000E-02 0. -1.
<mgrwt>
<rscale>  0 0.12300490E+03</rscale>
<asrwt>0</asrwt>
<pdfrwt beam="1">  1       11 0.10000000E+01 0.85787927E+02</pdfrwt>
<pdfrwt beam="2">  1        2 0.96255675E-01 0.12300490E+03</pdfrwt>
<totfact> 0.61093346E+01</totfact>
</mgrwt>
</event>
<event>
 5    1  0.2804411E-003  0.4266021E+03  0.7818608E-02  0.1036123E+00
         11   -1    0    0    0    0  0.00000000000E+00  0.00000000000E+00  0.10003018981E+04  0.10003018981E+04  0.51100000000E-03 0.  1.
          2   -1    0    0  501    0 -0.00000000000E+00 -0.00000000000E+00 -0.29500428859E+03  0.29500428860E+03  0.25500000000E-02 0.  1.
         11    1    1    2    0    0  0.90230901846E+00 -0.37766809274E+03  0.63571954860E+03  0.73944123966E+03  0.51100000000E-03 0.  1.
         22    1    1    2    0    0  0.26898419829E+01 -0.45228141426E+02  0.12159929031E+03  0.12976597178E+03  0.00000000000E+00 0. -1.
          2    1    1    2  501    0 -0.35921510014E+01  0.42289623416E+03 -0.52021229393E+02  0.42609897528E+03  0.25500000000E-02 0.  1.
<mgrwt>
<rscale>  0 0.42291149E+03</rscale>
<asrwt>0</asrwt>
<pdfrwt beam="1">  1       11 0.10000000E+01 0.42660210E+03</pdfrwt>
<pdfrwt beam="2">  1        2 0.45398976E-01 0.42291149E+03</pdfrwt>
<totfact> 0.13821896E+02</totfact>
</mgrwt>
</event>
<event>
 5    1  0.2804411E-003  0.4130024E+03  0.7818608E-02  0.1250288E+00
         11   -1    0    0    0    0  0.00000000000E+00  0.00000000000E+00  0.10005905951E+04  0.10005905951E+04  0.51100000000E-03 0. -1.
          2   -1    0    0  501    0 -0.00000000000E+00 -0.00000000000E+00 -0.10489989033E+04  0.10489989033E+04  0.25500000000E-02 0. -1.
         11    1    1    2    0    0 -0.28021502837E+03  0.27564432666E+03  0.68617140997E+03  0.79077902148E+03  0.51100000000E-03 0. -1.
         22    1    1    2    0    0  0.36548035814E+03 -0.35391628591E+03  0.64491506162E+01  0.50879683682E+03  0.00000000000E+00 0. -1.
          2    1    1    2  501    0 -0.85265329770E+02  0.78271959249E+02 -0.74102886870E+03  0.75001364009E+03  0.25500000000E-02 0. -1.
<mgrwt>
<rscale>  0 0.11574401E+03</rscale>
<asrwt>0</asrwt>
<pdfrwt beam="1">  1       11 0.10000000E+01 0.41300237E+03</pdfrwt>
<pdfrwt beam="2">  1        2 0.16147975E+00 0.11574401E+03</pdfrwt>
<totfact> 0.32023953E+01</totfact>
</mgrwt>
</event>
<event>
 5    1  0.2804411E-003  0.6080300E+02  0.7818608E-02  0.1403318E+00
         11   -1    0    0    0    0  0.00000000000E+00  0.00000000000E+00  0.10001202858E+04  0.10001202858E+04  0.51100000000E-03 0. -1.
          2   -1    0    0  501    0 -0.00000000000E+00 -0.00000000000E+00 -0.75994912418E+01  0.75994916696E+01  0.25500000000E-02 0. -1.
         11    1    1    2    0    0 -0.81224701205E+01  0.17380854261E+02  0.27933726423E+02  0.33887485711E+02  0.51100000000E-03 0. -1.
         22    1    1    2    0    0 -0.23390737986E+02  0.32157022092E+02  0.10556069050E+03  0.11280186201E+03  0.00000000000E+00 0. -1.
          2    1    1    2  501    0  0.31513208107E+02 -0.49537876353E+02  0.85902637766E+03  0.86103042978E+03  0.25500000000E-02 0. -1.
<mgrwt>
<rscale>  0 0.58711868E+02</rscale>
<asrwt>0</asrwt>
<pdfrwt beam="1">  1       11 0.10000000E+01 0.60803005E+02</pdfrwt>
<pdfrwt beam="2">  1        2 0.11692931E-02 0.58711868E+02</pdfrwt>
<totfact> 0.11493972E+04</totfact>
</mgrwt>
</event>
<event>
 5    1  0.2804411E-003  0.1953947E+03  0.7818608E-02  0.1153684E+00
         11   -1    0    0    0    0  0.00000000000E+00  0.00000000000E+00  0.10001714512E+04  0.10001714512E+04  0.51100000000E-03 0.  1.
          2   -1    0    0  501    0 -0.00000000000E+00 -0.00000000000E+00 -0.84786700963E+02  0.84786701001E+02  0.25500000000E-02 0. -1.
         11    1    1    2    0    0  0.11658717911E+03  0.45490966534E+02  0.17104842611E+03  0.21194235642E+03  0.51100000000E-03 0.  1.
         22    1    1    2    0    0 -0.13495811847E+02  0.14884479851E+03  0.57858083117E+03  0.59757232967E+03  0.00000000000E+00 0.  1.
          2    1    1    2  501    0 -0.10309136727E+03 -0.19433576504E+03  0.16575549298E+03  0.27544346614E+03  0.25500000000E-02 0. -1.
<mgrwt>
<rscale>  0 0.19539467E+03</rscale>
<asrwt>0</asrwt>
<pdfrwt beam="1">  1       11 0.10000000E+01 0.12514797E+03</pdfrwt>
<pdfrwt beam="2">  1        2 0.13046344E-01 0.19539467E+03</pdfrwt>
<totfact> 0.56067840E+02</totfact>
</mgrwt>
</event>
<event>
 5    1  0.2804411E-003  0.1477270E+03  0.7818608E-02  0.1215479E+00
         11   -1    0    0    0    0  0.00000000000E+00  0.00000000000E+00  0.10001569560E+04  0.10001569560E+04  0.51100000000E-03 0. -1.
         -2   -1    0    0    0  501 -0.00000000000E+00 -0.00000000000E+00 -0.29017579195E+02  0.29017579307E+02  0.25500000000E-02 0.  1.
         11    1    1    2    0    0  0.19148863366E+02  0.21981418525E+02  0.11166305198E+03  0.11540580101E+03  0.51100000000E-03 0. -1.
         22    1    1    2    0    0 -0.11731820645E+02  0.11623350466E+03  0.66430189256E+03  0.67449601013E+03  0.00000000000E+00 0. -1.
         -2    1    1    2    0  501 -0.74170427209E+01 -0.13821492319E+03  0.19517443225E+03  0.23927272416E+03  0.25500000000E-02 0.  1.
<mgrwt>
<rscale>  0 0.13841379E+03</rscale>
<asrwt>0</asrwt>
<pdfrwt beam="1">  1       11 0.10000000E+01 0.14772703E+03</pdfrwt>
<pdfrwt beam="2">  1       -2 0.44649435E-02 0.13841379E+03</pdfrwt>
<totfact> 0.17531924E+03</totfact>
</mgrwt>
</event>
<event>
 5    1  0.2804411E-003  0.3268870E+03  0.7818608E-02  0.1077059E+00
         11   -1    0    0    0    0  0.00000000000E+00  0.00000000000E+00  0.10001895651E+04  0.10001895651E+04  0.51100000000E-03 0.  1.
          2   -1    0    0  501    0 -0.00000000000E+00 -0.00000000000E+00 -0.13966986427E+03  0.13966986430E+03  0.25500000000E-02 0.  1.
         11    1    1    2    0    0 -0.87349588160E+02  0.11943439978E+03  0.28973032646E+03  0.32532781693E+03  0.51100000000E-03 0.  1.
         22    1    1    2    0    0 -0.15664006316E+03  0.82877939661E+02  0.43500057680E+03  0.46971306570E+03  0.00000000000E+00 0.  1.
          2    1    1    2  501    0  0.24398965132E+03 -0.20231233944E+03  0.13578879757E+03  0.34481854677E+03  0.25500000000E-02 0.  1.
<mgrwt>
<rscale>  0 0.31695620E+03</rscale>
<asrwt>0</asrwt>
<pdfrwt beam="1">  1       11 0.10000000E+01 0.32688702E+03</pdfrwt>
<pdfrwt beam="2">  1        2 0.21491744E-01 0.31695620E+03</pdfrwt>
<totfact> 0.31687701E+02</totfact>
</mgrwt>
</event>
<event>
 5    1  0.2804411E-003  0.7906765E+02  0.7818608E-02  0.1451859E+00
         11   -1    0    0    0    0  0.00000000000E+00  0.00000000000E+00  0.10003522883E+04  0.10003522883E+04  0.51100000000E-03 0.  1.
          2   -1    0    0  501    0 -0.00000000000E+00 -0.00000000000E+00 -0.12523044530E+02  0.12523044790E+02  0.25500000000E-02 0.  1.
         11    1    1    2    0    0 -0.41620922907E+02  0.54188835038E+02  0.14136990655E+03  0.15701650087E+03  0.51100000000E-03 0.  1.
         22    1    1    2    0    0 -0.28575989799E+02 -0.95619182343E+01  0.91574867014E+02  0.96405257854E+02  0.00000000000E+00 0. -1.
          2    1    1    2  501    0  0.70196912706E+02 -0.44626916804E+02  0.75488447023E+03  0.75945357439E+03  0.25500000000E-02 0.  1.
<mgrwt>
<rscale>  0 0.48811579E+02</rscale>
<asrwt>0</asrwt>
<pdfrwt beam="1">  1       11 0.10000000E+01 0.79067650E+02</pdfrwt>
<pdfrwt beam="2">  1        2 0.19273009E-02 0.48811579E+02</pdfrwt>
<totfact> 0.57255012E+03</totfact>
</mgrwt>
</event>
<event>
 5    1  0.2804411E-003  0.1943654E+03  0.7818608E-02  0.1160186E+00
         11   -1    0    0    0    0  0.00000000000E+00  0.00000000000E+00  0.10000204723E+04  0.10000204723E+04  0.51100000000E-03 0. -1.
          2   -1    0    0  501    0 -0.00000000000E+00 -0.00000000000E+00 -0.49891481409E+02  0.49891481474E+02  0.25500000000E-02 0. -1.
         11    1    1    2    0    0 -0.15323141536E+03 -0.86703013227E+02  0.65611947722E+03  0.67933058782E+03  0.51100000000E-03 0. -1.
         22    1    1    2    0    0 -0.39913654181E+01 -0.16557516677E+02  0.95889897462E+02  0.97390732576E+02  0.00000000000E+00 0. -1.
          2    1    1    2  501    0  0.15722278078E+03  0.10326052990E+03  0.19811961620E+03  0.27319063337E+03  0.25500000000E-02 0. -1.
<mgrwt>
<rscale>  0 0.18810035E+03</rscale>
<asrwt>0</asrwt>
<pdfrwt beam="1">  1       11 0.10000000E+01 0.19436540E+03</pdfrwt>
<pdfrwt beam="2">  1        2 0.76757694E-02 0.18810035E+03</pdfrwt>
<totfact> 0.10791627E+03</totfact>
</mgrwt>
</event>
<event>
 5    1  0.2804411E-003  0.1588950E+03  0.7818608E-02  0.1197890E+00
         11   -1    0    0    0    0  0.00000000000E+00  0.00000000000E+00  0.10003270747E+04  0.10003270747E+04  0.51100000000E-03 0.  1.
          2   -1    0    0  501    0 -0.00000000000E+00 -0.00000000000E+00 -0.26434133316E+02  0.26434133439E+02  0.25500000000E-02 0.  1.
         11    1    1    2    0    0  0.21381264166E+02  0.10074173369E+03  0.38573379658E+03  0.39924505907E+03  0.51100000000E-03 0.  1.
         22    1    1    2    0    0 -0.19520974012E+02  0.51368818457E+02  0.26096065391E+03  0.26668387057E+03  0.00000000000E+00 0. -1.
          2    1    1    2  501    0 -0.18602901541E+01 -0.15211055215E+03  0.32719849089E+03  0.36083227849E+03  0.25500000000E-02 0.  1.
<mgrwt>
<rscale>  0 0.15212193E+03</rscale>
<asrwt>0</asrwt>
<pdfrwt beam="1">  1       11 0.10000000E+01 0.15889502E+03</pdfrwt>
<pdfrwt beam="2">  1        2 0.40681198E-02 0.15212193E+03</pdfrwt>
<totfact> 0.24277360E+03</totfact>
</mgrwt>
</event>
<event>
 5    1  0.2804411E-003  0.2609827E+03  0.7818608E-02  0.1297404E+00
         11   -1    0    0    0    0  0.00000000000E+00  0.00000000000E+00  0.10004069681E+04  0.10004069681E+04  0.51100000000E-03 0.  1.
         -2   -1    0    0    0  501 -0.00000000000E+00 -0.00000000000E+00 -0.11891659023E+03  0.11891659026E+03  0.25500000000E-02 0.  1.
         11    1    1    2    0    0  0.28402240648E+03 -0.86691347016E+02  0.54123179518E+03  0.61734591045E+03  0.51100000000E-03 0.  1.
         22    1    1    2    0    0 -0.19777705263E+03  0.11953648533E+03  0.33826510713E+03  0.40966817862E+03  0.00000000000E+00 0.  1.
         -2    1    1    2    0  501 -0.86245353851E+02 -0.32845138311E+02  0.19934755692E+01  0.92309469302E+02  0.25500000000E-02 0.  1.
<mgrwt>
<rscale>  0 0.92287942E+02</rscale>
<asrwt>0</asrwt>
<pdfrwt beam="1">  1       11 0.10000000E+01 0.26098272E+03</pdfrwt>
<pdfrwt beam="2">  1       -2 0.18302305E-01 0.92287942E+02</pdfrwt>
<totfact> 0.18903850E+02</totfact>
</mgrwt>
</event>
<event>
 5    1  0.2804411E-003  0.1154557E+03  0.7818608E-02  0.1262021E+00
         11   -1    0    0    0    0  0.00000000000E+00  0.00000000000E+00  0.10002385869E+04  0.10002385869E+04  0.51100000000E-03 0. -1.
         -2   -1    0    0    0  501 -0.00000000000E+00 -0.00000000000E+00 -0.12706429619E+02  0.12706429875E+02  0.25500000000E-02 0.  1.
         11    1    1    2    0    0  0.69498745050E+02  0.53703455352E+02  0.42426072553E+03  0.43325662131E+03  0.51100000000E-03 0. -1.
         22    1    1    2    0    0  0.27393065733E+02 -0.32953018630E+01  0.12563889983E+03  0.12863270275E+03  0.00000000000E+00 0.  1.
         -2    1    1    2    0  501 -0.96891810784E+02 -0.50408153489E+02  0.43763253188E+03  0.45105569268E+03  0.25500000000E-02 0.  1.
<mgrwt>
<rscale>  0 0.10921998E+03</rscale>
<asrwt>0</asrwt>
<pdfrwt beam="1">  1       11 0.10000000E+01 0.11545568E+03</pdfrwt>
<pdfrwt beam="2">  1       -2 0.19553017E-02 0.10921998E+03</pdfrwt>
<totfact> 0.57323797E+03</totfact>
</mgrwt>
</event>
<event>
 5    1  0.2804411E-003  0.9908067E+02  0.7818608E-02  0.1282241E+00
         11   -1    0    0    0    0  0.00000000000E+00  0.00000000000E+00  0.10002146211E+04  0.10002146211E+04  0.51100000000E-03 0. -1.
          2   -1    0    0  501    0 -0.00000000000E+00 -0.00000000000E+00 -0.18169325687E+02  0.18169325866E+02  0.25500000000E-02 0.  1.
         11    1    1    2    0    0  0.32073156656E+01 -0.10654555442E+03  0.31381116081E+03  0.33142070950E+03  0.51100000000E-03 0. -1.
         22    1    1    2    0    0  0.54323849938E+02  0.25716565054E+02  0.25213495025E+03  0.25919964415E+03  0.00000000000E+00 0.  1.
          2    1    1    2  501    0 -0.57531165603E+02  0.80828989363E+02  0.41609918440E+03  0.42776359335E+03  0.25500000000E-02 0.  1.
<mgrwt>
<rscale>  0 0.99080675E+02</rscale>
<asrwt>0</asrwt>
<pdfrwt beam="1">  1       11 0.10000000E+01 0.60103431E+02</pdfrwt>
<pdfrwt beam="2">  1        2 0.27958807E-02 0.99080675E+02</pdfrwt>
<totfact> 0.38334247E+03</totfact>
</mgrwt>
</event>
<event>
 5    1  0.2804411E-003  0.1163700E+03  0.7818608E-02  0.1253817E+00
         11   -1    0    0    0    0  0.00000000000E+00  0.00000000000E+00  0.10001446818E+04  0.10001446818E+04  0.51100000000E-03 0. -1.
          2   -1    0    0  501    0 -0.00000000000E+00 -0.00000000000E+00 -0.16766878714E+02  0.16766878908E+02  0.25500000000E-02 0. -1.
         11    1    1    2    0    0  0.99142943612E+02  0.23282434277E+02  0.22219837531E+03  0.24442486167E+03  0.51100000000E-03 0. -1.
         22    1    1    2    0    0  0.94543204444E+01  0.10493169237E+02  0.40576668409E+02  0.42964599322E+02  0.00000000000E+00 0. -1.
          2    1    1    2  501    0 -0.10859726406E+03 -0.33775603514E+02  0.72060275941E+03  0.72952209976E+03  0.25500000000E-02 0. -1.
<mgrwt>
<rscale>  0 0.11372844E+03</rscale>
<asrwt>0</asrwt>
<pdfrwt beam="1">  1       11 0.10000000E+01 0.11637001E+03</pdfrwt>
<pdfrwt beam="2">  1        2 0.25798930E-02 0.11372844E+03</pdfrwt>
<totfact> 0.43366098E+03</totfact>
</mgrwt>
</event>
<event>
 5    1  0.2804411E-003  0.4648043E+03  0.7818608E-02  0.1026545E+00
         11   -1    0    0    0    0  0.00000000000E+00  0.00000000000E+00  0.99998121054E+03  0.99998121054E+03  0.51100000000E-03 0. -1.
          2   -1    0    0  501    0 -0.00000000000E+00 -0.00000000000E+00 -0.21147731802E+03  0.21147731804E+03  0.25500000000E-02 0. -1.
         11    1    1    2    0    0 -0.22871437300E+03 -0.36594201521E+03  0.37297810323E+03  0.57038275605E+03  0.51100000000E-03 0. -1.
         22    1    1    2    0    0 -0.32738456420E+01 -0.24274957836E+02 -0.16284839278E+01  0.24548800442E+02  0.00000000000E+00 0. -1.
          2    1    1    2  501    0  0.23198821864E+03  0.39021697304E+03  0.41715427322E+03  0.61652697209E+03  0.25500000000E-02 0. -1.
<mgrwt>
<rscale>  0 0.45396896E+03</rscale>
<asrwt>0</asrwt>
<pdfrwt beam="1">  1       11 0.10000000E+01 0.46480428E+03</pdfrwt>
<pdfrwt beam="2">  1        2 0.32534360E-01 0.45396896E+03</pdfrwt>
<totfact> 0.19962854E+02</totfact>
</mgrwt>
</event>
<event>
 5    1  0.2804411E-003  0.1592398E+03  0.7818608E-02  0.1526701E+00
         11   -1    0    0    0    0  0.00000000000E+00  0.00000000000E+00  0.10005537433E+04  0.10005537433E+04  0.51100000000E-03 0. -1.
          2   -1    0    0  501    0 -0.00000000000E+00 -0.00000000000E+00 -0.13530804508E+04  0.13530804508E+04  0.25500000000E-02 0. -1.
         11    1    1    2    0    0 -0.90301811270E+02  0.11825432318E+03  0.44243020625E+03  0.46677937987E+03  0.51100000000E-03 0. -1.
         22    1    1    2    0    0  0.77881515450E+02 -0.15373747623E+03  0.53207560108E+03  0.55928989559E+03  0.00000000000E+00 0. -1.
          2    1    1    2  501    0  0.12420295820E+02  0.35483153052E+02 -0.13270325148E+04  0.13275649187E+04  0.25500000000E-02 0. -1.
<mgrwt>
<rscale>  0 0.37594121E+02</rscale>
<asrwt>0</asrwt>
<pdfrwt beam="1">  1       11 0.10000000E+01 0.15923979E+03</pdfrwt>
<pdfrwt beam="2">  1        2 0.20828149E+00 0.37594121E+02</pdfrwt>
<totfact> 0.23701325E+01</totfact>
</mgrwt>
</event>
<event>
 5    1  0.2804411E-003  0.1360620E+03  0.7818608E-02  0.1516198E+00
         11   -1    0    0    0    0  0.00000000000E+00  0.00000000000E+00  0.10001901704E+04  0.10001901704E+04  0.51100000000E-03 0. -1.
          2   -1    0    0  501    0 -0.00000000000E+00 -0.00000000000E+00 -0.24712065195E+02  0.24712065326E+02  0.25500000000E-02 0. -1.
         11    1    1    2    0    0 -0.81193727482E+02  0.10875166285E+03  0.68655879592E+03  0.69984450117E+03  0.51100000000E-03 0. -1.
         22    1    1    2    0    0  0.82577652590E+01  0.74794674085E+01  0.14945442664E+02  0.18641335151E+02  0.00000000000E+00 0. -1.
          2    1    1    2  501    0  0.72935962222E+02 -0.11623113026E+03  0.27397386657E+03  0.30641639936E+03  0.25500000000E-02 0. -1.
<mgrwt>
<rscale>  0 0.38935018E+02</rscale>
<asrwt>0</asrwt>
<pdfrwt beam="1">  1       11 0.10000000E+01 0.13606202E+03</pdfrwt>
<pdfrwt beam="2">  1        2 0.38025791E-02 0.38935018E+02</pdfrwt>
<totfact> 0.22935435E+03</totfact>
</mgrwt>
</event>
<event>
 5    1  0.2804411E-003  0.1837692E+03  0.7818608E-02  0.1439922E+00
         11   -1    0    0    0    0  0.00000000000E+00  0.00000000000E+00  0.10001231021E+04  0.10001231021E+04  0.51100000000E-03 0.  1.
          2   -1    0    0  501    0 -0.00000000000E+00 -0.00000000000E+00 -0.23687411651E+03  0.23687411652E+03  0.25500000000E-02 0.  1.
         11    1    1    2    0    0  0.99669826859E+02 -0.15499106638E+03  0.62296807766E+03  0.64965031426E+03  0.51100000000E-03 0.  1.
         22    1    1    2    0    0 -0.54764645192E+02  0.17920770681E+03  0.33619881442E+03  0.38489506539E+03  0.00000000000E+00 0. -1.
          2    1    1    2  501    0 -0.44905181667E+02 -0.24216640430E+02 -0.19591790648E+03  0.20245183897E+03  0.25500000000E-02 0.  1.
<mgrwt>
<rscale>  0 0.51018830E+02</rscale>
<asrwt>0</asrwt>
<pdfrwt beam="1">  1       11 0.10000000E+01 0.18376917E+03</pdfrwt>
<pdfrwt beam="2">  1        2 0.36446657E-01 0.51018830E+02</pdfrwt>
<totfact> 0.17123337E+02</totfact>
</mgrwt>
</event>
<event>
 5    1  0.2804411E-003  0.2164067E+03  0.7818608E-02  0.1141034E+00
         11   -1    0    0    0    0  0.00000000000E+00  0.00000000000E+00  0.10001597826E+04  0.10001597826E+04  0.51100000000E-03 0.  1.
          2   -1    0    0  501    0 -0.00000000000E+00 -0.00000000000E+00 -0.54503060004E+02  0.54503060064E+02  0.25500000000E-02 0.  1.
         11    1    1    2    0    0 -0.85347958666E+02 -0.13189291501E+03  0.43412318846E+03  0.46167408184E+03  0.51100000000E-03 0.  1.
         22    1    1    2    0    0 -0.31055891100E+02 -0.43701996246E+02  0.25722159851E+03  0.26274946925E+03  0.00000000000E+00 0.  1.
          2    1    1    2  501    0  0.11640384977E+03  0.17559491126E+03  0.25431193564E+03  0.33023929160E+03  0.25500000000E-02 0.  1.
<mgrwt>
<rscale>  0 0.21067375E+03</rscale>
<asrwt>0</asrwt>
<pdfrwt beam="1">  1       11 0.10000000E+01 0.21640672E+03</pdfrwt>
<pdfrwt beam="2">  1        2 0.83864257E-02 0.21067375E+03</pdfrwt>
<totfact> 0.97092009E+02</totfact>
</mgrwt>
</event>
<event>
 5    1  0.2804411E-003  0.5551921E+02  0.7818608E-02  0.1666126E+00
         11   -1    0    0    0    0  0.00000000000E+00  0.00000000000E+00  0.10002805981E+04  0.10002805981E+04  0.51100000000E-03 0. -1.
          2   -1    0    0  501    0 -0.00000000000E+00 -0.00000000000E+00 -0.64811638056E+01  0.64811643072E+01  0.25500000000E-02 0. -1.
         11    1    1    2    0    0 -0.51708527095E+02  0.73979282551E+01  0.13134203905E+03  0.14134791240E+03  0.51100000000E-03 0. -1.
         22    1    1    2    0    0 -0.45539743031E+01 -0.99488866443E+01  0.60515698623E+02  0.61496900794E+02  0.00000000000E+00 0. -1.
          2    1    1    2  501    0  0.56262501398E+02  0.25509583892E+01  0.80194169657E+03  0.80391694917E+03  0.25500000000E-02 0. -1.
<mgrwt>
<rscale>  0 0.24646902E+02</rscale>
<asrwt>0</asrwt>
<pdfrwt beam="1">  1       11 0.10000000E+01 0.55519215E+02</pdfrwt>
<pdfrwt beam="2">  1        2 0.99738192E-03 0.24646902E+02</pdfrwt>
<totfact> 0.11998501E+04</totfact>
</mgrwt>
</event>
<event>
 5    1  0.2804411E-003  0.1800622E+03  0.7818608E-02  0.1364452E+00
         11   -1    0    0    0    0  0.00000000000E+00  0.00000000000E+00  0.10002522199E+04  0.10002522199E+04  0.51100000000E-03 0.  1.
          2   -1    0    0  501    0 -0.00000000000E+00 -0.00000000000E+00 -0.64858507538E+02  0.64858507588E+02  0.25500000000E-02 0.  1.
         11    1    1    2    0    0  0.14552390851E+03  0.59257195124E+02  0.41994572928E+03  0.44837823170E+03  0.51100000000E-03 0.  1.
         22    1    1    2    0    0 -0.21324081474E+03 -0.47476272102E+02  0.50091195274E+03  0.54647820256E+03  0.00000000000E+00 0.  1.
          2    1    1    2  501    0  0.67716906225E+02 -0.11780923021E+02  0.14536030383E+02  0.70254293262E+02  0.25500000000E-02 0.  1.
<mgrwt>
<rscale>  0 0.68734049E+02</rscale>
<asrwt>0</asrwt>
<pdfrwt beam="1">  1       11 0.10000000E+01 0.18006217E+03</pdfrwt>
<pdfrwt beam="2">  1        2 0.99807484E-02 0.68734049E+02</pdfrwt>
<totfact> 0.73078722E+02</totfact>
</mgrwt>
</event>
<event>
 5    1  0.2804411E-003  0.8409690E+02  0.7818608E-02  0.1609637E+00
         11   -1    0    0    0    0  0.00000000000E+00  0.00000000000E+00  0.10000989403E+04  0.10000989403E+04  0.51100000000E-03 0. -1.
         -2   -1    0    0    0  501 -0.00000000000E+00 -0.00000000000E+00 -0.36850480874E+02  0.36850480963E+02  0.25500000000E-02 0. -1.
         11    1    1    2    0    0  0.10084419473E+03  0.67694168705E+01  0.57306547445E+03  0.58191014308E+03  0.51100000000E-03 0. -1.
         22    1    1    2    0    0 -0.71910193002E+02 -0.51254893615E+01  0.41231749059E+03  0.41857264548E+03  0.00000000000E+00 0. -1.
         -2    1    1    2    0  501 -0.28934001732E+02 -0.16439275090E+01 -0.22134505624E+02  0.36466632688E+02  0.25500000000E-02 0. -1.
<mgrwt>
<rscale>  0 0.28980665E+02</rscale>
<asrwt>0</asrwt>
<pdfrwt beam="1">  1       11 0.10000000E+01 0.84096900E+02</pdfrwt>
<pdfrwt beam="2">  1       -2 0.56698655E-02 0.28980665E+02</pdfrwt>
<totfact> 0.10430601E+03</totfact>
</mgrwt>
</event>
<event>
 5    1  0.2804411E-003  0.1767514E+03  0.7818608E-02  0.1170985E+00
         11   -1    0    0    0    0  0.00000000000E+00  0.00000000000E+00  0.10004471581E+04  0.10004471581E+04  0.51100000000E-03 0. -1.
          2   -1    0    0  501    0 -0.00000000000E+00 -0.00000000000E+00 -0.80005486644E+02  0.80005486684E+02  0.25500000000E-02 0. -1.
         11    1    1    2    0    0 -0.17595997036E+03 -0.10157123462E+03  0.63950743218E+03  0.67100550123E+03  0.51100000000E-03 0. -1.
         22    1    1    2    0    0  0.11410302063E+02  0.49520199005E+02  0.22097408494E+03  0.22674212515E+03  0.00000000000E+00 0. -1.
          2    1    1    2  501    0  0.16454966830E+03  0.52051035612E+02  0.59960154376E+02  0.18270501844E+03  0.25500000000E-02 0. -1.
<mgrwt>
<rscale>  0 0.17675142E+03</rscale>
<asrwt>0</asrwt>
<pdfrwt beam="1">  1       11 0.10000000E+01 0.50817764E+02</pdfrwt>
<pdfrwt beam="2">  1        2 0.12314040E-01 0.17675142E+03</pdfrwt>
<totfact> 0.59841951E+02</totfact>
</mgrwt>
</event>
<event>
 5    1  0.2804411E-003  0.1247309E+03  0.7818608E-02  0.1235490E+00
         11   -1    0    0    0    0  0.00000000000E+00  0.00000000000E+00  0.99998443022E+03  0.99998443022E+03  0.51100000000E-03 0. -1.
          2   -1    0    0  501    0 -0.00000000000E+00 -0.00000000000E+00 -0.28099106570E+02  0.28099106685E+02  0.25500000000E-02 0. -1.
         11    1    1    2    0    0 -0.78341945394E+02  0.81480583594E+02  0.66716108837E+03  0.67666865137E+03  0.51100000000E-03 0. -1.
         22    1    1    2    0    0  0.10585279121E+02  0.27835473780E+02  0.13621830478E+03  0.13943560625E+03  0.00000000000E+00 0. -1.
          2    1    1    2  501    0  0.67756666273E+02 -0.10931605737E+03  0.16850593050E+03  0.21197927928E+03  0.25500000000E-02 0. -1.
<mgrwt>
<rscale>  0 0.12473092E+03</rscale>
<asrwt>0</asrwt>
<pdfrwt beam="1">  1       11 0.10000000E+01 0.29780224E+02</pdfrwt>
<pdfrwt beam="2">  1        2 0.43228721E-02 0.12473092E+03</pdfrwt>
<totfact> 0.22014613E+03</totfact>
</mgrwt>
</event>
<event>
 5    1  0.2804411E-003  0.2865396E+03  0.7818608E-02  0.1094593E+00
         11   -1    0    0    0    0  0.00000000000E+00  0.00000000000E+00  0.10001297426E+04  0.10001297426E+04  0.51100000000E-03 0. -1.
          2   -1    0    0  501    0 -0.00000000000E+00 -0.00000000000E+00 -0.47277745649E+03  0.47277745650E+03  0.25500000000E-02 0. -1.
         11    1    1    2    0    0  0.44196128970E+02  0.25159245295E+03  0.85673738719E+03  0.89400839526E+03  0.51100000000E-03 0. -1.
         22    1    1    2    0    0 -0.10420783973E+02  0.28393025290E+02  0.77866307784E+02  0.83533936287E+02  0.00000000000E+00 0. -1.
          2    1    1    2  501    0 -0.33775344997E+02 -0.27998547824E+03 -0.40725140887E+03  0.49536486754E+03  0.25500000000E-02 0. -1.
<mgrwt>
<rscale>  0 0.28201532E+03</rscale>
<asrwt>0</asrwt>
<pdfrwt beam="1">  1       11 0.10000000E+01 0.28653960E+03</pdfrwt>
<pdfrwt beam="2">  1        2 0.72744428E-01 0.28201532E+03</pdfrwt>
<totfact> 0.82497360E+01</totfact>
</mgrwt>
</event>
<event>
 5    1  0.2804411E-003  0.2462677E+03  0.7818608E-02  0.1115686E+00
         11   -1    0    0    0    0  0.00000000000E+00  0.00000000000E+00  0.10016091876E+04  0.10016091876E+04  0.51100000000E-03 0.  1.
          2   -1    0    0  501    0 -0.00000000000E+00 -0.00000000000E+00 -0.16525405590E+04  0.16525405590E+04  0.25500000000E-02 0.  1.
         11    1    1    2    0    0 -0.10345676322E+03 -0.16253190038E+03  0.49847922723E+03  0.53441693506E+03  0.51100000000E-03 0.  1.
         22    1    1    2    0    0  0.34273508428E+02 -0.74976093723E+02  0.47220990131E+03  0.47935193637E+03  0.00000000000E+00 0.  1.
          2    1    1    2  501    0  0.69183254794E+02  0.23750799410E+03 -0.16216204999E+04  0.16403808752E+04  0.25500000000E-02 0.  1.
<mgrwt>
<rscale>  0 0.24626774E+03</rscale>
<asrwt>0</asrwt>
<pdfrwt beam="1">  1       11 0.10000000E+01 0.82438389E+02</pdfrwt>
<pdfrwt beam="2">  1        2 0.25464612E+00 0.24626774E+03</pdfrwt>
<totfact> 0.14256479E+01</totfact>
</mgrwt>
</event>
<event>
 5    1  0.2804411E-003  0.1235197E+03  0.7818608E-02  0.1355816E+00
         11   -1    0    0    0    0  0.00000000000E+00  0.00000000000E+00  0.10000706645E+04  0.10000706645E+04  0.51100000000E-03 0. -1.
          2   -1    0    0  501    0 -0.00000000000E+00 -0.00000000000E+00 -0.96299001433E+02  0.96299001466E+02  0.25500000000E-02 0. -1.
         11    1    1    2    0    0 -0.93644593644E+02  0.36490405035E+02  0.32962174429E+03  0.34460318322E+03  0.51100000000E-03 0. -1.
         22    1    1    2    0    0  0.11819066872E+03 -0.10340367072E+03  0.63740899458E+03  0.65646902414E+03  0.00000000000E+00 0. -1.
          2    1    1    2  501    0 -0.24546075075E+02  0.66913265685E+02 -0.63259075838E+02  0.95297458563E+02  0.25500000000E-02 0. -1.
<mgrwt>
<rscale>  0 0.71273382E+02</rscale>
<asrwt>0</asrwt>
<pdfrwt beam="1">  1       11 0.10000000E+01 0.12351969E+03</pdfrwt>
<pdfrwt beam="2">  1        2 0.14816277E-01 0.71273382E+02</pdfrwt>
<totfact> 0.46036033E+02</totfact>
</mgrwt>
</event>
<event>
 5    1  0.2804411E-003  0.9440503E+02  0.7818608E-02  0.1295329E+00
         11   -1    0    0    0    0  0.00000000000E+00  0.00000000000E+00  0.10001246907E+04  0.10001246907E+04  0.51100000000E-03 0. -1.
         -2   -1    0    0    0  501 -0.00000000000E+00 -0.00000000000E+00 -0.95582121532E+01  0.95582124934E+01  0.25500000000E-02 0.  1.
         11    1    1    2    0    0  0.18004004995E+02 -0.11445088607E+01  0.61919902362E+02  0.64494405999E+02  0.51100000000E-03 0. -1.
         22    1    1    2    0    0  0.72099672072E+02  0.24888749683E+02  0.29377291645E+03  0.30351332593E+03  0.00000000000E+00 0. -1.
         -2    1    1    2    0  501 -0.90103677067E+02 -0.23744240822E+02  0.63487365968E+03  0.64167517122E+03  0.25500000000E-02 0.  1.
<mgrwt>
<rscale>  0 0.93179727E+02</rscale>
<asrwt>0</asrwt>
<pdfrwt beam="1">  1       11 0.10000000E+01 0.94405028E+02</pdfrwt>
<pdfrwt beam="2">  1       -2 0.14706775E-02 0.93179727E+02</pdfrwt>
<totfact> 0.84394832E+03</totfact>
</mgrwt>
</event>
<event>
 5    1  0.2804411E-003  0.1224387E+03  0.7818608E-02  0.1389773E+00
         11   -1    0    0    0    0  0.00000000000E+00  0.00000000000E+00  0.10001888669E+04  0.10001888669E+04  0.51100000000E-03 0.  1.
          2   -1    0    0  501    0 -0.00000000000E+00 -0.00000000000E+00 -0.18559017390E+03  0.18559017392E+03  0.25500000000E-02 0.  1.
         11    1    1    2    0    0  0.98851084323E+02 -0.10560417865E+03  0.75265296003E+03  0.76642694216E+03  0.51100000000E-03 0.  1.
         22    1    1    2    0    0 -0.40105283028E+02  0.85896971609E+02  0.22541262615E+03  0.24453542788E+03  0.00000000000E+00 0.  1.
          2    1    1    2  501    0 -0.58745801295E+02  0.19707207039E+02 -0.16346689323E+03  0.17481667074E+03  0.25500000000E-02 0.  1.
<mgrwt>
<rscale>  0 0.61963241E+02</rscale>
<asrwt>0</asrwt>
<pdfrwt beam="1">  1       11 0.10000000E+01 0.12243867E+03</pdfrwt>
<pdfrwt beam="2">  1        2 0.28557726E-01 0.61963241E+02</pdfrwt>
<totfact> 0.22204038E+02</totfact>
</mgrwt>
</event>
<event>
 5    1  0.2804411E-003  0.1492812E+03  0.7818608E-02  0.1221201E+00
         11   -1    0    0    0    0  0.00000000000E+00  0.00000000000E+00  0.10004736458E+04  0.10004736458E+04  0.51100000000E-03 0. -1.
          2   -1    0    0  501    0 -0.00000000000E+00 -0.00000000000E+00 -0.32728979287E+02  0.32728979387E+02  0.25500000000E-02 0. -1.
         11    1    1    2    0    0 -0.41949394720E+02 -0.60502096888E+02  0.12595059240E+03  0.14588970893E+03  0.51100000000E-03 0. -1.
         22    1    1    2    0    0 -0.66640730799E+02 -0.18533321391E+02  0.52931612155E+02  0.87098947000E+02  0.00000000000E+00 0. -1.
          2    1    1    2  501    0  0.10859012552E+03  0.79035418279E+02  0.78886246191E+03  0.80021396921E+03  0.25500000000E-02 0. -1.
<mgrwt>
<rscale>  0 0.13430716E+03</rscale>
<asrwt>0</asrwt>
<pdfrwt beam="1">  1       11 0.10000000E+01 0.14928118E+03</pdfrwt>
<pdfrwt beam="2">  1        2 0.50376124E-02 0.13430716E+03</pdfrwt>
<totfact> 0.18132192E+03</totfact>
</mgrwt>
</event>
<event>
 5    1  0.2804411E-003  0.3760740E+02  0.7818608E-02  0.1539524E+00
         11   -1    0    0    0    0  0.00000000000E+00  0.00000000000E+00  0.10002856178E+04  0.10002856178E+04  0.51100000000E-03 0. -1.
          2   -1    0    0  501    0 -0.00000000000E+00 -0.00000000000E+00 -0.23149909274E+01  0.23149923318E+01  0.25500000000E-02 0. -1.
         11    1    1    2    0    0 -0.23490092767E+01  0.22854622821E+02  0.98841110361E+02  0.10147618798E+03  0.51100000000E-03 0. -1.
         22    1    1    2    0    0  0.56717991307E+01  0.13035417232E+02  0.83696611668E+02  0.84895313254E+02  0.00000000000E+00 0. -1.
          2    1    1    2  501    0 -0.33227898539E+01 -0.35890040054E+02  0.81543290484E+03  0.81622910889E+03  0.25500000000E-02 0. -1.
<mgrwt>
<rscale>  0 0.36043528E+02</rscale>
<asrwt>0</asrwt>
<pdfrwt beam="1">  1       11 0.10000000E+01 0.37607400E+02</pdfrwt>
<pdfrwt beam="2">  1        2 0.35625427E-03 0.36043528E+02</pdfrwt>
<totfact> 0.51310563E+04</totfact>
</mgrwt>
</event>
<event>
 5    1  0.2804411E-003  0.1617188E+03  0.7818608E-02  0.1189761E+00
         11   -1    0    0    0    0  0.00000000000E+00  0.00000000000E+00  0.10006297767E+04  0.10006297767E+04  0.51100000000E-03 0.  1.
          2   -1    0    0  501    0 -0.00000000000E+00 -0.00000000000E+00 -0.10179998438E+03  0.10179998441E+03  0.25500000000E-02 0.  1.
         11    1    1    2    0    0  0.57175416616E+02  0.13740625371E+03  0.87254907761E+03  0.88515049549E+03  0.51100000000E-03 0.  1.
         22    1    1    2    0    0 -0.28444788839E+01  0.12088266833E+02  0.54358441688E+02  0.55758922496E+02  0.00000000000E+00 0. -1.
          2    1    1    2  501    0 -0.54330937733E+02 -0.14949452054E+03 -0.28077727025E+02  0.16152034308E+03  0.25500000000E-02 0.  1.
<mgrwt>
<rscale>  0 0.15906119E+03</rscale>
<asrwt>0</asrwt>
<pdfrwt beam="1">  1       11 0.10000000E+01 0.16171884E+03</pdfrwt>
<pdfrwt beam="2">  1        2 0.15671399E-01 0.15906119E+03</pdfrwt>
<totfact> 0.44732951E+02</totfact>
</mgrwt>
</event>
<event>
 5    1  0.2804411E-003  0.8542695E+02  0.7818608E-02  0.1329130E+00
         11   -1    0    0    0    0  0.00000000000E+00  0.00000000000E+00  0.10001906738E+04  0.10001906738E+04  0.51100000000E-03 0.  1.
         -2   -1    0    0    0  501 -0.00000000000E+00 -0.00000000000E+00 -0.71606615750E+01  0.71606620291E+01  0.25500000000E-02 0.  1.
         11    1    1    2    0    0 -0.42469905545E+02  0.19041167336E+02  0.27537854545E+03  0.27928408874E+03  0.51100000000E-03 0.  1.
         22    1    1    2    0    0 -0.36131838192E+02 -0.42991725364E+01  0.12989794042E+03  0.13489798938E+03  0.00000000000E+00 0. -1.
         -2    1    1    2    0  501  0.78601743737E+02 -0.14741994800E+02  0.58775352640E+03  0.59316925774E+03  0.25500000000E-02 0.  1.
<mgrwt>
<rscale>  0 0.79972249E+02</rscale>
<asrwt>0</asrwt>
<pdfrwt beam="1">  1       11 0.10000000E+01 0.85426950E+02</pdfrwt>
<pdfrwt beam="2">  1       -2 0.11018503E-02 0.79972249E+02</pdfrwt>
<totfact> 0.12419142E+04</totfact>
</mgrwt>
</event>
<event>
 5    1  0.2804411E-003  0.3300153E+02  0.7818608E-02  0.1580407E+00
         11   -1    0    0    0    0  0.00000000000E+00  0.00000000000E+00  0.10002302597E+04  0.10002302597E+04  0.51100000000E-03 0.  1.
          2   -1    0    0  501    0 -0.00000000000E+00 -0.00000000000E+00 -0.48559389565E+01  0.48559396261E+01  0.25500000000E-02 0.  1.
         11    1    1    2    0    0  0.16595963949E+02  0.32520296298E+01  0.21744303823E+02  0.27546623479E+02  0.51100000000E-03 0.  1.
         22    1    1    2    0    0  0.12924624414E+02  0.81954777280E+01  0.32990909729E+02  0.36367731524E+02  0.00000000000E+00 0.  1.
          2    1    1    2  501    0 -0.29520588363E+02 -0.11447507358E+02  0.94063910715E+03  0.94117184428E+03  0.25500000000E-02 0.  1.
<mgrwt>
<rscale>  0 0.31662447E+02</rscale>
<asrwt>0</asrwt>
<pdfrwt beam="1">  1       11 0.10000000E+01 0.33001533E+02</pdfrwt>
<pdfrwt beam="2">  1        2 0.74723958E-03 0.31662447E+02</pdfrwt>
<totfact> 0.18546321E+04</totfact>
</mgrwt>
</event>
<event>
 5    1  0.2804411E-003  0.3235061E+02  0.7818608E-02  0.1573470E+00
         11   -1    0    0    0    0  0.00000000000E+00  0.00000000000E+00  0.10001731726E+04  0.10001731726E+04  0.51100000000E-03 0. -1.
          2   -1    0    0  501    0 -0.00000000000E+00 -0.00000000000E+00 -0.59003980062E+01  0.59003985573E+01  0.25500000000E-02 0. -1.
         11    1    1    2    0    0 -0.22637191093E+02  0.26284795228E+01  0.36755982747E+02  0.43247584824E+02  0.51100000000E-03 0. -1.
         22    1    1    2    0    0 -0.21616482782E+02  0.20906271543E+02  0.11655990752E+03  0.12037672765E+03  0.00000000000E+00 0. -1.
          2    1    1    2  501    0  0.44253673875E+02 -0.23534751066E+02  0.84095688435E+03  0.84244925871E+03  0.25500000000E-02 0. -1.
<mgrwt>
<rscale>  0 0.32350610E+02</rscale>
<asrwt>0</asrwt>
<pdfrwt beam="1">  1       11 0.10000000E+01 0.22789292E+02</pdfrwt>
<pdfrwt beam="2">  1        2 0.90791075E-03 0.32350610E+02</pdfrwt>
<totfact> 0.14396934E+04</totfact>
</mgrwt>
</event>
<event>
 5    1  0.2804411E-003  0.1463308E+03  0.7818608E-02  0.1395720E+00
         11   -1    0    0    0    0  0.00000000000E+00  0.00000000000E+00  0.10005975952E+04  0.10005975952E+04  0.51100000000E-03 0. -1.
         -2   -1    0    0    0  501 -0.00000000000E+00 -0.00000000000E+00 -0.11095828731E+04  0.11095828731E+04  0.25500000000E-02 0. -1.
         11    1    1    2    0    0  0.13792221564E+03  0.13811464654E+02  0.63315751766E+03  0.64815255634E+03  0.51100000000E-03 0. -1.
         22    1    1    2    0    0 -0.15917738791E+03 -0.70461422191E+02  0.33799966678E+03  0.38019209301E+03  0.00000000000E+00 0. -1.
         -2    1    1    2    0  501  0.21255172276E+02  0.56649957536E+02 -0.10801424624E+04  0.10818358189E+04  0.25500000000E-02 0. -1.
<mgrwt>
<rscale>  0 0.60506198E+02</rscale>
<asrwt>0</asrwt>
<pdfrwt beam="1">  1       11 0.10000000E+01 0.14633077E+03</pdfrwt>
<pdfrwt beam="2">  1       -2 0.17080707E+00 0.60506198E+02</pdfrwt>
<totfact> 0.19869467E+00</totfact>
</mgrwt>
</event>
<event>
 5    1  0.2804411E-003  0.3391069E+03  0.7818608E-02  0.1160879E+00
         11   -1    0    0    0    0  0.00000000000E+00  0.00000000000E+00  0.99970460751E+03  0.99970460751E+03  0.51100000000E-03 0.  1.
          2   -1    0    0  501    0 -0.00000000000E+00 -0.00000000000E+00 -0.32543791902E+03  0.32543791903E+03  0.25500000000E-02 0.  1.
         11    1    1    2    0    0  0.19051961844E+03  0.30178496255E+03  0.47598215194E+03  0.59492091710E+03  0.51100000000E-03 0.  1.
         22    1    1    2    0    0 -0.82996413741E+01 -0.34530152065E+03  0.34806875911E+03  0.49036097447E+03  0.00000000000E+00 0.  1.
          2    1    1    2  501    0 -0.18221997707E+03  0.43516558095E+02 -0.14978422257E+03  0.23986063497E+03  0.25500000000E-02 0.  1.
<mgrwt>
<rscale>  0 0.18734410E+03</rscale>
<asrwt>0</asrwt>
<pdfrwt beam="1">  1       11 0.10000000E+01 0.33910685E+03</pdfrwt>
<pdfrwt beam="2">  1        2 0.50052581E-01 0.18734410E+03</pdfrwt>
<totfact> 0.12432311E+02</totfact>
</mgrwt>
</event>
<event>
 5    1  0.2804411E-003  0.3687821E+03  0.7818608E-02  0.1055893E+00
         11   -1    0    0    0    0  0.00000000000E+00  0.00000000000E+00  0.10001471028E+04  0.10001471028E+04  0.51100000000E-03 0. -1.
         -2   -1    0    0    0  501 -0.00000000000E+00 -0.00000000000E+00 -0.18062160108E+03  0.18062160110E+03  0.25500000000E-02 0.  1.
         11    1    1    2    0    0 -0.33832992981E+03  0.68728668559E+02  0.67996115044E+03  0.76258634750E+03  0.51100000000E-03 0. -1.
         22    1    1    2    0    0 -0.21767810220E+02  0.14764034585E+01  0.26399190583E+02  0.34248132684E+02  0.00000000000E+00 0.  1.
         -2    1    1    2    0  501  0.36009774003E+03 -0.70205072018E+02  0.11316516065E+03  0.38393422366E+03  0.25500000000E-02 0.  1.
<mgrwt>
<rscale>  0 0.36687755E+03</rscale>
<asrwt>0</asrwt>
<pdfrwt beam="1">  1       11 0.10000000E+01 0.36878213E+03</pdfrwt>
<pdfrwt beam="2">  1       -2 0.27792026E-01 0.36687755E+03</pdfrwt>
<totfact> 0.95072714E+01</totfact>
</mgrwt>
</event>
<event>
 5    1  0.2804411E-003  0.2485999E+03  0.7818608E-02  0.1116809E+00
         11   -1    0    0    0    0  0.00000000000E+00  0.00000000000E+00  0.10003320181E+04  0.10003320181E+04  0.51100000000E-03 0. -1.
          2   -1    0    0  501    0 -0.00000000000E+00 -0.00000000000E+00 -0.13786547554E+03  0.13786547557E+03  0.25500000000E-02 0.  1.
         11    1    1    2    0    0 -0.20121205136E+03  0.97490123860E+02  0.76027082398E+03  0.79246598644E+03  0.51100000000E-03 0. -1.
         22    1    1    2    0    0 -0.12470654952E+02  0.21405753630E+02  0.98083430848E+02  0.10116364431E+03  0.00000000000E+00 0.  1.
          2    1    1    2  501    0  0.21368270631E+03 -0.11889587749E+03  0.41122877388E+01  0.24456786293E+03  0.25500000000E-02 0.  1.
<mgrwt>
<rscale>  0 0.24453329E+03</rscale>
<asrwt>0</asrwt>
<pdfrwt beam="1">  1       11 0.10000000E+01 0.24859986E+03</pdfrwt>
<pdfrwt beam="2">  1        2 0.21217115E-01 0.24453329E+03</pdfrwt>
<totfact> 0.31956739E+02</totfact>
</mgrwt>
</event>
<event>
 5    1  0.2804411E-003  0.1441730E+03  0.7818608E-02  0.1211329E+00
         11   -1    0    0    0    0  0.00000000000E+00  0.00000000000E+00  0.10000824873E+04  0.10000824873E+04  0.51100000000E-03 0. -1.
         -2   -1    0    0    0  501 -0.00000000000E+00 -0.00000000000E+00 -0.22179047820E+02  0.22179047966E+02  0.25500000000E-02 0.  1.
         11    1    1    2    0    0 -0.39829125484E+02  0.12463249577E+03  0.58574351660E+03  0.60017921113E+03  0.51100000000E-03 0. -1.
         22    1    1    2    0    0 -0.10951582591E+02  0.74379385528E+01  0.52173982293E+02  0.53827358466E+02  0.00000000000E+00 0. -1.
         -2    1    1    2    0  501  0.50780708075E+02 -0.13207043433E+03  0.33998594063E+03  0.36825496571E+03  0.25500000000E-02 0.  1.
<mgrwt>
<rscale>  0 0.14149657E+03</rscale>
<asrwt>0</asrwt>
<pdfrwt beam="1">  1       11 0.10000000E+01 0.14417301E+03</pdfrwt>
<pdfrwt beam="2">  1       -2 0.34124426E-02 0.14149657E+03</pdfrwt>
<totfact> 0.26194402E+03</totfact>
</mgrwt>
</event>
<event>
 5    1  0.2804411E-003  0.1766876E+03  0.7818608E-02  0.1177563E+00
         11   -1    0    0    0    0  0.00000000000E+00  0.00000000000E+00  0.10005071810E+04  0.10005071810E+04  0.51100000000E-03 0. -1.
         -2   -1    0    0    0  501 -0.00000000000E+00 -0.00000000000E+00 -0.31851874073E+02  0.31851874175E+02  0.25500000000E-02 0.  1.
         11    1    1    2    0    0  0.89107419554E+02  0.12766347041E+03  0.59485395692E+03  0.61488968438E+03  0.51100000000E-03 0. -1.
         22    1    1    2    0    0  0.95139584112E+01  0.11141656378E+02  0.19646181258E+02  0.24507638595E+02  0.00000000000E+00 0. -1.
         -2    1    1    2    0  501 -0.98621377965E+02 -0.13880512679E+03  0.35415516877E+03  0.39296173222E+03  0.25500000000E-02 0.  1.
<mgrwt>
<rscale>  0 0.17027343E+03</rscale>
<asrwt>0</asrwt>
<pdfrwt beam="1">  1       11 0.10000000E+01 0.17668762E+03</pdfrwt>
<pdfrwt beam="2">  1       -2 0.49027735E-02 0.17027343E+03</pdfrwt>
<totfact> 0.15512128E+03</totfact>
</mgrwt>
</event>
<event>
 5    1  0.2804411E-003  0.4481705E+02  0.7818608E-02  0.1485992E+00
         11   -1    0    0    0    0  0.00000000000E+00  0.00000000000E+00  0.10004525290E+04  0.10004525290E+04  0.51100000000E-03 0. -1.
         -2   -1    0    0    0  501 -0.00000000000E+00 -0.00000000000E+00 -0.52072945390E+01  0.52072951633E+01  0.25500000000E-02 0. -1.
         11    1    1    2    0    0  0.32958067896E+01  0.25542631533E+02  0.74941764338E+02  0.79243652178E+02  0.51100000000E-03 0. -1.
         22    1    1    2    0    0  0.90051565010E+00  0.17439389794E+02  0.27546276226E+02  0.32615036084E+02  0.00000000000E+00 0. -1.
         -2    1    1    2    0  501 -0.41963224397E+01 -0.42982021327E+02  0.89275719392E+03  0.89380113592E+03  0.25500000000E-02 0. -1.
<mgrwt>
<rscale>  0 0.43186378E+02</rscale>
<asrwt>0</asrwt>
<pdfrwt beam="1">  1       11 0.10000000E+01 0.44817047E+02</pdfrwt>
<pdfrwt beam="2">  1       -2 0.80148479E-03 0.43186378E+02</pdfrwt>
<totfact> 0.17299605E+04</totfact>
</mgrwt>
</event>
<event>
 5    1  0.2804411E-003  0.8131056E+03  0.7818608E-02  0.9546223E-01
         11   -1    0    0    0    0  0.00000000000E+00  0.00000000000E+00  0.10000573672E+04  0.10000573672E+04  0.51100000000E-03 0. -1.
         -2   -1    0    0    0  501 -0.00000000000E+00 -0.00000000000E+00 -0.90340069925E+03  0.90340069926E+03  0.25500000000E-02 0.  1.
         11    1    1    2    0    0  0.75186087846E+03  0.25705699494E+03  0.54376437193E+03  0.96283579669E+03  0.51100000000E-03 0. -1.
         22    1    1    2    0    0  0.12856133589E+02  0.87663268505E+01  0.41325631607E+00  0.15565970516E+02  0.00000000000E+00 0.  1.
         -2    1    1    2    0  501 -0.76471701205E+03 -0.26582332179E+03 -0.44752096028E+03  0.92505629927E+03  0.25500000000E-02 0.  1.
<mgrwt>
<rscale>  0 0.80960123E+03</rscale>
<asrwt>0</asrwt>
<pdfrwt beam="1">  1       11 0.10000000E+01 0.81310561E+03</pdfrwt>
<pdfrwt beam="2">  1       -2 0.13899269E+00 0.80960123E+03</pdfrwt>
<totfact> 0.29844162E+00</totfact>
</mgrwt>
</event>
<event>
 5    1  0.2804411E-003  0.2727680E+03  0.7818608E-02  0.1104137E+00
         11   -1    0    0    0    0  0.00000000000E+00  0.00000000000E+00  0.10004505991E+04  0.10004505991E+04  0.51100000000E-03 0. -1.
          2   -1    0    0  501    0 -0.00000000000E+00 -0.00000000000E+00 -0.11213738066E+04  0.11213738066E+04  0.25500000000E-02 0. -1.
         11    1    1    2    0    0  0.14315671419E+03 -0.28537999691E+01  0.54762182532E+03  0.56603149432E+03  0.51100000000E-03 0. -1.
         22    1    1    2    0    0  0.11697186605E+03  0.53776591600E+02  0.41800343390E+03  0.43737993782E+03  0.00000000000E+00 0. -1.
          2    1    1    2  501    0 -0.26012858024E+03 -0.50922791631E+02 -0.10865484667E+04  0.11184129735E+04  0.25500000000E-02 0. -1.
<mgrwt>
<rscale>  0 0.26506605E+03</rscale>
<asrwt>0</asrwt>
<pdfrwt beam="1">  1       11 0.10000000E+01 0.27276796E+03</pdfrwt>
<pdfrwt beam="2">  1        2 0.17259678E+00 0.26506605E+03</pdfrwt>
<totfact> 0.27797245E+01</totfact>
</mgrwt>
</event>
<event>
 5    1  0.2804411E-003  0.1823836E+03  0.7818608E-02  0.1165516E+00
         11   -1    0    0    0    0  0.00000000000E+00  0.00000000000E+00  0.10001644407E+04  0.10001644407E+04  0.51100000000E-03 0. -1.
          2   -1    0    0  501    0 -0.00000000000E+00 -0.00000000000E+00 -0.33562738528E+03  0.33562738529E+03  0.25500000000E-02 0. -1.
         11    1    1    2    0    0  0.12185626575E+03 -0.11455218969E+03  0.93965902353E+03  0.95442665206E+03  0.51100000000E-03 0. -1.
         22    1    1    2    0    0  0.87497849460E+01 -0.13337515195E+02  0.25178231014E+02  0.29805894806E+02  0.00000000000E+00 0.  1.
          2    1    1    2  501    0 -0.13060605070E+03  0.12788970488E+03 -0.30030019916E+03  0.35155927909E+03  0.25500000000E-02 0. -1.
<mgrwt>
<rscale>  0 0.18238361E+03</rscale>
<asrwt>0</asrwt>
<pdfrwt beam="1">  1       11 0.10000000E+01 0.15951428E+02</pdfrwt>
<pdfrwt beam="2">  1        2 0.51643472E-01 0.18238361E+03</pdfrwt>
<totfact> 0.12022431E+02</totfact>
</mgrwt>
</event>
<event>
 5    1  0.2804411E-003  0.2357020E+03  0.7818608E-02  0.1122690E+00
         11   -1    0    0    0    0  0.00000000000E+00  0.00000000000E+00  0.10001231831E+04  0.10001231831E+04  0.51100000000E-03 0. -1.
          2   -1    0    0  501    0 -0.00000000000E+00 -0.00000000000E+00 -0.22023844549E+03  0.22023844551E+03  0.25500000000E-02 0. -1.
         11    1    1    2    0    0  0.17712648794E+03  0.15755105987E+03  0.88378641304E+03  0.91502707778E+03  0.51100000000E-03 0. -1.
         22    1    1    2    0    0 -0.89047880383E+01  0.74271086789E+01  0.31510174871E+02  0.33576008007E+02  0.00000000000E+00 0. -1.
          2    1    1    2  501    0 -0.16822169990E+03 -0.16497816855E+03 -0.13541185026E+03  0.27175854286E+03  0.25500000000E-02 0. -1.
<mgrwt>
<rscale>  0 0.23570199E+03</rscale>
<asrwt>0</asrwt>
<pdfrwt beam="1">  1       11 0.10000000E+01 0.11595568E+02</pdfrwt>
<pdfrwt beam="2">  1        2 0.33887011E-01 0.23570199E+03</pdfrwt>
<totfact> 0.18957046E+02</totfact>
</mgrwt>
</event>
<event>
 5    1  0.2804411E-003  0.3918677E+03  0.7818608E-02  0.1051387E+00
         11   -1    0    0    0    0  0.00000000000E+00  0.00000000000E+00  0.10004421413E+04  0.10004421413E+04  0.51100000000E-03 0.  1.
          2   -1    0    0  501    0 -0.00000000000E+00 -0.00000000000E+00 -0.11394188802E+04  0.11394188802E+04  0.25500000000E-02 0.  1.
         11    1    1    2    0    0  0.21346469393E+03 -0.22746140076E+03  0.77086818750E+03  0.83159102141E+03  0.51100000000E-03 0.  1.
         22    1    1    2    0    0  0.77229133716E+02 -0.15372514838E+02  0.15729330215E+03  0.17590291699E+03  0.00000000000E+00 0. -1.
          2    1    1    2  501    0 -0.29069382764E+03  0.24283391560E+03 -0.10671382286E+04  0.11323670831E+04  0.25500000000E-02 0.  1.
<mgrwt>
<rscale>  0 0.37877594E+03</rscale>
<asrwt>0</asrwt>
<pdfrwt beam="1">  1       11 0.10000000E+01 0.39186769E+03</pdfrwt>
<pdfrwt beam="2">  1        2 0.17537271E+00 0.37877594E+03</pdfrwt>
<totfact> 0.26606373E+01</totfact>
</mgrwt>
</event>
<event>
 5    1  0.2804411E-003  0.2355984E+03  0.7818608E-02  0.1230977E+00
         11   -1    0    0    0    0  0.00000000000E+00  0.00000000000E+00  0.10000295517E+04  0.10000295517E+04  0.51100000000E-03 0. -1.
          2   -1    0    0  501    0 -0.00000000000E+00 -0.00000000000E+00 -0.12143918351E+04  0.12143918351E+04  0.25500000000E-02 0. -1.
         11    1    1    2    0    0  0.22509512465E+03 -0.65751973062E+02  0.35873896441E+03  0.42858462606E+03  0.51100000000E-03 0. -1.
         22    1    1    2    0    0 -0.24327687461E+03 -0.60601851049E+02  0.57676872718E+03  0.62890252561E+03  0.00000000000E+00 0. -1.
          2    1    1    2  501    0  0.18181749959E+02  0.12635382411E+03 -0.11498699750E+04  0.11569342351E+04  0.25500000000E-02 0. -1.
<mgrwt>
<rscale>  0 0.12765526E+03</rscale>
<asrwt>0</asrwt>
<pdfrwt beam="1">  1       11 0.10000000E+01 0.23559845E+03</pdfrwt>
<pdfrwt beam="2">  1        2 0.18683503E+00 0.12765526E+03</pdfrwt>
<totfact> 0.25711973E+01</totfact>
</mgrwt>
</event>
<event>
 5    1  0.2804411E-003  0.4516446E+02  0.7818608E-02  0.1656161E+00
         11   -1    0    0    0    0  0.00000000000E+00  0.00000000000E+00  0.10002578219E+04  0.10002578219E+04  0.51100000000E-03 0. -1.
          2   -1    0    0  501    0 -0.00000000000E+00 -0.00000000000E+00 -0.43277067883E+01  0.43277075395E+01  0.25500000000E-02 0. -1.
         11    1    1    2    0    0  0.21829903825E+02  0.29803051496E+02  0.11149858840E+03  0.11745936231E+03  0.51100000000E-03 0. -1.
         22    1    1    2    0    0 -0.35204603076E+01  0.13774882256E+02  0.76292863736E+02  0.77606327571E+02  0.00000000000E+00 0. -1.
          2    1    1    2  501    0 -0.18309443517E+02 -0.43577933752E+02  0.80813866295E+03  0.80951983953E+03  0.25500000000E-02 0. -1.
<mgrwt>
<rscale>  0 0.25340309E+02</rscale>
<asrwt>0</asrwt>
<pdfrwt beam="1">  1       11 0.10000000E+01 0.45164459E+02</pdfrwt>
<pdfrwt beam="2">  1        2 0.66597274E-03 0.25340309E+02</pdfrwt>
<totfact> 0.20505258E+04</totfact>
</mgrwt>
</event>
<event>
 5    1  0.2804411E-003  0.1402581E+03  0.7818608E-02  0.1345347E+00
         11   -1    0    0    0    0  0.00000000000E+00  0.00000000000E+00  0.99991332439E+03  0.99991332439E+03  0.51100000000E-03 0. -1.
          2   -1    0    0  501    0 -0.00000000000E+00 -0.00000000000E+00 -0.69169757439E+02  0.69169757486E+02  0.25500000000E-02 0. -1.
         11    1    1    2    0    0  0.97208932874E+02 -0.30886702382E+01  0.14689454505E+03  0.17617356180E+03  0.51100000000E-03 0. -1.
         22    1    1    2    0    0 -0.16126051591E+03  0.41186062598E+02  0.79959971794E+03  0.81673799634E+03  0.00000000000E+00 0. -1.
          2    1    1    2  501    0  0.64051583039E+02 -0.38097392360E+02 -0.15750696037E+02  0.76171523725E+02  0.25500000000E-02 0. -1.
<mgrwt>
<rscale>  0 0.74525275E+02</rscale>
<asrwt>0</asrwt>
<pdfrwt beam="1">  1       11 0.10000000E+01 0.14025812E+03</pdfrwt>
<pdfrwt beam="2">  1        2 0.10640578E-01 0.74525275E+02</pdfrwt>
<totfact> 0.68049905E+02</totfact>
</mgrwt>
</event>
<event>
 5    1  0.2804411E-003  0.1246534E+03  0.7818608E-02  0.1235612E+00
         11   -1    0    0    0    0  0.00000000000E+00  0.00000000000E+00  0.10000243954E+04  0.10000243954E+04  0.51100000000E-03 0. -1.
          2   -1    0    0  501    0 -0.00000000000E+00 -0.00000000000E+00 -0.32524713946E+02  0.32524714046E+02  0.25500000000E-02 0. -1.
         11    1    1    2    0    0  0.88577034914E+02 -0.68082205862E+02  0.28061571715E+03  0.30203684970E+03  0.51100000000E-03 0. -1.
         22    1    1    2    0    0 -0.38551661912E+02 -0.81722108141E+02  0.26963856650E+03  0.28437596618E+03  0.00000000000E+00 0. -1.
          2    1    1    2  501    0 -0.50025373002E+02  0.14980431400E+03  0.41724539782E+03  0.44613629357E+03  0.25500000000E-02 0. -1.
<mgrwt>
<rscale>  0 0.12465342E+03</rscale>
<asrwt>0</asrwt>
<pdfrwt beam="1">  1       11 0.10000000E+01 0.90358915E+02</pdfrwt>
<pdfrwt beam="2">  1        2 0.50039241E-02 0.12465342E+03</pdfrwt>
<totfact> 0.18177804E+03</totfact>
</mgrwt>
</event>
<event>
 5    1  0.2804411E-003  0.1896152E+03  0.7818608E-02  0.1162457E+00
         11   -1    0    0    0    0  0.00000000000E+00  0.00000000000E+00  0.10002002295E+04  0.10002002295E+04  0.51100000000E-03 0. -1.
          2   -1    0    0  501    0 -0.00000000000E+00 -0.00000000000E+00 -0.12441553411E+03  0.12441553414E+03  0.25500000000E-02 0. -1.
         11    1    1    2    0    0  0.37131989266E+02  0.14318414822E+03  0.67533330337E+03  0.69134329791E+03  0.51100000000E-03 0. -1.
         22    1    1    2    0    0  0.25782813639E+02  0.31466225108E+02  0.24003883140E+03  0.24346153162E+03  0.00000000000E+00 0.  1.
          2    1    1    2  501    0 -0.62914802905E+02 -0.17465037333E+03 -0.39587439409E+02  0.18981093408E+03  0.25500000000E-02 0. -1.
<mgrwt>
<rscale>  0 0.18563681E+03</rscale>
<asrwt>0</asrwt>
<pdfrwt beam="1">  1       11 0.10000000E+01 0.18961520E+03</pdfrwt>
<pdfrwt beam="2">  1        2 0.19144683E-01 0.18563681E+03</pdfrwt>
<totfact> 0.35666070E+02</totfact>
</mgrwt>
</event>
<event>
 5    1  0.2804411E-003  0.4176597E+02  0.7818608E-02  0.1682170E+00
         11   -1    0    0    0    0  0.00000000000E+00  0.00000000000E+00  0.10000846291E+04  0.10000846291E+04  0.51100000000E-03 0. -1.
          2   -1    0    0  501    0 -0.00000000000E+00 -0.00000000000E+00 -0.35267563483E+01  0.35267572702E+01  0.25500000000E-02 0. -1.
         11    1    1    2    0    0 -0.12809280386E+02 -0.34692727501E+02  0.17006003429E+03  0.17403470421E+03  0.51100000000E-03 0. -1.
         22    1    1    2    0    0 -0.13318609312E+02 -0.21911671433E+00  0.46754549558E+02  0.48615031323E+02  0.00000000000E+00 0. -1.
          2    1    1    2  501    0  0.26127889698E+02  0.34911844215E+02  0.77974328888E+03  0.78096165081E+03  0.25500000000E-02 0. -1.
<mgrwt>
<rscale>  0 0.23586854E+02</rscale>
<asrwt>0</asrwt>
<pdfrwt beam="1">  1       11 0.10000000E+01 0.41765974E+02</pdfrwt>
<pdfrwt beam="2">  1        2 0.54262387E-03 0.23586854E+02</pdfrwt>
<totfact> 0.26363400E+04</totfact>
</mgrwt>
</event>
<event>
 5    1  0.2804411E-003  0.1925844E+03  0.7818608E-02  0.1156151E+00
         11   -1    0    0    0    0  0.00000000000E+00  0.00000000000E+00  0.99976999347E+03  0.99976999347E+03  0.51100000000E-03 0. -1.
          2   -1    0    0  501    0 -0.00000000000E+00 -0.00000000000E+00 -0.56345805522E+03  0.56345805523E+03  0.25500000000E-02 0. -1.
         11    1    1    2    0    0 -0.30790666339E+02  0.13508081036E+03  0.42029840027E+03  0.44254450141E+03  0.51100000000E-03 0. -1.
         22    1    1    2    0    0  0.10831343343E+03  0.44764654652E+02  0.54455581088E+03  0.55702486958E+03  0.00000000000E+00 0. -1.
          2    1    1    2  501    0 -0.77522767088E+02 -0.17984546501E+03 -0.52854227290E+03  0.56365867771E+03  0.25500000000E-02 0. -1.
<mgrwt>
<rscale>  0 0.19258442E+03</rscale>
<asrwt>0</asrwt>
<pdfrwt beam="1">  1       11 0.10000000E+01 0.11719929E+03</pdfrwt>
<pdfrwt beam="2">  1        2 0.86665914E-01 0.19258442E+03</pdfrwt>
<totfact> 0.68175302E+01</totfact>
</mgrwt>
</event>
<event>
 5    1  0.2804411E-003  0.3140034E+03  0.7818608E-02  0.1090201E+00
         11   -1    0    0    0    0  0.00000000000E+00  0.00000000000E+00  0.10004193182E+04  0.10004193182E+04  0.51100000000E-03 0.  1.
          2   -1    0    0  501    0 -0.00000000000E+00 -0.00000000000E+00 -0.16334112494E+03  0.16334112496E+03  0.25500000000E-02 0.  1.
         11    1    1    2    0    0 -0.20656946891E+03 -0.13089989288E+03  0.64751954798E+03  0.69216131968E+03  0.51100000000E-03 0.  1.
         22    1    1    2    0    0 -0.37906330869E+01 -0.69133791072E+02  0.16659290249E+03  0.18040799629E+03  0.00000000000E+00 0. -1.
          2    1    1    2  501    0  0.21036010199E+03  0.20003368395E+03  0.22965742836E+02  0.29119112723E+03  0.25500000000E-02 0.  1.
<mgrwt>
<rscale>  0 0.29028408E+03</rscale>
<asrwt>0</asrwt>
<pdfrwt beam="1">  1       11 0.10000000E+01 0.31400339E+03</pdfrwt>
<pdfrwt beam="2">  1        2 0.25139940E-01 0.29028408E+03</pdfrwt>
<totfact> 0.26467235E+02</totfact>
</mgrwt>
</event>
<event>
 5    1  0.2804411E-003  0.3519407E+03  0.7818608E-02  0.1066882E+00
         11   -1    0    0    0    0  0.00000000000E+00  0.00000000000E+00  0.10001250807E+04  0.10001250807E+04  0.51100000000E-03 0.  1.
          2   -1    0    0  501    0 -0.00000000000E+00 -0.00000000000E+00 -0.11973111116E+03  0.11973111118E+03  0.25500000000E-02 0.  1.
         11    1    1    2    0    0 -0.82146264453E+02 -0.28434590959E+02  0.15276976051E+03  0.17577011820E+03  0.51100000000E-03 0.  1.
         22    1    1    2    0    0 -0.25699163875E+03  0.49594542066E+02  0.31292165159E+03  0.40795132188E+03  0.00000000000E+00 0.  1.
          2    1    1    2  501    0  0.33913790320E+03 -0.21159951107E+02  0.41470255740E+03  0.53613475175E+03  0.25500000000E-02 0.  1.
<mgrwt>
<rscale>  0 0.33979738E+03</rscale>
<asrwt>0</asrwt>
<pdfrwt beam="1">  1       11 0.10000000E+01 0.35194066E+03</pdfrwt>
<pdfrwt beam="2">  1        2 0.18422474E-01 0.33979738E+03</pdfrwt>
<totfact> 0.37947656E+02</totfact>
</mgrwt>
</event>
<event>
 5    1  0.2804411E-003  0.8663723E+02  0.7818608E-02  0.1511002E+00
         11   -1    0    0    0    0  0.00000000000E+00  0.00000000000E+00  0.10001041621E+04  0.10001041621E+04  0.51100000000E-03 0. -1.
          2   -1    0    0  501    0 -0.00000000000E+00 -0.00000000000E+00 -0.17894685660E+02  0.17894685842E+02  0.25500000000E-02 0. -1.
         11    1    1    2    0    0  0.67107490773E+02 -0.68705606459E+02  0.15642383450E+03  0.18355460135E+03  0.51100000000E-03 0. -1.
         22    1    1    2    0    0 -0.18093541724E+02 -0.10085753845E+01  0.38410099705E+02  0.42470333597E+02  0.00000000000E+00 0. -1.
          2    1    1    2  501    0 -0.49013949049E+02  0.69714181843E+02  0.78737554221E+03  0.79197391297E+03  0.25500000000E-02 0. -1.
<mgrwt>
<rscale>  0 0.39623315E+02</rscale>
<asrwt>0</asrwt>
<pdfrwt beam="1">  1       11 0.10000000E+01 0.86637232E+02</pdfrwt>
<pdfrwt beam="2">  1        2 0.27533153E-02 0.39623315E+02</pdfrwt>
<totfact> 0.34803987E+03</totfact>
</mgrwt>
</event>
<event>
 5    1  0.2804411E-003  0.2285861E+03  0.7818608E-02  0.1128846E+00
         11   -1    0    0    0    0  0.00000000000E+00  0.00000000000E+00  0.10002071009E+04  0.10002071009E+04  0.51100000000E-03 0. -1.
          2   -1    0    0  501    0 -0.00000000000E+00 -0.00000000000E+00 -0.76455233930E+02  0.76455233973E+02  0.25500000000E-02 0. -1.
         11    1    1    2    0    0 -0.20499170558E+03 -0.66688184377E+02  0.70963819333E+03  0.74165711668E+03  0.51100000000E-03 0. -1.
         22    1    1    2    0    0 -0.12193022226E+02  0.10310837989E+01  0.58767571720E+02  0.60027996890E+02  0.00000000000E+00 0. -1.
          2    1    1    2  501    0  0.21718472781E+03  0.65657100579E+02  0.15534610194E+03  0.27497722132E+03  0.25500000000E-02 0. -1.
<mgrwt>
<rscale>  0 0.22689218E+03</rscale>
<asrwt>0</asrwt>
<pdfrwt beam="1">  1       11 0.10000000E+01 0.22858609E+03</pdfrwt>
<pdfrwt beam="2">  1        2 0.11764779E-01 0.22689218E+03</pdfrwt>
<totfact> 0.63969053E+02</totfact>
</mgrwt>
</event>
<event>
 5    1  0.2804411E-003  0.2089144E+03  0.7818608E-02  0.1142429E+00
         11   -1    0    0    0    0  0.00000000000E+00  0.00000000000E+00  0.10002582839E+04  0.10002582839E+04  0.51100000000E-03 0. -1.
          2   -1    0    0  501    0 -0.00000000000E+00 -0.00000000000E+00 -0.40866890523E+02  0.40866890602E+02  0.25500000000E-02 0. -1.
         11    1    1    2    0    0  0.10125769302E+03 -0.16619174481E+03  0.49626985561E+03  0.53306339776E+03  0.51100000000E-03 0. -1.
         22    1    1    2    0    0 -0.39548823426E+02  0.41454028596E+02  0.66736166427E+02  0.87956022140E+02  0.00000000000E+00 0.  1.
          2    1    1    2  501    0 -0.61708869595E+02  0.12473771622E+03  0.39638537130E+03  0.42010575457E+03  0.25500000000E-02 0. -1.
<mgrwt>
<rscale>  0 0.20891436E+03</rscale>
<asrwt>0</asrwt>
<pdfrwt beam="1">  1       11 0.10000000E+01 0.19460939E+03</pdfrwt>
<pdfrwt beam="2">  1        2 0.62888376E-02 0.20891436E+03</pdfrwt>
<totfact> 0.14034745E+03</totfact>
</mgrwt>
</event>
<event>
 5    1  0.2804411E-003  0.4571531E+02  0.7818608E-02  0.1469925E+00
         11   -1    0    0    0    0  0.00000000000E+00  0.00000000000E+00  0.10001919213E+04  0.10001919213E+04  0.51100000000E-03 0. -1.
          2   -1    0    0  501    0 -0.00000000000E+00 -0.00000000000E+00 -0.40182890306E+02  0.40182890387E+02  0.25500000000E-02 0. -1.
         11    1    1    2    0    0 -0.97435505114E+00  0.22241874574E+02 -0.27299823119E+02  0.35226846225E+02  0.51100000000E-03 0. -1.
         22    1    1    2    0    0  0.17323547176E+02  0.40914718656E+02  0.55666062125E+02  0.71223801935E+02  0.00000000000E+00 0. -1.
          2    1    1    2  501    0 -0.16349192125E+02 -0.63156593230E+02  0.93164279199E+03  0.93392416353E+03  0.25500000000E-02 0. -1.
<mgrwt>
<rscale>  0 0.45715307E+02</rscale>
<asrwt>0</asrwt>
<pdfrwt beam="1">  1       11 0.10000000E+01 0.22263217E+02</pdfrwt>
<pdfrwt beam="2">  1        2 0.61831694E-02 0.45715307E+02</pdfrwt>
<totfact> 0.12675888E+03</totfact>
</mgrwt>
</event>
<event>
 5    1  0.2804411E-003  0.2772502E+03  0.7818608E-02  0.1308012E+00
         11   -1    0    0    0    0  0.00000000000E+00  0.00000000000E+00  0.10002988922E+04  0.10002988922E+04  0.51100000000E-03 0.  1.
          2   -1    0    0  501    0 -0.00000000000E+00 -0.00000000000E+00 -0.12779781016E+03  0.12779781019E+03  0.25500000000E-02 0. -1.
         11    1    1    2    0    0 -0.21617656751E+03 -0.16307636544E+03  0.30271379672E+03  0.40615496061E+03  0.51100000000E-03 0.  1.
         22    1    1    2    0    0  0.27093232239E+03  0.94311339156E+02  0.56529792529E+03  0.63392483494E+03  0.00000000000E+00 0. -1.
          2    1    1    2  501    0 -0.54755754879E+02  0.68765026282E+02  0.44893600405E+01  0.88016906853E+02  0.25500000000E-02 0. -1.
<mgrwt>
<rscale>  0 0.87902341E+02</rscale>
<asrwt>0</asrwt>
<pdfrwt beam="1">  1       11 0.10000000E+01 0.27725020E+03</pdfrwt>
<pdfrwt beam="2">  1        2 0.19667078E-01 0.87902341E+02</pdfrwt>
<totfact> 0.33713673E+02</totfact>
</mgrwt>
</event>
<event>
 5    1  0.2804411E-003  0.2430723E+02  0.7818608E-02  0.1690484E+00
         11   -1    0    0    0    0  0.00000000000E+00  0.00000000000E+00  0.99997237922E+03  0.99997237922E+03  0.51100000000E-03 0. -1.
         -2   -1    0    0    0  501 -0.00000000000E+00 -0.00000000000E+00 -0.24986628610E+01  0.24986641622E+01  0.25500000000E-02 0. -1.
         11    1    1    2    0    0 -0.10779575459E+02  0.17566612629E+01  0.37219586928E+02  0.38788951483E+02  0.51100000000E-03 0. -1.
         22    1    1    2    0    0 -0.10988069297E+02  0.58650506108E+01  0.23098078599E+02  0.26242288781E+02  0.00000000000E+00 0. -1.
         -2    1    1    2    0  501  0.21767644755E+02 -0.76217118737E+01  0.93715605083E+03  0.93743980312E+03  0.25500000000E-02 0. -1.
<mgrwt>
<rscale>  0 0.23063409E+02</rscale>
<asrwt>0</asrwt>
<pdfrwt beam="1">  1       11 0.10000000E+01 0.24307230E+02</pdfrwt>
<pdfrwt beam="2">  1       -2 0.38439914E-03 0.23063409E+02</pdfrwt>
<totfact> 0.40292999E+04</totfact>
</mgrwt>
</event>
<event>
 5    1  0.2804411E-003  0.3318473E+03  0.7818608E-02  0.1072158E+00
         11   -1    0    0    0    0  0.00000000000E+00  0.00000000000E+00  0.10004255815E+04  0.10004255815E+04  0.51100000000E-03 0. -1.
         -2   -1    0    0    0  501 -0.00000000000E+00 -0.00000000000E+00 -0.12958963791E+03  0.12958963794E+03  0.25500000000E-02 0.  1.
         11    1    1    2    0    0  0.24976307150E+03 -0.96394057639E+02  0.56957242498E+03  0.62935375866E+03  0.51100000000E-03 0. -1.
         22    1    1    2    0    0  0.49218051077E+02 -0.37765750797E+02  0.94957891993E+02  0.11342693568E+03  0.00000000000E+00 0. -1.
         -2    1    1    2    0  501 -0.29898112258E+03  0.13415980844E+03  0.20630562662E+03  0.38723452511E+03  0.25500000000E-02 0.  1.
<mgrwt>
<rscale>  0 0.32770195E+03</rscale>
<asrwt>0</asrwt>
<pdfrwt beam="1">  1       11 0.10000000E+01 0.33184728E+03</pdfrwt>
<pdfrwt beam="2">  1       -2 0.19945352E-01 0.32770195E+03</pdfrwt>
<totfact> 0.17042299E+02</totfact>
</mgrwt>
</event>
<event>
 5    1  0.2804411E-003  0.1947767E+03  0.7818608E-02  0.1165419E+00
         11   -1    0    0    0    0  0.00000000000E+00  0.00000000000E+00  0.10006455327E+04  0.10006455327E+04  0.51100000000E-03 0. -1.
          2   -1    0    0  501    0 -0.00000000000E+00 -0.00000000000E+00 -0.70973670293E+02  0.70973670339E+02  0.25500000000E-02 0. -1.
         11    1    1    2    0    0  0.16130139322E+03 -0.18131076844E+02  0.74847114187E+03  0.76586939201E+03  0.51100000000E-03 0. -1.
         22    1    1    2    0    0  0.21125083566E+02  0.22782442435E+02  0.10234180116E+03  0.10695397657E+03  0.00000000000E+00 0. -1.
          2    1    1    2  501    0 -0.18242647678E+03 -0.46513655911E+01  0.78858919397E+02  0.19879583448E+03  0.25500000000E-02 0. -1.
<mgrwt>
<rscale>  0 0.18248577E+03</rscale>
<asrwt>0</asrwt>
<pdfrwt beam="1">  1       11 0.10000000E+01 0.19477671E+03</pdfrwt>
<pdfrwt beam="2">  1        2 0.10926074E-01 0.18248577E+03</pdfrwt>
<totfact> 0.69317283E+02</totfact>
</mgrwt>
</event>
<event>
 5    1  0.2804411E-003  0.3119403E+03  0.7818608E-02  0.1095597E+00
         11   -1    0    0    0    0  0.00000000000E+00  0.00000000000E+00  0.10001233827E+04  0.10001233827E+04  0.51100000000E-03 0. -1.
          2   -1    0    0  501    0 -0.00000000000E+00 -0.00000000000E+00 -0.25801597573E+03  0.25801597574E+03  0.25500000000E-02 0. -1.
         11    1    1    2    0    0 -0.24491712733E+02 -0.18370592859E+03  0.51251224846E+03  0.54499221739E+03  0.51100000000E-03 0. -1.
         22    1    1    2    0    0  0.90123630260E+02 -0.88667261700E+02  0.37624449527E+03  0.39691821859E+03  0.00000000000E+00 0. -1.
          2    1    1    2  501    0 -0.65631917527E+02  0.27237319029E+03 -0.14664933679E+03  0.31622892242E+03  0.25500000000E-02 0. -1.
<mgrwt>
<rscale>  0 0.28016906E+03</rscale>
<asrwt>0</asrwt>
<pdfrwt beam="1">  1       11 0.10000000E+01 0.31194025E+03</pdfrwt>
<pdfrwt beam="2">  1        2 0.39699662E-01 0.28016906E+03</pdfrwt>
<totfact> 0.15979662E+02</totfact>
</mgrwt>
</event>
<event>
 5    1  0.2804411E-003  0.1127656E+03  0.7818608E-02  0.1308324E+00
         11   -1    0    0    0    0  0.00000000000E+00  0.00000000000E+00  0.99997542778E+03  0.99997542778E+03  0.51100000000E-03 0.  1.
          2   -1    0    0  501    0 -0.00000000000E+00 -0.00000000000E+00 -0.24521606987E+02  0.24521607120E+02  0.25500000000E-02 0.  1.
         11    1    1    2    0    0 -0.48262001799E+02  0.84563376574E+02  0.19157127778E+03  0.21489471828E+03  0.51100000000E-03 0.  1.
         22    1    1    2    0    0 -0.64001632055E+02 -0.23924464559E+02  0.18342344140E+03  0.19573642422E+03  0.00000000000E+00 0.  1.
          2    1    1    2  501    0  0.11226363385E+03 -0.60638912015E+02  0.60045910160E+03  0.61386589239E+03  0.25500000000E-02 0.  1.
<mgrwt>
<rscale>  0 0.87777801E+02</rscale>
<asrwt>0</asrwt>
<pdfrwt beam="1">  1       11 0.10000000E+01 0.11276564E+03</pdfrwt>
<pdfrwt beam="2">  1        2 0.37724621E-02 0.87777801E+02</pdfrwt>
<totfact> 0.25448891E+03</totfact>
</mgrwt>
</event>
<event>
 5    1  0.2804411E-003  0.8123314E+02  0.7818608E-02  0.1327947E+00
         11   -1    0    0    0    0  0.00000000000E+00  0.00000000000E+00  0.10002138997E+04  0.10002138997E+04  0.51100000000E-03 0.  1.
         -2   -1    0    0    0  501 -0.00000000000E+00 -0.00000000000E+00 -0.65700091968E+01  0.65700096917E+01  0.25500000000E-02 0.  1.
         11    1    1    2    0    0 -0.69303793138E+02  0.11079213127E+02  0.41983008519E+03  0.42565604088E+03  0.51100000000E-03 0.  1.
         22    1    1    2    0    0 -0.99159603201E+01  0.25903809922E+01  0.39868837290E+02  0.41165040139E+02  0.00000000000E+00 0. -1.
         -2    1    1    2    0  501  0.79219753458E+02 -0.13669594119E+02  0.53394496805E+03  0.53996282840E+03  0.25500000000E-02 0.  1.
<mgrwt>
<rscale>  0 0.80390467E+02</rscale>
<asrwt>0</asrwt>
<pdfrwt beam="1">  1       11 0.10000000E+01 0.81233136E+02</pdfrwt>
<pdfrwt beam="2">  1       -2 0.10109869E-02 0.80390467E+02</pdfrwt>
<totfact> 0.14035676E+04</totfact>
</mgrwt>
</event>
<event>
 5    1  0.2804411E-003  0.7950334E+03  0.7818608E-02  0.9611408E-01
         11   -1    0    0    0    0  0.00000000000E+00  0.00000000000E+00  0.10000989701E+04  0.10000989701E+04  0.51100000000E-03 0. -1.
          2   -1    0    0  501    0 -0.00000000000E+00 -0.00000000000E+00 -0.10090604304E+04  0.10090604304E+04  0.25500000000E-02 0. -1.
         11    1    1    2    0    0 -0.41536173302E+03  0.33934468620E+03  0.30881767347E+03  0.61890915388E+03  0.51100000000E-03 0. -1.
         22    1    1    2    0    0 -0.20096726509E+03  0.11459720484E+03  0.31934207670E+03  0.39433453177E+03  0.00000000000E+00 0. -1.
          2    1    1    2  501    0  0.61632899812E+03 -0.45394189104E+03 -0.63712121048E+03  0.99591571491E+03  0.25500000000E-02 0. -1.
<mgrwt>
<rscale>  0 0.76545717E+03</rscale>
<asrwt>0</asrwt>
<pdfrwt beam="1">  1       11 0.10000000E+01 0.79503339E+03</pdfrwt>
<pdfrwt beam="2">  1        2 0.15525543E+00 0.76545717E+03</pdfrwt>
<totfact> 0.30879610E+01</totfact>
</mgrwt>
</event>
<event>
 5    1  0.2804411E-003  0.1258313E+03  0.7818608E-02  0.1425656E+00
         11   -1    0    0    0    0  0.00000000000E+00  0.00000000000E+00  0.10003822331E+04  0.10003822331E+04  0.51100000000E-03 0. -1.
          2   -1    0    0  501    0 -0.00000000000E+00 -0.00000000000E+00 -0.20890325310E+02  0.20890325466E+02  0.25500000000E-02 0. -1.
         11    1    1    2    0    0 -0.12345720999E+03  0.21620133934E+02  0.58923306997E+03  0.60241573986E+03  0.51100000000E-03 0. -1.
         22    1    1    2    0    0  0.32615975271E+01  0.22806471757E+02  0.77878041048E+02  0.81214299541E+02  0.00000000000E+00 0.  1.
          2    1    1    2  501    0  0.12019561246E+03 -0.44426605691E+02  0.31238079679E+03  0.33764251918E+03  0.25500000000E-02 0. -1.
<mgrwt>
<rscale>  0 0.53842059E+02</rscale>
<asrwt>0</asrwt>
<pdfrwt beam="1">  1       11 0.10000000E+01 0.12583134E+03</pdfrwt>
<pdfrwt beam="2">  1        2 0.32151246E-02 0.53842059E+02</pdfrwt>
<totfact> 0.29657663E+03</totfact>
</mgrwt>
</event>
<event>
 5    1  0.2804411E-003  0.1069248E+03  0.7818608E-02  0.1274535E+00
         11   -1    0    0    0    0  0.00000000000E+00  0.00000000000E+00  0.10000834149E+04  0.10000834149E+04  0.51100000000E-03 0. -1.
          2   -1    0    0  501    0 -0.00000000000E+00 -0.00000000000E+00 -0.11143678892E+02  0.11143679184E+02  0.25500000000E-02 0. -1.
         11    1    1    2    0    0  0.62029196389E+01 -0.74389234756E+02  0.27030767894E+03  0.28042552621E+03  0.51100000000E-03 0. -1.
         22    1    1    2    0    0  0.14077241290E+02 -0.26380844696E+02  0.17523293895E+03  0.17776585887E+03  0.00000000000E+00 0. -1.
          2    1    1    2  501    0 -0.20280160929E+02  0.10077007945E+03  0.54339911813E+03  0.55303570900E+03  0.25500000000E-02 0. -1.
<mgrwt>
<rscale>  0 0.10279053E+03</rscale>
<asrwt>0</asrwt>
<pdfrwt beam="1">  1       11 0.10000000E+01 0.10692475E+03</pdfrwt>
<pdfrwt beam="2">  1        2 0.17145551E-02 0.10279053E+03</pdfrwt>
<totfact> 0.74455777E+03</totfact>
</mgrwt>
</event>
<event>
 5    1  0.2804411E-003  0.7432444E+02  0.7818608E-02  0.1345976E+00
         11   -1    0    0    0    0  0.00000000000E+00  0.00000000000E+00  0.10002986866E+04  0.10002986866E+04  0.51100000000E-03 0. -1.
         -2   -1    0    0    0  501 -0.00000000000E+00 -0.00000000000E+00 -0.15099365042E+02  0.15099365257E+02  0.25500000000E-02 0. -1.
         11    1    1    2    0    0 -0.32192554576E+02  0.66030251921E+02  0.94103629318E+02  0.11938110315E+03  0.51100000000E-03 0. -1.
         22    1    1    2    0    0  0.32823086673E+01  0.10042118165E+02  0.57868903048E+02  0.58825399509E+02  0.00000000000E+00 0. -1.
         -2    1    1    2    0  501  0.28910245909E+02 -0.76072370086E+02  0.83322678917E+03  0.83719154917E+03  0.25500000000E-02 0. -1.
<mgrwt>
<rscale>  0 0.74324436E+02</rscale>
<asrwt>0</asrwt>
<pdfrwt beam="1">  1       11 0.10000000E+01 0.10564927E+02</pdfrwt>
<pdfrwt beam="2">  1       -2 0.23236730E-02 0.74324436E+02</pdfrwt>
<totfact> 0.42505511E+03</totfact>
</mgrwt>
</event>
<event>
 5    1  0.2804411E-003  0.3719239E+03  0.7818608E-02  0.1054792E+00
         11   -1    0    0    0    0  0.00000000000E+00  0.00000000000E+00  0.10007982906E+04  0.10007982906E+04  0.51100000000E-03 0.  1.
          2   -1    0    0  501    0 -0.00000000000E+00 -0.00000000000E+00 -0.58910782334E+03  0.58910782334E+03  0.25500000000E-02 0.  1.
         11    1    1    2    0    0 -0.32471783431E+03 -0.12730714027E+03  0.83088756320E+03  0.90112314506E+03  0.51100000000E-03 0.  1.
         22    1    1    2    0    0 -0.16510175087E+02 -0.15075286573E+02  0.71194472556E+02  0.74622403266E+02  0.00000000000E+00 0. -1.
          2    1    1    2  501    0  0.34122800939E+03  0.14238242685E+03 -0.49039156851E+03  0.61416056560E+03  0.25500000000E-02 0.  1.
<mgrwt>
<rscale>  0 0.36974222E+03</rscale>
<asrwt>0</asrwt>
<pdfrwt beam="1">  1       11 0.10000000E+01 0.37192388E+03</pdfrwt>
<pdfrwt beam="2">  1        2 0.90704321E-01 0.36974222E+03</pdfrwt>
<totfact> 0.63773459E+01</totfact>
</mgrwt>
</event>
<event>
 5    1  0.2804411E-003  0.6749999E+02  0.7818608E-02  0.1373558E+00
         11   -1    0    0    0    0  0.00000000000E+00  0.00000000000E+00  0.10001437291E+04  0.10001437291E+04  0.51100000000E-03 0. -1.
          2   -1    0    0  501    0 -0.00000000000E+00 -0.00000000000E+00 -0.73973920079E+01  0.73973924474E+01  0.25500000000E-02 0. -1.
         11    1    1    2    0    0 -0.55843867856E+02  0.91771974409E+00  0.14376226381E+03  0.15423024439E+03  0.51100000000E-03 0. -1.
         22    1    1    2    0    0 -0.10227290604E+02 -0.48491626124E+01  0.38517040114E+02  0.40145662659E+02  0.00000000000E+00 0. -1.
          2    1    1    2  501    0  0.66071158460E+02  0.39314428683E+01  0.81046703319E+03  0.81316521453E+03  0.25500000000E-02 0. -1.
<mgrwt>
<rscale>  0 0.66188022E+02</rscale>
<asrwt>0</asrwt>
<pdfrwt beam="1">  1       11 0.10000000E+01 0.67499990E+02</pdfrwt>
<pdfrwt beam="2">  1        2 0.11382239E-02 0.66188022E+02</pdfrwt>
<totfact> 0.12160655E+04</totfact>
</mgrwt>
</event>
<event>
 5    1  0.2804411E-003  0.2492929E+03  0.7818608E-02  0.1231136E+00
         11   -1    0    0    0    0  0.00000000000E+00  0.00000000000E+00  0.10000794848E+04  0.10000794848E+04  0.51100000000E-03 0. -1.
          2   -1    0    0  501    0 -0.00000000000E+00 -0.00000000000E+00 -0.47275369883E+03  0.47275369884E+03  0.25500000000E-02 0.  1.
         11    1    1    2    0    0  0.10216327498E+03 -0.26045924664E+03  0.79559791683E+03  0.84335781207E+03  0.51100000000E-03 0. -1.
         22    1    1    2    0    0 -0.13448144997E+03  0.13707059736E+03  0.11616690387E+03  0.22442896115E+03  0.00000000000E+00 0. -1.
          2    1    1    2  501    0  0.32318174990E+02  0.12338864928E+03 -0.38443903471E+03  0.40504641045E+03  0.25500000000E-02 0.  1.
<mgrwt>
<rscale>  0 0.12755087E+03</rscale>
<asrwt>0</asrwt>
<pdfrwt beam="1">  1       11 0.10000000E+01 0.24929285E+03</pdfrwt>
<pdfrwt beam="2">  1        2 0.72737117E-01 0.12755087E+03</pdfrwt>
<totfact> 0.83376836E+01</totfact>
</mgrwt>
</event>
<event>
 5    1  0.2804411E-003  0.1946891E+03  0.7818608E-02  0.1154299E+00
         11   -1    0    0    0    0  0.00000000000E+00  0.00000000000E+00  0.10003777825E+04  0.10003777825E+04  0.51100000000E-03 0.  1.
          2   -1    0    0  501    0 -0.00000000000E+00 -0.00000000000E+00 -0.95146308578E+02  0.95146308612E+02  0.25500000000E-02 0.  1.
         11    1    1    2    0    0 -0.11121779653E+03  0.87898197903E+02  0.28219741051E+03  0.31580194736E+03  0.51100000000E-03 0.  1.
         22    1    1    2    0    0 -0.11523422551E+03 -0.28259790574E+02  0.50255990053E+03  0.51637582836E+03  0.00000000000E+00 0.  1.
          2    1    1    2  501    0  0.22645202204E+03 -0.59638407330E+02  0.12047416293E+03  0.26334631544E+03  0.25500000000E-02 0.  1.
<mgrwt>
<rscale>  0 0.19468907E+03</rscale>
<asrwt>0</asrwt>
<pdfrwt beam="1">  1       11 0.10000000E+01 0.11864882E+03</pdfrwt>
<pdfrwt beam="2">  1        2 0.14643423E-01 0.19468907E+03</pdfrwt>
<totfact> 0.48838372E+02</totfact>
</mgrwt>
</event>
<event>
 5    1  0.2804411E-003  0.6485729E+02  0.7818608E-02  0.1642702E+00
         11   -1    0    0    0    0  0.00000000000E+00  0.00000000000E+00  0.10002688725E+04  0.10002688725E+04  0.51100000000E-03 0.  1.
          2   -1    0    0  501    0 -0.00000000000E+00 -0.00000000000E+00 -0.76612682417E+01  0.76612686661E+01  0.25500000000E-02 0.  1.
         11    1    1    2    0    0 -0.66914600578E+02  0.29213046667E+02  0.28844178719E+03  0.29753929230E+03  0.51100000000E-03 0.  1.
         22    1    1    2    0    0  0.96697062521E+01 -0.45414827761E+01  0.15020796428E+02  0.18432379395E+02  0.00000000000E+00 0. -1.
          2    1    1    2  501    0  0.57244894326E+02 -0.24671563891E+02  0.68914502068E+03  0.69195846951E+03  0.25500000000E-02 0.  1.
<mgrwt>
<rscale>  0 0.26322529E+02</rscale>
<asrwt>0</asrwt>
<pdfrwt beam="1">  1       11 0.10000000E+01 0.64857291E+02</pdfrwt>
<pdfrwt beam="2">  1        2 0.11789736E-02 0.26322529E+02</pdfrwt>
<totfact> 0.97801326E+03</totfact>
</mgrwt>
</event>
<event>
 5    1  0.2804411E-003  0.6747713E+02  0.7818608E-02  0.1373745E+00
         11   -1    0    0    0    0  0.00000000000E+00  0.00000000000E+00  0.10003900837E+04  0.10003900837E+04  0.51100000000E-03 0.  1.
          2   -1    0    0  501    0 -0.00000000000E+00 -0.00000000000E+00 -0.58358357306E+01  0.58358362877E+01  0.25500000000E-02 0.  1.
         11    1    1    2    0    0 -0.46428000802E+02  0.26955038694E+02  0.19402253607E+03  0.20131288552E+03  0.51100000000E-03 0.  1.
         22    1    1    2    0    0 -0.13395631781E+02  0.12451273886E+01  0.62920166359E+02  0.64342370392E+02  0.00000000000E+00 0. -1.
          2    1    1    2  501    0  0.59823632583E+02 -0.28200166083E+02  0.73761154557E+03  0.74057066411E+03  0.25500000000E-02 0.  1.
<mgrwt>
<rscale>  0 0.66137103E+02</rscale>
<asrwt>0</asrwt>
<pdfrwt beam="1">  1       11 0.10000000E+01 0.67477127E+02</pdfrwt>
<pdfrwt beam="2">  1        2 0.89817112E-03 0.66137103E+02</pdfrwt>
<totfact> 0.16761254E+04</totfact>
</mgrwt>
</event>
<event>
 5    1  0.2804411E-003  0.6750368E+03  0.7818608E-02  0.9824939E-01
         11   -1    0    0    0    0  0.00000000000E+00  0.00000000000E+00  0.10005767839E+04  0.10005767839E+04  0.51100000000E-03 0. -1.
          2   -1    0    0  501    0 -0.00000000000E+00 -0.00000000000E+00 -0.43250738401E+03  0.43250738401E+03  0.25500000000E-02 0. -1.
         11    1    1    2    0    0 -0.28849661313E+01  0.27388970360E+03  0.16443551785E+02  0.27439803783E+03  0.51100000000E-03 0. -1.
         22    1    1    2    0    0 -0.11024307650E+03  0.35645099286E+03  0.26148328026E+03  0.45561425799E+03  0.00000000000E+00 0. -1.
          2    1    1    2  501    0  0.11312804263E+03 -0.63034069646E+03  0.29014256785E+03  0.70307187209E+03  0.25500000000E-02 0. -1.
<mgrwt>
<rscale>  0 0.64041186E+03</rscale>
<asrwt>0</asrwt>
<pdfrwt beam="1">  1       11 0.10000000E+01 0.67503676E+03</pdfrwt>
<pdfrwt beam="2">  1        2 0.66577975E-01 0.64041186E+03</pdfrwt>
<totfact> 0.90152333E+01</totfact>
</mgrwt>
</event>
<event>
 5    1  0.2804411E-003  0.3717518E+03  0.7818608E-02  0.1055454E+00
         11   -1    0    0    0    0  0.00000000000E+00  0.00000000000E+00  0.10001308786E+04  0.10001308786E+04  0.51100000000E-03 0. -1.
          2   -1    0    0  501    0 -0.00000000000E+00 -0.00000000000E+00 -0.21928114899E+03  0.21928114901E+03  0.25500000000E-02 0. -1.
         11    1    1    2    0    0 -0.33754404231E+03 -0.12551908234E+03  0.75016124511E+03  0.83212553993E+03  0.51100000000E-03 0. -1.
         22    1    1    2    0    0 -0.10020164928E+02  0.45410797534E+01  0.15433944190E+02  0.18953409819E+02  0.00000000000E+00 0.  1.
          2    1    1    2  501    0  0.34756420724E+03  0.12097800259E+03  0.15254540338E+02  0.36833307790E+03  0.25500000000E-02 0. -1.
<mgrwt>
<rscale>  0 0.36801706E+03</rscale>
<asrwt>0</asrwt>
<pdfrwt beam="1">  1       11 0.10000000E+01 0.37175178E+03</pdfrwt>
<pdfrwt beam="2">  1        2 0.33739976E-01 0.36801706E+03</pdfrwt>
<totfact> 0.19136293E+02</totfact>
</mgrwt>
</event>
<event>
 5    1  0.2804411E-003  0.1390679E+03  0.7818608E-02  0.1221981E+00
         11   -1    0    0    0    0  0.00000000000E+00  0.00000000000E+00  0.10003302216E+04  0.10003302216E+04  0.51100000000E-03 0. -1.
          2   -1    0    0  501    0 -0.00000000000E+00 -0.00000000000E+00 -0.19243664219E+02  0.19243664388E+02  0.25500000000E-02 0. -1.
         11    1    1    2    0    0  0.63693865132E+02 -0.39019701395E+02  0.38878780437E+03  0.39589822225E+03  0.51100000000E-03 0. -1.
         22    1    1    2    0    0  0.37710925716E+02 -0.48208320557E+02  0.20401143421E+03  0.21299488580E+03  0.00000000000E+00 0. -1.
          2    1    1    2  501    0 -0.10140479085E+03  0.87228021953E+02  0.38828731884E+03  0.41068077798E+03  0.25500000000E-02 0. -1.
<mgrwt>
<rscale>  0 0.13375971E+03</rscale>
<asrwt>0</asrwt>
<pdfrwt beam="1">  1       11 0.10000000E+01 0.13906790E+03</pdfrwt>
<pdfrwt beam="2">  1        2 0.29615413E-02 0.13375971E+03</pdfrwt>
<totfact> 0.36656194E+03</totfact>
</mgrwt>
</event>
<event>
 5    1  0.2804411E-003  0.1009290E+03  0.7818608E-02  0.1278354E+00
         11   -1    0    0    0    0  0.00000000000E+00  0.00000000000E+00  0.10000853555E+04  0.10000853555E+04  0.51100000000E-03 0. -1.
          2   -1    0    0  501    0 -0.00000000000E+00 -0.00000000000E+00 -0.40350942836E+02  0.40350942917E+02  0.25500000000E-02 0. -1.
         11    1    1    2    0    0 -0.13133941979E+02  0.36445798636E+02 -0.22709181340E+01  0.38806619790E+02  0.51100000000E-03 0. -1.
         22    1    1    2    0    0 -0.88193352751E+02  0.39346419630E+02  0.14082167587E+03  0.17075407053E+03  0.00000000000E+00 0. -1.
          2    1    1    2  501    0  0.10132729473E+03 -0.75792218266E+02  0.82118365497E+03  0.83087560814E+03  0.25500000000E-02 0. -1.
<mgrwt>
<rscale>  0 0.10092899E+03</rscale>
<asrwt>0</asrwt>
<pdfrwt beam="1">  1       11 0.10000000E+01 0.38740136E+02</pdfrwt>
<pdfrwt beam="2">  1        2 0.62083671E-02 0.10092899E+03</pdfrwt>
<totfact> 0.13533770E+03</totfact>
</mgrwt>
</event>
<event>
 5    1  0.2804411E-003  0.1116464E+03  0.7818608E-02  0.1685209E+00
         11   -1    0    0    0    0  0.00000000000E+00  0.00000000000E+00  0.10000045945E+04  0.10000045945E+04  0.51100000000E-03 0.  1.
          2   -1    0    0  501    0 -0.00000000000E+00 -0.00000000000E+00 -0.38816516211E+03  0.38816516212E+03  0.25500000000E-02 0. -1.
         11    1    1    2    0    0  0.81712807718E+02  0.57645302228E+02  0.38849015787E+03  0.40115404345E+03  0.51100000000E-03 0.  1.
         22    1    1    2    0    0 -0.10252648961E+03 -0.68324718774E+02  0.59854360554E+03  0.61109278837E+03  0.00000000000E+00 0. -1.
          2    1    1    2  501    0  0.20813681892E+02  0.10679416546E+02 -0.37519433106E+03  0.37592292476E+03  0.25500000000E-02 0. -1.
<mgrwt>
<rscale>  0 0.23393574E+02</rscale>
<asrwt>0</asrwt>
<pdfrwt beam="1">  1       11 0.10000000E+01 0.11164644E+03</pdfrwt>
<pdfrwt beam="2">  1        2 0.59717990E-01 0.23393574E+02</pdfrwt>
<totfact> 0.10301202E+02</totfact>
</mgrwt>
</event>
<event>
 5    1  0.2804411E-003  0.2607901E+03  0.7818608E-02  0.1106669E+00
         11   -1    0    0    0    0  0.00000000000E+00  0.00000000000E+00  0.10010000357E+04  0.10010000357E+04  0.51100000000E-03 0.  1.
          2   -1    0    0  501    0 -0.00000000000E+00 -0.00000000000E+00 -0.29661534801E+04  0.29661534801E+04  0.25500000000E-02 0.  1.
         11    1    1    2    0    0  0.14601111310E+02  0.13443073896E+03  0.62958550979E+03  0.64394311097E+03  0.51100000000E-03 0.  1.
         22    1    1    2    0    0  0.16616606600E+03  0.55934988535E+02  0.33692640419E+03  0.37981480523E+03  0.00000000000E+00 0.  1.
          2    1    1    2  501    0 -0.18076717731E+03 -0.19036572750E+03 -0.29316653584E+04  0.29433955996E+04  0.25500000000E-02 0.  1.
<mgrwt>
<rscale>  0 0.26079014E+03</rscale>
<asrwt>0</asrwt>
<pdfrwt beam="1">  1       11 0.10000000E+01 0.13522136E+03</pdfrwt>
<pdfrwt beam="2">  1        2 0.45678764E+00 0.26079014E+03</pdfrwt>
<totfact> 0.27408421E+00</totfact>
</mgrwt>
</event>
<event>
 5    1  0.2804411E-003  0.1077793E+03  0.7818608E-02  0.1419335E+00
         11   -1    0    0    0    0  0.00000000000E+00  0.00000000000E+00  0.99999470557E+03  0.99999470557E+03  0.51100000000E-03 0. -1.
         -2   -1    0    0    0  501 -0.00000000000E+00 -0.00000000000E+00 -0.11919906108E+03  0.11919906111E+03  0.25500000000E-02 0. -1.
         11    1    1    2    0    0  0.83664124557E+02  0.46471890652E+02  0.48666816259E+03  0.49598913581E+03  0.51100000000E-03 0. -1.
         22    1    1    2    0    0 -0.90932252940E+02 -0.10115291885E+03  0.49221918364E+03  0.51066653734E+03  0.00000000000E+00 0.  1.
         -2    1    1    2    0  501  0.72681283826E+01  0.54681028197E+02 -0.98091701752E+02  0.11253809352E+03  0.25500000000E-02 0. -1.
<mgrwt>
<rscale>  0 0.55161948E+02</rscale>
<asrwt>0</asrwt>
<pdfrwt beam="1">  1       11 0.10000000E+01 0.10777926E+03</pdfrwt>
<pdfrwt beam="2">  1       -2 0.18338219E-01 0.55161948E+02</pdfrwt>
<totfact> 0.18390105E+02</totfact>
</mgrwt>
</event>
<event>
 5    1  0.2804411E-003  0.1243842E+03  0.7818608E-02  0.1236035E+00
         11   -1    0    0    0    0  0.00000000000E+00  0.00000000000E+00  0.10002939096E+04  0.10002939096E+04  0.51100000000E-03 0.  1.
          2   -1    0    0  501    0 -0.00000000000E+00 -0.00000000000E+00 -0.15148076649E+03  0.15148076651E+03  0.25500000000E-02 0.  1.
         11    1    1    2    0    0  0.67243753146E+02  0.13060308640E+03  0.85507497301E+03  0.86760134739E+03  0.51100000000E-03 0.  1.
         22    1    1    2    0    0 -0.43805689430E+01 -0.24071119210E+02  0.11103893841E+03  0.11370248021E+03  0.00000000000E+00 0. -1.
          2    1    1    2  501    0 -0.62863184203E+02 -0.10653196719E+03 -0.11730076827E+03  0.17047084855E+03  0.25500000000E-02 0.  1.
<mgrwt>
<rscale>  0 0.12438418E+03</rscale>
<asrwt>0</asrwt>
<pdfrwt beam="1">  1       11 0.10000000E+01 0.24466470E+02</pdfrwt>
<pdfrwt beam="2">  1        2 0.23311582E-01 0.12438418E+03</pdfrwt>
<totfact> 0.28226941E+02</totfact>
</mgrwt>
</event>
<event>
 5    1  0.2804411E-003  0.1591976E+03  0.7818608E-02  0.1198574E+00
         11   -1    0    0    0    0  0.00000000000E+00  0.00000000000E+00  0.10000098421E+04  0.10000098421E+04  0.51100000000E-03 0.  1.
          2   -1    0    0  501    0 -0.00000000000E+00 -0.00000000000E+00 -0.27803864267E+02  0.27803864383E+02  0.25500000000E-02 0.  1.
         11    1    1    2    0    0  0.18959334323E+02 -0.49923880717E+02  0.62347416624E+02  0.82091720556E+02  0.51100000000E-03 0.  1.
         22    1    1    2    0    0  0.33543934954E+02 -0.92247055613E+02  0.24767434640E+03  0.26641564651E+03  0.00000000000E+00 0.  1.
          2    1    1    2  501    0 -0.52503269277E+02  0.14217093633E+03  0.66218421481E+03  0.67930633942E+03  0.25500000000E-02 0.  1.
<mgrwt>
<rscale>  0 0.15155583E+03</rscale>
<asrwt>0</asrwt>
<pdfrwt beam="1">  1       11 0.10000000E+01 0.15919765E+03</pdfrwt>
<pdfrwt beam="2">  1        2 0.42775596E-02 0.15155583E+03</pdfrwt>
<totfact> 0.22707464E+03</totfact>
</mgrwt>
</event>
<event>
 5    1  0.2804411E-003  0.9586794E+02  0.7818608E-02  0.1297624E+00
         11   -1    0    0    0    0  0.00000000000E+00  0.00000000000E+00  0.99999400078E+03  0.99999400078E+03  0.51100000000E-03 0.  1.
          2   -1    0    0  501    0 -0.00000000000E+00 -0.00000000000E+00 -0.93271272558E+01  0.93271276044E+01  0.25500000000E-02 0.  1.
         11    1    1    2    0    0 -0.25761137051E+02 -0.61019600142E+02  0.30616621902E+03  0.31324875331E+03  0.51100000000E-03 0.  1.
         22    1    1    2    0    0  0.12374512510E+01 -0.27852799050E+02  0.83251567740E+02  0.87795975032E+02  0.00000000000E+00 0.  1.
          2    1    1    2  501    0  0.24523685800E+02  0.88872399192E+02  0.60124908677E+03  0.60827640004E+03  0.25500000000E-02 0.  1.
<mgrwt>
<rscale>  0 0.92193896E+02</rscale>
<asrwt>0</asrwt>
<pdfrwt beam="1">  1       11 0.10000000E+01 0.95867938E+02</pdfrwt>
<pdfrwt beam="2">  1        2 0.14349340E-02 0.92193896E+02</pdfrwt>
<totfact> 0.93454791E+03</totfact>
</mgrwt>
</event>
<event>
 5    1  0.2804411E-003  0.5978671E+02  0.7818608E-02  0.1403715E+00
         11   -1    0    0    0    0  0.00000000000E+00  0.00000000000E+00  0.10004971389E+04  0.10004971389E+04  0.51100000000E-03 0.  1.
          2   -1    0    0  501    0 -0.00000000000E+00 -0.00000000000E+00 -0.72999769982E+01  0.72999774436E+01  0.25500000000E-02 0.  1.
         11    1    1    2    0    0 -0.13205904242E+02 -0.12123499960E+02  0.29492516392E+02  0.34513528964E+02  0.51100000000E-03 0.  1.
         22    1    1    2    0    0 -0.33449706408E+02 -0.23367074641E+02  0.10606332543E+03  0.11364124268E+03  0.00000000000E+00 0.  1.
          2    1    1    2  501    0  0.46655610650E+02  0.35490574601E+02  0.85764132007E+03  0.85964234470E+03  0.25500000000E-02 0.  1.
<mgrwt>
<rscale>  0 0.58620192E+02</rscale>
<asrwt>0</asrwt>
<pdfrwt beam="1">  1       11 0.10000000E+01 0.59786705E+02</pdfrwt>
<pdfrwt beam="2">  1        2 0.11236317E-02 0.58620192E+02</pdfrwt>
<totfact> 0.12124335E+04</totfact>
</mgrwt>
</event>
<event>
 5    1  0.2804411E-003  0.2487167E+03  0.7818608E-02  0.1132339E+00
         11   -1    0    0    0    0  0.00000000000E+00  0.00000000000E+00  0.99996642798E+03  0.99996642798E+03  0.51100000000E-03 0. -1.
          2   -1    0    0  501    0 -0.00000000000E+00 -0.00000000000E+00 -0.66748896483E+02  0.66748896531E+02  0.25500000000E-02 0. -1.
         11    1    1    2    0    0 -0.11493270725E+03  0.39541211984E+01  0.28498079702E+03  0.30730964342E+03  0.51100000000E-03 0. -1.
         22    1    1    2    0    0 -0.84820143107E+02 -0.10101176195E+03  0.42302608756E+03  0.44311274353E+03  0.00000000000E+00 0. -1.
          2    1    1    2  501    0  0.19975285036E+03  0.97057640748E+02  0.22521064692E+03  0.31629293755E+03  0.25500000000E-02 0. -1.
<mgrwt>
<rscale>  0 0.22208419E+03</rscale>
<asrwt>0</asrwt>
<pdfrwt beam="1">  1       11 0.10000000E+01 0.24871673E+03</pdfrwt>
<pdfrwt beam="2">  1        2 0.10268716E-01 0.22208419E+03</pdfrwt>
<totfact> 0.75552066E+02</totfact>
</mgrwt>
</event>
<event>
 5    1  0.2804411E-003  0.2521789E+03  0.7818608E-02  0.1122522E+00
         11   -1    0    0    0    0  0.00000000000E+00  0.00000000000E+00  0.10000106505E+04  0.10000106505E+04  0.51100000000E-03 0. -1.
         -2   -1    0    0    0  501 -0.00000000000E+00 -0.00000000000E+00 -0.25563843048E+03  0.25563843049E+03  0.25500000000E-02 0.  1.
         11    1    1    2    0    0  0.34035813954E+02 -0.10475383694E+03  0.32569168920E+03  0.34381227349E+03  0.51100000000E-03 0. -1.
         22    1    1    2    0    0 -0.42672719158E+02 -0.13103547833E+03  0.59914345612E+03  0.61478788094E+03  0.00000000000E+00 0. -1.
         -2    1    1    2    0  501  0.86369052039E+01  0.23578931527E+03 -0.18046292533E+03  0.29704892653E+03  0.25500000000E-02 0.  1.
<mgrwt>
<rscale>  0 0.23594745E+03</rscale>
<asrwt>0</asrwt>
<pdfrwt beam="1">  1       11 0.10000000E+01 0.25217892E+03</pdfrwt>
<pdfrwt beam="2">  1       -2 0.39329407E-01 0.23594745E+03</pdfrwt>
<totfact> 0.49717283E+01</totfact>
</mgrwt>
</event>
<event>
 5    1  0.2804411E-003  0.3919190E+02  0.7818608E-02  0.1554536E+00
         11   -1    0    0    0    0  0.00000000000E+00  0.00000000000E+00  0.10005238768E+04  0.10005238768E+04  0.51100000000E-03 0. -1.
          2   -1    0    0  501    0 -0.00000000000E+00 -0.00000000000E+00 -0.86335150082E+01  0.86335153848E+01  0.25500000000E-02 0. -1.
         11    1    1    2    0    0  0.32644370825E+02 -0.80739019491E+01  0.43881965285E+02  0.55285348121E+02  0.51100000000E-03 0. -1.
         22    1    1    2    0    0  0.13636243629E+01  0.30058880440E+02  0.89767213796E+02  0.94676018281E+02  0.00000000000E+00 0. -1.
          2    1    1    2  501    0 -0.34007995188E+02 -0.21984978491E+02  0.85824118268E+03  0.85919602575E+03  0.25500000000E-02 0. -1.
<mgrwt>
<rscale>  0 0.34340582E+02</rscale>
<asrwt>0</asrwt>
<pdfrwt beam="1">  1       11 0.10000000E+01 0.39191898E+02</pdfrwt>
<pdfrwt beam="2">  1        2 0.13289289E-02 0.34340582E+02</pdfrwt>
<totfact> 0.88099729E+03</totfact>
</mgrwt>
</event>
<event>
 5    1  0.2804411E-003  0.5405173E+02  0.7818608E-02  0.1424637E+00
         11   -1    0    0    0    0  0.00000000000E+00  0.00000000000E+00  0.99998079829E+03  0.99998079829E+03  0.51100000000E-03 0. -1.
          2   -1    0    0  501    0 -0.00000000000E+00 -0.00000000000E+00 -0.69408610702E+01  0.69408615386E+01  0.25500000000E-02 0. -1.
         11    1    1    2    0    0  0.25421458963E+02 -0.28609584894E+02  0.16813097320E+03  0.17243196650E+03  0.51100000000E-03 0. -1.
         22    1    1    2    0    0 -0.40589917561E+02 -0.34414089858E+02  0.23083638946E+03  0.23689092360E+03  0.00000000000E+00 0. -1.
          2    1    1    2  501    0  0.15168458598E+02  0.63023674752E+02  0.59407257456E+03  0.59759876972E+03  0.25500000000E-02 0. -1.
<mgrwt>
<rscale>  0 0.54051726E+02</rscale>
<asrwt>0</asrwt>
<pdfrwt beam="1">  1       11 0.10000000E+01 0.38272188E+02</pdfrwt>
<pdfrwt beam="2">  1        2 0.10678043E-02 0.54051726E+02</pdfrwt>
<totfact> 0.12803582E+04</totfact>
</mgrwt>
</event>
<event>
 5    1  0.2804411E-003  0.3057741E+02  0.7818608E-02  0.1727934E+00
         11   -1    0    0    0    0  0.00000000000E+00  0.00000000000E+00  0.10003723837E+04  0.10003723837E+04  0.51100000000E-03 0.  1.
          2   -1    0    0  501    0 -0.00000000000E+00 -0.00000000000E+00 -0.30472782759E+01  0.30472793428E+01  0.25500000000E-02 0.  1.
         11    1    1    2    0    0  0.22177990699E+02 -0.40283063433E+01  0.63290523419E+02  0.67184677407E+02  0.51100000000E-03 0.  1.
         22    1    1    2    0    0  0.46234409260E+01 -0.13521698984E+02  0.62544426602E+02  0.64156198830E+02  0.00000000000E+00 0.  1.
          2    1    1    2  501    0 -0.26801431625E+02  0.17550005327E+02  0.87149015536E+03  0.87207878676E+03  0.25500000000E-02 0.  1.
<mgrwt>
<rscale>  0 0.20903589E+02</rscale>
<asrwt>0</asrwt>
<pdfrwt beam="1">  1       11 0.10000000E+01 0.30577412E+02</pdfrwt>
<pdfrwt beam="2">  1        2 0.46898669E-03 0.20903589E+02</pdfrwt>
<totfact> 0.30906646E+04</totfact>
</mgrwt>
</event>
<event>
 5    1  0.2804411E-003  0.2892851E+03  0.7818608E-02  0.1090723E+00
         11   -1    0    0    0    0  0.00000000000E+00  0.00000000000E+00  0.99987191976E+03  0.99987191976E+03  0.51100000000E-03 0.  1.
          2   -1    0    0  501    0 -0.00000000000E+00 -0.00000000000E+00 -0.15667635885E+04  0.15667635886E+04  0.25500000000E-02 0.  1.
         11    1    1    2    0    0  0.12129482475E+02 -0.24171641460E+03  0.39150681867E+03  0.46027333020E+03  0.51100000000E-03 0.  1.
         22    1    1    2    0    0  0.25822839254E+03  0.13201441693E+03  0.52217853250E+03  0.59731074726E+03  0.00000000000E+00 0.  1.
          2    1    1    2  501    0 -0.27035787502E+03  0.10970199768E+03 -0.14805770200E+04  0.15090514308E+04  0.25500000000E-02 0.  1.
<mgrwt>
<rscale>  0 0.28928506E+03</rscale>
<asrwt>0</asrwt>
<pdfrwt beam="1">  1       11 0.10000000E+01 0.24202056E+03</pdfrwt>
<pdfrwt beam="2">  1        2 0.24100967E+00 0.28928506E+03</pdfrwt>
<totfact> 0.15683318E+01</totfact>
</mgrwt>
</event>
<event>
 5    1  0.2804411E-003  0.1178919E+03  0.7818608E-02  0.1246616E+00
         11   -1    0    0    0    0  0.00000000000E+00  0.00000000000E+00  0.10000533441E+04  0.10000533441E+04  0.51100000000E-03 0.  1.
          2   -1    0    0  501    0 -0.00000000000E+00 -0.00000000000E+00 -0.15280716887E+02  0.15280717100E+02  0.25500000000E-02 0.  1.
         11    1    1    2    0    0  0.54328586155E+02  0.10265040689E+03  0.48701912113E+03  0.50067586886E+03  0.51100000000E-03 0.  1.
         22    1    1    2    0    0 -0.78333212758E+01  0.76864591981E+01  0.48140208821E+02  0.49375320581E+02  0.00000000000E+00 0. -1.
          2    1    1    2  501    0 -0.46495264880E+02 -0.11033686608E+03  0.44961329721E+03  0.46528287172E+03  0.25500000000E-02 0.  1.
<mgrwt>
<rscale>  0 0.11789195E+03</rscale>
<asrwt>0</asrwt>
<pdfrwt beam="1">  1       11 0.10000000E+01 0.10974633E+02</pdfrwt>
<pdfrwt beam="2">  1        2 0.23510049E-02 0.11789195E+03</pdfrwt>
<totfact> 0.49355618E+03</totfact>
</mgrwt>
</event>
<event>
 5    1  0.2804411E-003  0.1134056E+03  0.7818608E-02  0.1277362E+00
         11   -1    0    0    0    0  0.00000000000E+00  0.00000000000E+00  0.99993541098E+03  0.99993541098E+03  0.51100000000E-03 0. -1.
          2   -1    0    0  501    0 -0.00000000000E+00 -0.00000000000E+00 -0.33081179574E+02  0.33081179672E+02  0.25500000000E-02 0. -1.
         11    1    1    2    0    0  0.74563306789E+02  0.73223765666E+02  0.14386192096E+03  0.17781355089E+03  0.51100000000E-03 0. -1.
         22    1    1    2    0    0  0.51097021339E+02 -0.74913716890E+02  0.19907833776E+03  0.21875821158E+03  0.00000000000E+00 0. -1.
          2    1    1    2  501    0 -0.12566032813E+03  0.16899512234E+01  0.62391397270E+03  0.63644482819E+03  0.25500000000E-02 0. -1.
<mgrwt>
<rscale>  0 0.10140848E+03</rscale>
<asrwt>0</asrwt>
<pdfrwt beam="1">  1       11 0.10000000E+01 0.11340558E+03</pdfrwt>
<pdfrwt beam="2">  1        2 0.50890834E-02 0.10140848E+03</pdfrwt>
<totfact> 0.17471837E+03</totfact>
</mgrwt>
</event>
<event>
 5    1  0.2804411E-003  0.9048990E+02  0.7818608E-02  0.1550011E+00
         11   -1    0    0    0    0  0.00000000000E+00  0.00000000000E+00  0.10002176786E+04  0.10002176786E+04  0.51100000000E-03 0. -1.
          2   -1    0    0  501    0 -0.00000000000E+00 -0.00000000000E+00 -0.75956564906E+02  0.75956564949E+02  0.25500000000E-02 0. -1.
         11    1    1    2    0    0  0.67970618258E+02  0.33231931337E+02  0.36823716636E+03  0.37592948394E+03  0.51100000000E-03 0. -1.
         22    1    1    2    0    0 -0.10254855101E+03 -0.37510925703E+02  0.61884714464E+03  0.62840676579E+03  0.00000000000E+00 0. -1.
          2    1    1    2  501    0  0.34577932751E+02  0.42789943662E+01 -0.62823197319E+02  0.71837993806E+02  0.25500000000E-02 0. -1.
<mgrwt>
<rscale>  0 0.34841688E+02</rscale>
<asrwt>0</asrwt>
<pdfrwt beam="1">  1       11 0.10000000E+01 0.90489898E+02</pdfrwt>
<pdfrwt beam="2">  1        2 0.11688169E-01 0.34841688E+02</pdfrwt>
<totfact> 0.57779859E+02</totfact>
</mgrwt>
</event>
<event>
 5    1  0.2804411E-003  0.2374317E+03  0.7818608E-02  0.1124577E+00
         11   -1    0    0    0    0  0.00000000000E+00  0.00000000000E+00  0.10000235630E+04  0.10000235630E+04  0.51100000000E-03 0.  1.
         -2   -1    0    0    0  501 -0.00000000000E+00 -0.00000000000E+00 -0.20702384543E+03  0.20702384545E+03  0.25500000000E-02 0.  1.
         11    1    1    2    0    0 -0.99119730345E+02  0.15022670491E+03  0.77177454047E+03  0.79248263396E+03  0.51100000000E-03 0.  1.
         22    1    1    2    0    0 -0.33994348310E+02  0.40951244105E+02  0.14236940487E+03  0.15199232729E+03  0.00000000000E+00 0.  1.
         -2    1    1    2    0  501  0.13311407866E+03 -0.19117794901E+03 -0.12114422774E+03  0.26257244723E+03  0.25500000000E-02 0.  1.
<mgrwt>
<rscale>  0 0.23295572E+03</rscale>
<asrwt>0</asrwt>
<pdfrwt beam="1">  1       11 0.10000000E+01 0.23743167E+03</pdfrwt>
<pdfrwt beam="2">  1       -2 0.31850572E-01 0.23295572E+03</pdfrwt>
<totfact> 0.73758998E+01</totfact>
</mgrwt>
</event>
<event>
 5    1  0.2804411E-003  0.2873253E+03  0.7818608E-02  0.1091754E+00
         11   -1    0    0    0    0  0.00000000000E+00  0.00000000000E+00  0.10001599555E+04  0.10001599555E+04  0.51100000000E-03 0. -1.
          2   -1    0    0  501    0 -0.00000000000E+00 -0.00000000000E+00 -0.33372999546E+03  0.33372999547E+03  0.25500000000E-02 0.  1.
         11    1    1    2    0    0 -0.13655635779E+03  0.16780262186E+03  0.42637209190E+03  0.47811977528E+03  0.51100000000E-03 0. -1.
         22    1    1    2    0    0  0.23865866721E+01  0.10022727747E+03  0.46837250907E+03  0.47898226501E+03  0.00000000000E+00 0. -1.
          2    1    1    2  501    0  0.13416977112E+03 -0.26802989933E+03 -0.22831464089E+03  0.37678791072E+03  0.25500000000E-02 0.  1.
<mgrwt>
<rscale>  0 0.28732527E+03</rscale>
<asrwt>0</asrwt>
<pdfrwt beam="1">  1       11 0.10000000E+01 0.10025569E+03</pdfrwt>
<pdfrwt beam="2">  1        2 0.51351287E-01 0.28732527E+03</pdfrwt>
<totfact> 0.12088378E+02</totfact>
</mgrwt>
</event>
<event>
 5    1  0.2804411E-003  0.8798857E+02  0.7818608E-02  0.1570412E+00
         11   -1    0    0    0    0  0.00000000000E+00  0.00000000000E+00  0.10001335184E+04  0.10001335184E+04  0.51100000000E-03 0. -1.
          2   -1    0    0  501    0 -0.00000000000E+00 -0.00000000000E+00 -0.18961855755E+03  0.18961855757E+03  0.25500000000E-02 0. -1.
         11    1    1    2    0    0 -0.66404160038E+02 -0.46005110619E+02  0.48434236603E+03  0.49103310500E+03  0.51100000000E-03 0. -1.
         22    1    1    2    0    0  0.95819007414E+02  0.31810416168E+02  0.50598760644E+03  0.51596186160E+03  0.00000000000E+00 0. -1.
          2    1    1    2  501    0 -0.29414847376E+02  0.14194694451E+02 -0.17981501164E+03  0.18275710934E+03  0.25500000000E-02 0. -1.
<mgrwt>
<rscale>  0 0.32660720E+02</rscale>
<asrwt>0</asrwt>
<pdfrwt beam="1">  1       11 0.10000000E+01 0.87988567E+02</pdfrwt>
<pdfrwt beam="2">  1        2 0.29175980E-01 0.32660720E+02</pdfrwt>
<totfact> 0.21264375E+02</totfact>
</mgrwt>
</event>
<event>
 5    1  0.2804411E-003  0.8665391E+02  0.7818608E-02  0.1311163E+00
         11   -1    0    0    0    0  0.00000000000E+00  0.00000000000E+00  0.10001664971E+04  0.10001664971E+04  0.51100000000E-03 0.  1.
          2   -1    0    0  501    0 -0.00000000000E+00 -0.00000000000E+00 -0.13378363940E+02  0.13378364183E+02  0.25500000000E-02 0.  1.
         11    1    1    2    0    0 -0.39391082099E+02  0.70722285067E+02  0.29947325604E+03  0.31022174334E+03  0.51100000000E-03 0.  1.
         22    1    1    2    0    0  0.36406313725E+02  0.30067480222E+02  0.26182205299E+03  0.26604559849E+03  0.00000000000E+00 0.  1.
          2    1    1    2  501    0  0.29847683745E+01 -0.10078976529E+03  0.42549282416E+03  0.43727751948E+03  0.25500000000E-02 0.  1.
<mgrwt>
<rscale>  0 0.86653910E+02</rscale>
<asrwt>0</asrwt>
<pdfrwt beam="1">  1       11 0.10000000E+01 0.47217296E+02</pdfrwt>
<pdfrwt beam="2">  1        2 0.20585525E-02 0.86653910E+02</pdfrwt>
<totfact> 0.56859410E+03</totfact>
</mgrwt>
</event>
<event>
 5    1  0.2804411E-003  0.2926367E+03  0.7818608E-02  0.1096924E+00
         11   -1    0    0    0    0  0.00000000000E+00  0.00000000000E+00  0.99976627549E+03  0.99976627549E+03  0.51100000000E-03 0. -1.
          2   -1    0    0  501    0 -0.00000000000E+00 -0.00000000000E+00 -0.89421910255E+02  0.89421910291E+02  0.25500000000E-02 0. -1.
         11    1    1    2    0    0  0.15444067384E+03  0.16847060126E+03  0.45483900293E+03  0.50903122086E+03  0.51100000000E-03 0. -1.
         22    1    1    2    0    0  0.13720330500E+01  0.61458256611E+02  0.17466930454E+03  0.18517117953E+03  0.00000000000E+00 0.  1.
          2    1    1    2  501    0 -0.15581270689E+03 -0.22992885788E+03  0.28083605777E+03  0.39498578539E+03  0.25500000000E-02 0. -1.
<mgrwt>
<rscale>  0 0.27774967E+03</rscale>
<asrwt>0</asrwt>
<pdfrwt beam="1">  1       11 0.10000000E+01 0.29263674E+03</pdfrwt>
<pdfrwt beam="2">  1        2 0.13754001E-01 0.27774967E+03</pdfrwt>
<totfact> 0.53355410E+02</totfact>
</mgrwt>
</event>
<event>
 5    1  0.2804411E-003  0.2347116E+03  0.7818608E-02  0.1260155E+00
         11   -1    0    0    0    0  0.00000000000E+00  0.00000000000E+00  0.10000464222E+04  0.10000464222E+04  0.51100000000E-03 0.  1.
          2   -1    0    0  501    0 -0.00000000000E+00 -0.00000000000E+00 -0.28392859931E+03  0.28392859932E+03  0.25500000000E-02 0.  1.
         11    1    1    2    0    0  0.22209695921E+01  0.27209447083E+03 -0.14998699532E+03  0.31070312604E+03  0.51100000000E-03 0.  1.
         22    1    1    2    0    0  0.30314823834E+02 -0.41957519756E+02 -0.21270127749E+02  0.55962847879E+02  0.00000000000E+00 0.  1.
          2    1    1    2  501    0 -0.32535793427E+02 -0.23013695108E+03  0.88737494595E+03  0.91730904760E+03  0.25500000000E-02 0.  1.
<mgrwt>
<rscale>  0 0.11022432E+03</rscale>
<asrwt>0</asrwt>
<pdfrwt beam="1">  1       11 0.10000000E+01 0.23471160E+03</pdfrwt>
<pdfrwt beam="2">  1        2 0.43683350E-01 0.11022432E+03</pdfrwt>
<totfact> 0.14334778E+02</totfact>
</mgrwt>
</event>
<event>
 5    1  0.2804411E-003  0.6023184E+02  0.7818608E-02  0.1604304E+00
         11   -1    0    0    0    0  0.00000000000E+00  0.00000000000E+00  0.10004908253E+04  0.10004908253E+04  0.51100000000E-03 0. -1.
          2   -1    0    0  501    0 -0.00000000000E+00 -0.00000000000E+00 -0.59575057834E+01  0.59575063291E+01  0.25500000000E-02 0. -1.
         11    1    1    2    0    0 -0.50899996739E+02 -0.32325933253E+02  0.22755779178E+03  0.23541096880E+03  0.51100000000E-03 0. -1.
         22    1    1    2    0    0 -0.65226117814E+01  0.12832061459E+02  0.72235461523E+02  0.73655740897E+02  0.00000000000E+00 0. -1.
          2    1    1    2  501    0  0.57422608520E+02  0.19493871794E+02  0.69474006625E+03  0.69738162197E+03  0.25500000000E-02 0. -1.
<mgrwt>
<rscale>  0 0.29445144E+02</rscale>
<asrwt>0</asrwt>
<pdfrwt beam="1">  1       11 0.10000000E+01 0.60231843E+02</pdfrwt>
<pdfrwt beam="2">  1        2 0.91698923E-03 0.29445144E+02</pdfrwt>
<totfact> 0.13927857E+04</totfact>
</mgrwt>
</event>
<event>
 5    1  0.2804411E-003  0.6732960E+02  0.7818608E-02  0.1579726E+00
         11   -1    0    0    0    0  0.00000000000E+00  0.00000000000E+00  0.10001595625E+04  0.10001595625E+04  0.51100000000E-03 0. -1.
          2   -1    0    0  501    0 -0.00000000000E+00 -0.00000000000E+00 -0.59861383930E+01  0.59861389361E+01  0.25500000000E-02 0. -1.
         11    1    1    2    0    0 -0.32548927755E+02 -0.53285353549E+02  0.29601990302E+03  0.30253354291E+03  0.51100000000E-03 0. -1.
         22    1    1    2    0    0  0.75193974770E+01 -0.12924059410E+02  0.76969987561E+02  0.78408874723E+02  0.00000000000E+00 0.  1.
          2    1    1    2  501    0  0.25029530278E+02  0.66209412960E+02  0.62118353355E+03  0.62520328383E+03  0.25500000000E-02 0. -1.
<mgrwt>
<rscale>  0 0.31729087E+02</rscale>
<asrwt>0</asrwt>
<pdfrwt beam="1">  1       11 0.10000000E+01 0.67329601E+02</pdfrwt>
<pdfrwt beam="2">  1        2 0.92109133E-03 0.31729087E+02</pdfrwt>
<totfact> 0.14067552E+04</totfact>
</mgrwt>
</event>
<event>
 5    1  0.2804411E-003  0.2188771E+03  0.7818608E-02  0.1343010E+00
         11   -1    0    0    0    0  0.00000000000E+00  0.00000000000E+00  0.10000792312E+04  0.10000792312E+04  0.51100000000E-03 0.  1.
          2   -1    0    0  501    0 -0.00000000000E+00 -0.00000000000E+00 -0.56400985441E+03  0.56400985442E+03  0.25500000000E-02 0.  1.
         11    1    1    2    0    0 -0.13547164620E+03 -0.20627415266E+03 -0.13252286471E+02  0.24713805064E+03  0.51100000000E-03 0.  1.
         22    1    1    2    0    0  0.16741011108E+03  0.13810667170E+03  0.86638254960E+03  0.89315078252E+03  0.00000000000E+00 0.  1.
          2    1    1    2  501    0 -0.31938464883E+02  0.68167480958E+02 -0.41706088638E+03  0.42380025242E+03  0.25500000000E-02 0.  1.
<mgrwt>
<rscale>  0 0.75278623E+02</rscale>
<asrwt>0</asrwt>
<pdfrwt beam="1">  1       11 0.10000000E+01 0.21887708E+03</pdfrwt>
<pdfrwt beam="2">  1        2 0.86777619E-01 0.75278623E+02</pdfrwt>
<totfact> 0.69350469E+01</totfact>
</mgrwt>
</event>
<event>
 5    1  0.2804411E-003  0.2040802E+03  0.7818608E-02  0.1146341E+00
         11   -1    0    0    0    0  0.00000000000E+00  0.00000000000E+00  0.10000877452E+04  0.10000877452E+04  0.51100000000E-03 0. -1.
         -2   -1    0    0    0  501 -0.00000000000E+00 -0.00000000000E+00 -0.32422240431E+03  0.32422240432E+03  0.25500000000E-02 0.  1.
         11    1    1    2    0    0  0.36524032657E+02 -0.25792999782E+03  0.63991077492E+03  0.69090353060E+03  0.51100000000E-03 0. -1.
         22    1    1    2    0    0 -0.43499155767E+02  0.56695614997E+02  0.29600819455E+03  0.30451177408E+03  0.00000000000E+00 0. -1.
         -2    1    1    2    0  501  0.69751231098E+01  0.20123438282E+03 -0.26005362862E+03  0.32889484480E+03  0.25500000000E-02 0.  1.
<mgrwt>
<rscale>  0 0.20408022E+03</rscale>
<asrwt>0</asrwt>
<pdfrwt beam="1">  1       11 0.10000000E+01 0.71460264E+02</pdfrwt>
<pdfrwt beam="2">  1       -2 0.49884745E-01 0.20408022E+03</pdfrwt>
<totfact> 0.31286464E+01</totfact>
</mgrwt>
</event>
<event>
 5    1  0.2804411E-003  0.4834580E+02  0.7818608E-02  0.1656078E+00
         11   -1    0    0    0    0  0.00000000000E+00  0.00000000000E+00  0.10002899195E+04  0.10002899195E+04  0.51100000000E-03 0. -1.
          2   -1    0    0  501    0 -0.00000000000E+00 -0.00000000000E+00 -0.52047314691E+01  0.52047320937E+01  0.25500000000E-02 0. -1.
         11    1    1    2    0    0  0.53555904355E+01 -0.47081997481E+02  0.14265859124E+03  0.15032255483E+03  0.51100000000E-03 0. -1.
         22    1    1    2    0    0 -0.13241586544E+02 -0.11129219565E+01  0.71792446578E+02  0.73011872974E+02  0.00000000000E+00 0. -1.
          2    1    1    2  501    0  0.78859961088E+01  0.48194919438E+02  0.78063415018E+03  0.78216022376E+03  0.25500000000E-02 0. -1.
<mgrwt>
<rscale>  0 0.25346241E+02</rscale>
<asrwt>0</asrwt>
<pdfrwt beam="1">  1       11 0.10000000E+01 0.48345802E+02</pdfrwt>
<pdfrwt beam="2">  1        2 0.80096009E-03 0.25346241E+02</pdfrwt>
<totfact> 0.16091330E+04</totfact>
</mgrwt>
</event>
<event>
 5    1  0.2804411E-003  0.1685499E+03  0.7818608E-02  0.1179369E+00
         11   -1    0    0    0    0  0.00000000000E+00  0.00000000000E+00  0.99968321424E+03  0.99968321424E+03  0.51100000000E-03 0.  1.
          2   -1    0    0  501    0 -0.00000000000E+00 -0.00000000000E+00 -0.83279798711E+03  0.83279798711E+03  0.25500000000E-02 0.  1.
         11    1    1    2    0    0  0.29624154433E+02  0.11682774359E+03  0.15412227960E+03  0.19565272620E+03  0.51100000000E-03 0.  1.
         22    1    1    2    0    0 -0.13852560819E+03 -0.24394252897E+03  0.79179246563E+03  0.84001941060E+03  0.00000000000E+00 0.  1.
          2    1    1    2  501    0  0.10890145376E+03  0.12711478538E+03 -0.77902951810E+03  0.79680906456E+03  0.25500000000E-02 0.  1.
<mgrwt>
<rscale>  0 0.16854988E+03</rscale>
<asrwt>0</asrwt>
<pdfrwt beam="1">  1       11 0.10000000E+01 0.12052515E+03</pdfrwt>
<pdfrwt beam="2">  1        2 0.12808218E+00 0.16854988E+03</pdfrwt>
<totfact> 0.42876975E+01</totfact>
</mgrwt>
</event>
<event>
 5    1  0.2804411E-003  0.1138514E+03  0.7818608E-02  0.1253599E+00
         11   -1    0    0    0    0  0.00000000000E+00  0.00000000000E+00  0.10002415353E+04  0.10002415353E+04  0.51100000000E-03 0.  1.
          2   -1    0    0  501    0 -0.00000000000E+00 -0.00000000000E+00 -0.21990234687E+02  0.21990234835E+02  0.25500000000E-02 0.  1.
         11    1    1    2    0    0 -0.29753789852E+02  0.30592792737E+02  0.22471629060E+03  0.22873263484E+03  0.51100000000E-03 0.  1.
         22    1    1    2    0    0  0.80051457785E+02  0.76013981621E+02  0.52359306636E+03  0.53510378474E+03  0.00000000000E+00 0.  1.
          2    1    1    2  501    0 -0.50297667932E+02 -0.10660677436E+03  0.22994194369E+03  0.25839535060E+03  0.25500000000E-02 0.  1.
<mgrwt>
<rscale>  0 0.11385142E+03</rscale>
<asrwt>0</asrwt>
<pdfrwt beam="1">  1       11 0.10000000E+01 0.42675602E+02</pdfrwt>
<pdfrwt beam="2">  1        2 0.33839301E-02 0.11385142E+03</pdfrwt>
<totfact> 0.30169853E+03</totfact>
</mgrwt>
</event>
<event>
 5    1  0.2804411E-003  0.1775397E+03  0.7818608E-02  0.1353230E+00
         11   -1    0    0    0    0  0.00000000000E+00  0.00000000000E+00  0.10002813902E+04  0.10002813902E+04  0.51100000000E-03 0. -1.
          2   -1    0    0  501    0 -0.00000000000E+00 -0.00000000000E+00 -0.39305611519E+02  0.39305611602E+02  0.25500000000E-02 0. -1.
         11    1    1    2    0    0 -0.15203403287E+03 -0.69928941654E+02  0.46424140909E+03  0.49348200569E+03  0.51100000000E-03 0. -1.
         22    1    1    2    0    0 -0.28415303674E+02  0.69233230741E+01  0.30710232464E+02  0.42408492820E+02  0.00000000000E+00 0. -1.
          2    1    1    2  501    0  0.18044933655E+03  0.63005618580E+02  0.46602413715E+03  0.50369650331E+03  0.25500000000E-02 0. -1.
<mgrwt>
<rscale>  0 0.72058490E+02</rscale>
<asrwt>0</asrwt>
<pdfrwt beam="1">  1       11 0.10000000E+01 0.17753965E+03</pdfrwt>
<pdfrwt beam="2">  1        2 0.60487186E-02 0.72058490E+02</pdfrwt>
<totfact> 0.13597319E+03</totfact>
</mgrwt>
</event>
<event>
 5    1  0.2804411E-003  0.8040404E+03  0.7818608E-02  0.9554187E-01
         11   -1    0    0    0    0  0.00000000000E+00  0.00000000000E+00  0.10003390413E+04  0.10003390413E+04  0.51100000000E-03 0. -1.
          2   -1    0    0  501    0 -0.00000000000E+00 -0.00000000000E+00 -0.85366659538E+03  0.85366659539E+03  0.25500000000E-02 0. -1.
         11    1    1    2    0    0 -0.71710629112E+03 -0.30778208951E+03  0.36616950736E+03  0.86200426653E+03  0.51100000000E-03 0. -1.
         22    1    1    2    0    0 -0.33596899634E+02 -0.86091517071E+01  0.10841691948E+03  0.11382924751E+03  0.00000000000E+00 0.  1.
          2    1    1    2  501    0  0.75070319076E+03  0.31639124122E+03 -0.32791398092E+03  0.87817212266E+03  0.25500000000E-02 0. -1.
<mgrwt>
<rscale>  0 0.80404044E+03</rscale>
<asrwt>0</asrwt>
<pdfrwt beam="1">  1       11 0.10000000E+01 0.34682404E+02</pdfrwt>
<pdfrwt beam="2">  1        2 0.13137785E+00 0.80404044E+03</pdfrwt>
<totfact> 0.39053718E+01</totfact>
</mgrwt>
</event>
<event>
 5    1  0.5284855E-003  0.1883610E+03  0.7818608E-02  0.1164474E+00
         11   -1    0    0    0    0  0.00000000000E+00  0.00000000000E+00  0.99978385892E+03  0.99978385892E+03  0.51100000000E-03 0. -1.
          2   -1    0    0  501    0 -0.00000000000E+00 -0.00000000000E+00 -0.14355870795E+04  0.14355870795E+04  0.25500000000E-02 0. -1.
         11    1    1    2    0    0  0.14952573638E+03 -0.83595550815E+02  0.93888452902E+03  0.95438478655E+03  0.51100000000E-03 0. -1.
         22    1    1    2    0    0  0.14774773625E+02  0.19157701974E+01  0.46075305250E+02  0.48424145475E+02  0.00000000000E+00 0. -1.
          2    1    1    2  501    0 -0.16430051001E+03  0.81679780618E+02 -0.14207630548E+04  0.14325620064E+04  0.25500000000E-02 0. -1.
<mgrwt>
<rscale>  0 0.18348363E+03</rscale>
<asrwt>0</asrwt>
<pdfrwt beam="1">  1       11 0.10000000E+01 0.18836103E+03</pdfrwt>
<pdfrwt beam="2">  1        2 0.22081181E+00 0.18348363E+03</pdfrwt>
<totfact> 0.19064479E+01</totfact>
</mgrwt>
</event>
<event>
 5    1  0.2804411E-003  0.1916399E+03  0.7818608E-02  0.1164217E+00
         11   -1    0    0    0    0  0.00000000000E+00  0.00000000000E+00  0.10000224850E+04  0.10000224850E+04  0.51100000000E-03 0.  1.
          2   -1    0    0  501    0 -0.00000000000E+00 -0.00000000000E+00 -0.39274606301E+02  0.39274606383E+02  0.25500000000E-02 0.  1.
         11    1    1    2    0    0 -0.59647934070E+02 -0.44668376856E+02  0.14559852904E+03  0.16356060524E+03  0.51100000000E-03 0.  1.
         22    1    1    2    0    0 -0.11559465130E+03 -0.10612865339E+02  0.17709008546E+03  0.21174431442E+03  0.00000000000E+00 0.  1.
          2    1    1    2  501    0  0.17524258537E+03  0.55281242195E+02  0.63805926415E+03  0.66399217167E+03  0.25500000000E-02 0.  1.
<mgrwt>
<rscale>  0 0.18375522E+03</rscale>
<asrwt>0</asrwt>
<pdfrwt beam="1">  1       11 0.10000000E+01 0.19163987E+03</pdfrwt>
<pdfrwt beam="2">  1        2 0.60423828E-02 0.18375522E+03</pdfrwt>
<totfact> 0.14654254E+03</totfact>
</mgrwt>
</event>
<event>
 5    1  0.2804411E-003  0.8959904E+02  0.7818608E-02  0.1303826E+00
         11   -1    0    0    0    0  0.00000000000E+00  0.00000000000E+00  0.10000761570E+04  0.10000761570E+04  0.51100000000E-03 0. -1.
         -2   -1    0    0    0  501 -0.00000000000E+00 -0.00000000000E+00 -0.48436825354E+03  0.48436825354E+03  0.25500000000E-02 0.  1.
         11    1    1    2    0    0 -0.12646775694E+02 -0.78715018340E+02  0.55225579057E+02  0.96983811176E+02  0.51100000000E-03 0. -1.
         22    1    1    2    0    0 -0.40284842069E+02  0.15067936736E+03  0.91299102691E+03  0.92621798485E+03  0.00000000000E+00 0. -1.
         -2    1    1    2    0  501  0.52931617764E+02 -0.71964349015E+02 -0.45250870245E+03  0.46124261456E+03  0.25500000000E-02 0.  1.
<mgrwt>
<rscale>  0 0.89599039E+02</rscale>
<asrwt>0</asrwt>
<pdfrwt beam="1">  1       11 0.10000000E+01 0.79724495E+02</pdfrwt>
<pdfrwt beam="2">  1       -2 0.74523866E-01 0.89599039E+02</pdfrwt>
<totfact> 0.13773911E+01</totfact>
</mgrwt>
</event>
<event>
 5    1  0.2804411E-003  0.1879432E+03  0.7818608E-02  0.1164963E+00
         11   -1    0    0    0    0  0.00000000000E+00  0.00000000000E+00  0.10001679003E+04  0.10001679003E+04  0.51100000000E-03 0. -1.
          2   -1    0    0  501    0 -0.00000000000E+00 -0.00000000000E+00 -0.16834146876E+03  0.16834146878E+03  0.25500000000E-02 0. -1.
         11    1    1    2    0    0 -0.48994843966E+02 -0.18406550457E+02  0.24090201017E+03  0.24652195509E+03  0.51100000000E-03 0. -1.
         22    1    1    2    0    0 -0.88012100753E+02 -0.10286108802E+03  0.69731717213E+03  0.71033637936E+03  0.00000000000E+00 0. -1.
          2    1    1    2  501    0  0.13700694472E+03  0.12126763847E+03 -0.10639275075E+03  0.21165103463E+03  0.25500000000E-02 0. -1.
<mgrwt>
<rscale>  0 0.18296651E+03</rscale>
<asrwt>0</asrwt>
<pdfrwt beam="1">  1       11 0.10000000E+01 0.18794318E+03</pdfrwt>
<pdfrwt beam="2">  1        2 0.25903035E-01 0.18296651E+03</pdfrwt>
<totfact> 0.25357729E+02</totfact>
</mgrwt>
</event>
<event>
 5    1  0.5644267E-003  0.1883364E+03  0.7818608E-02  0.1163304E+00
         11   -1    0    0    0    0  0.00000000000E+00  0.00000000000E+00  0.10005409107E+04  0.10005409107E+04  0.51100000000E-03 0. -1.
          2   -1    0    0  501    0 -0.00000000000E+00 -0.00000000000E+00 -0.10276558405E+04  0.10276558405E+04  0.25500000000E-02 0. -1.
         11    1    1    2    0    0 -0.33578881189E+02  0.15740594414E+03  0.82322101452E+03  0.83880689748E+03  0.51100000000E-03 0. -1.
         22    1    1    2    0    0  0.88963507876E+01  0.25666248613E+02  0.16000781961E+03  0.16229726958E+03  0.00000000000E+00 0.  1.
          2    1    1    2  501    0  0.24682530401E+02 -0.18307219276E+03 -0.10103437640E+04  0.10270925842E+04  0.25500000000E-02 0. -1.
<mgrwt>
<rscale>  0 0.18472860E+03</rscale>
<asrwt>0</asrwt>
<pdfrwt beam="1">  1       11 0.10000000E+01 0.18833644E+03</pdfrwt>
<pdfrwt beam="2">  1        2 0.15818641E+00 0.18472860E+03</pdfrwt>
<totfact> 0.32176942E+01</totfact>
</mgrwt>
</event>
<event>
 5    1  0.2804411E-003  0.2925983E+02  0.7818608E-02  0.1606417E+00
         11   -1    0    0    0    0  0.00000000000E+00  0.00000000000E+00  0.10003454624E+04  0.10003454624E+04  0.51100000000E-03 0. -1.
          2   -1    0    0  501    0 -0.00000000000E+00 -0.00000000000E+00 -0.26199449874E+01  0.26199462283E+01  0.25500000000E-02 0. -1.
         11    1    1    2    0    0  0.13423696016E+01 -0.11085851350E+02  0.31642159019E+02  0.33554795245E+02  0.51100000000E-03 0. -1.
         22    1    1    2    0    0  0.27734229974E+02  0.10445086113E+02  0.15510326417E+03  0.15790918242E+03  0.00000000000E+00 0. -1.
          2    1    1    2  501    0 -0.29076599576E+02  0.64076523704E+00  0.81098009420E+03  0.81150143094E+03  0.25500000000E-02 0. -1.
<mgrwt>
<rscale>  0 0.29259834E+02</rscale>
<asrwt>0</asrwt>
<pdfrwt beam="1">  1       11 0.10000000E+01 0.11166834E+02</pdfrwt>
<pdfrwt beam="2">  1        2 0.40320779E-03 0.29259834E+02</pdfrwt>
<totfact> 0.41255265E+04</totfact>
</mgrwt>
</event>
<event>
 5    1  0.2804411E-003  0.3175497E+03  0.7818608E-02  0.1076783E+00
         11   -1    0    0    0    0  0.00000000000E+00  0.00000000000E+00  0.10001326703E+04  0.10001326703E+04  0.51100000000E-03 0. -1.
         -2   -1    0    0    0  501 -0.00000000000E+00 -0.00000000000E+00 -0.35940596494E+03  0.35940596495E+03  0.25500000000E-02 0.  1.
         11    1    1    2    0    0 -0.25562693174E+02 -0.35221029019E+03  0.78472873855E+03  0.86052584674E+03  0.51100000000E-03 0. -1.
         22    1    1    2    0    0 -0.69013764218E+01  0.39691150010E+02  0.95689282836E+02  0.10382415536E+03  0.00000000000E+00 0.  1.
         -2    1    1    2    0  501  0.32464069596E+02  0.31251914018E+03 -0.23969131602E+03  0.39518863316E+03  0.25500000000E-02 0.  1.
<mgrwt>
<rscale>  0 0.31754965E+03</rscale>
<asrwt>0</asrwt>
<pdfrwt beam="1">  1       11 0.10000000E+01 0.40286678E+02</pdfrwt>
<pdfrwt beam="2">  1       -2 0.55300560E-01 0.31754965E+03</pdfrwt>
<totfact> 0.25326089E+01</totfact>
</mgrwt>
</event>
<event>
 5    1  0.2804411E-003  0.1513841E+03  0.7818608E-02  0.1198782E+00
         11   -1    0    0    0    0  0.00000000000E+00  0.00000000000E+00  0.10003904199E+04  0.10003904199E+04  0.51100000000E-03 0. -1.
          2   -1    0    0  501    0 -0.00000000000E+00 -0.00000000000E+00 -0.75474846550E+03  0.75474846550E+03  0.25500000000E-02 0. -1.
         11    1    1    2    0    0  0.12081106329E+03  0.57204922313E+02  0.45465492424E+03  0.47389747444E+03  0.51100000000E-03 0. -1.
         22    1    1    2    0    0 -0.16336131657E+03  0.88385588133E+02  0.51189423535E+03  0.54454994273E+03  0.00000000000E+00 0. -1.
          2    1    1    2  501    0  0.42550253284E+02 -0.14559051045E+03 -0.72090720521E+03  0.73669146820E+03  0.25500000000E-02 0. -1.
<mgrwt>
<rscale>  0 0.15138410E+03</rscale>
<asrwt>0</asrwt>
<pdfrwt beam="1">  1       11 0.10000000E+01 0.13367018E+03</pdfrwt>
<pdfrwt beam="2">  1        2 0.11616048E+00 0.15138410E+03</pdfrwt>
<totfact> 0.48627684E+01</totfact>
</mgrwt>
</event>
<event>
 5    1  0.2804411E-003  0.2355801E+02  0.7818608E-02  0.1682621E+00
         11   -1    0    0    0    0  0.00000000000E+00  0.00000000000E+00  0.99999592337E+03  0.99999592337E+03  0.51100000000E-03 0.  1.
          2   -1    0    0  501    0 -0.00000000000E+00 -0.00000000000E+00 -0.24132166578E+01  0.24132180051E+01  0.25500000000E-02 0.  1.
         11    1    1    2    0    0 -0.24912041218E+02  0.76202423635E+01  0.14687608937E+03  0.14916857417E+03  0.51100000000E-03 0.  1.
         22    1    1    2    0    0  0.77290617034E+01 -0.23736235133E+02  0.14444576862E+03  0.14658692754E+03  0.00000000000E+00 0.  1.
          2    1    1    2  501    0  0.17182979515E+02  0.16115992769E+02  0.70626084872E+03  0.70665363966E+03  0.25500000000E-02 0.  1.
<mgrwt>
<rscale>  0 0.23558014E+02</rscale>
<asrwt>0</asrwt>
<pdfrwt beam="1">  1       11 0.10000000E+01 0.22613747E+02</pdfrwt>
<pdfrwt beam="2">  1        2 0.37126268E-03 0.23558014E+02</pdfrwt>
<totfact> 0.43406741E+04</totfact>
</mgrwt>
</event>
<event>
 5    1  0.2804411E-003  0.1326324E+03  0.7818608E-02  0.1223601E+00
         11   -1    0    0    0    0  0.00000000000E+00  0.00000000000E+00  0.99993680013E+03  0.99993680013E+03  0.51100000000E-03 0. -1.
          2   -1    0    0  501    0 -0.00000000000E+00 -0.00000000000E+00 -0.11691334232E+03  0.11691334235E+03  0.25500000000E-02 0. -1.
         11    1    1    2    0    0  0.36834229863E+01  0.12623397447E+03  0.24489478953E+03  0.27553954681E+03  0.51100000000E-03 0. -1.
         22    1    1    2    0    0  0.12732454002E+03 -0.95696777038E+02  0.68158295435E+03  0.69994623743E+03  0.00000000000E+00 0. -1.
          2    1    1    2  501    0 -0.13100796301E+03 -0.30537197428E+02 -0.43454286068E+02  0.14136435825E+03  0.25500000000E-02 0. -1.
<mgrwt>
<rscale>  0 0.13263245E+03</rscale>
<asrwt>0</asrwt>
<pdfrwt beam="1">  1       11 0.10000000E+01 0.12628770E+03</pdfrwt>
<pdfrwt beam="2">  1        2 0.17985531E-01 0.13263245E+03</pdfrwt>
<totfact> 0.37880940E+02</totfact>
</mgrwt>
</event>
<event>
 5    1  0.2804411E-003  0.1969508E+03  0.7818608E-02  0.1285729E+00
         11   -1    0    0    0    0  0.00000000000E+00  0.00000000000E+00  0.10003312366E+04  0.10003312366E+04  0.51100000000E-03 0.  1.
          2   -1    0    0  501    0 -0.00000000000E+00 -0.00000000000E+00 -0.23684057705E+03  0.23684057707E+03  0.25500000000E-02 0.  1.
         11    1    1    2    0    0 -0.13848914156E+03 -0.29283129278E+02  0.18273840962E+03  0.23114945455E+03  0.51100000000E-03 0.  1.
         22    1    1    2    0    0  0.23530696013E+03  0.40454812886E+02  0.76292787739E+03  0.79941535103E+03  0.00000000000E+00 0.  1.
          2    1    1    2  501    0 -0.96817818572E+02 -0.11171683608E+02 -0.18217562750E+03  0.20660700804E+03  0.25500000000E-02 0.  1.
<mgrwt>
<rscale>  0 0.97460230E+02</rscale>
<asrwt>0</asrwt>
<pdfrwt beam="1">  1       11 0.10000000E+01 0.19695085E+03</pdfrwt>
<pdfrwt beam="2">  1        2 0.36449080E-01 0.97460230E+02</pdfrwt>
<totfact> 0.17323620E+02</totfact>
</mgrwt>
</event>
<event>
 5    1  0.2804411E-003  0.1723396E+03  0.7818608E-02  0.1176618E+00
         11   -1    0    0    0    0  0.00000000000E+00  0.00000000000E+00  0.10000019484E+04  0.10000019484E+04  0.51100000000E-03 0.  1.
          2   -1    0    0  501    0 -0.00000000000E+00 -0.00000000000E+00 -0.80783278458E+02  0.80783278498E+02  0.25500000000E-02 0.  1.
         11    1    1    2    0    0  0.35675364655E+02 -0.15160587302E+03  0.83552111495E+03  0.84991329316E+03  0.51100000000E-03 0.  1.
         22    1    1    2    0    0  0.45709623805E+01 -0.14780665680E+02  0.55205177444E+02  0.57332132279E+02  0.00000000000E+00 0. -1.
          2    1    1    2  501    0 -0.40246327036E+02  0.16638653870E+03  0.28492377539E+02  0.17353980144E+03  0.25500000000E-02 0.  1.
<mgrwt>
<rscale>  0 0.17118483E+03</rscale>
<asrwt>0</asrwt>
<pdfrwt beam="1">  1       11 0.10000000E+01 0.17233959E+03</pdfrwt>
<pdfrwt beam="2">  1        2 0.12428221E-01 0.17118483E+03</pdfrwt>
<totfact> 0.59092800E+02</totfact>
</mgrwt>
</event>
<event>
 5    1  0.2804411E-003  0.9328932E+02  0.7818608E-02  0.1295076E+00
         11   -1    0    0    0    0  0.00000000000E+00  0.00000000000E+00  0.10005575850E+04  0.10005575850E+04  0.51100000000E-03 0. -1.
         -2   -1    0    0    0  501 -0.00000000000E+00 -0.00000000000E+00 -0.26815001671E+02  0.26815001793E+02  0.25500000000E-02 0.  1.
         11    1    1    2    0    0 -0.80713256136E+02  0.31350983752E+02  0.47752423570E+03  0.48531114719E+03  0.51100000000E-03 0. -1.
         22    1    1    2    0    0  0.35545624150E+02  0.57612529433E+02  0.39192888699E+03  0.39773225592E+03  0.00000000000E+00 0. -1.
         -2    1    1    2    0  501  0.45167631987E+02 -0.88963513185E+02  0.10428946064E+03  0.14432918369E+03  0.25500000000E-02 0.  1.
<mgrwt>
<rscale>  0 0.93289321E+02</rscale>
<asrwt>0</asrwt>
<pdfrwt beam="1">  1       11 0.10000000E+01 0.67695605E+02</pdfrwt>
<pdfrwt beam="2">  1       -2 0.41276850E-02 0.93289321E+02</pdfrwt>
<totfact> 0.18956004E+03</totfact>
</mgrwt>
</event>
<event>
 5    1  0.2804411E-003  0.4716670E+03  0.7818608E-02  0.1106497E+00
         11   -1    0    0    0    0  0.00000000000E+00  0.00000000000E+00  0.10002799853E+04  0.10002799853E+04  0.51100000000E-03 0.  1.
          2   -1    0    0  501    0 -0.00000000000E+00 -0.00000000000E+00 -0.55320524387E+03  0.55320524388E+03  0.25500000000E-02 0.  1.
         11    1    1    2    0    0  0.35046241575E+03  0.19535622186E+03 -0.22677310245E+03  0.46088393145E+03  0.51100000000E-03 0.  1.
         22    1    1    2    0    0  0.43685894347E+00  0.14451257619E+03 -0.10121542502E+03  0.17643309719E+03  0.00000000000E+00 0.  1.
          2    1    1    2  501    0 -0.35089927470E+03 -0.33986879805E+03  0.77506326892E+03  0.91616820056E+03  0.25500000000E-02 0.  1.
<mgrwt>
<rscale>  0 0.26107871E+03</rscale>
<asrwt>0</asrwt>
<pdfrwt beam="1">  1       11 0.10000000E+01 0.47166703E+03</pdfrwt>
<pdfrwt beam="2">  1        2 0.85132326E-01 0.26107871E+03</pdfrwt>
<totfact> 0.69153016E+01</totfact>
</mgrwt>
</event>
<event>
 5    1  0.2804411E-003  0.3865926E+03  0.7818608E-02  0.1051255E+00
         11   -1    0    0    0    0  0.00000000000E+00  0.00000000000E+00  0.99938269382E+03  0.99938269382E+03  0.51100000000E-03 0.  1.
          2   -1    0    0  501    0 -0.00000000000E+00 -0.00000000000E+00 -0.38332965564E+04  0.38332965564E+04  0.25500000000E-02 0.  1.
         11    1    1    2    0    0 -0.23923149454E+03  0.24231249866E+03  0.81593192073E+03  0.88413344822E+03  0.51100000000E-03 0.  1.
         22    1    1    2    0    0 -0.90179665829E+01  0.44240657484E+02  0.13623896860E+03  0.14352566342E+03  0.00000000000E+00 0. -1.
          2    1    1    2  501    0  0.24824946112E+03 -0.28655315614E+03 -0.37860847519E+04  0.38050201385E+04  0.25500000000E-02 0.  1.
<mgrwt>
<rscale>  0 0.37913125E+03</rscale>
<asrwt>0</asrwt>
<pdfrwt beam="1">  1       11 0.10000000E+01 0.38659261E+03</pdfrwt>
<pdfrwt beam="2">  1        2 0.58937387E+00 0.37913125E+03</pdfrwt>
<totfact> 0.70656237E-01</totfact>
</mgrwt>
</event>
<event>
 5    1  0.2804411E-003  0.8981702E+02  0.7818608E-02  0.1312063E+00
         11   -1    0    0    0    0  0.00000000000E+00  0.00000000000E+00  0.10000854998E+04  0.10000854998E+04  0.51100000000E-03 0.  1.
          2   -1    0    0  501    0 -0.00000000000E+00 -0.00000000000E+00 -0.93835287631E+01  0.93835291095E+01  0.25500000000E-02 0.  1.
         11    1    1    2    0    0  0.13702658635E+02 -0.77285593029E+01  0.27275298989E+02  0.31487067469E+02  0.51100000000E-03 0.  1.
         22    1    1    2    0    0  0.65816593838E+02 -0.25807619489E+02  0.26593194559E+03  0.27516841558E+03  0.00000000000E+00 0.  1.
          2    1    1    2  501    0 -0.79519252473E+02  0.33536178792E+02  0.69749472648E+03  0.70281354588E+03  0.25500000000E-02 0.  1.
<mgrwt>
<rscale>  0 0.86301720E+02</rscale>
<asrwt>0</asrwt>
<pdfrwt beam="1">  1       11 0.10000000E+01 0.89817020E+02</pdfrwt>
<pdfrwt beam="2">  1        2 0.14437432E-02 0.86301720E+02</pdfrwt>
<totfact> 0.91800818E+03</totfact>
</mgrwt>
</event>
<event>
 5    1  0.2804411E-003  0.2135010E+03  0.7818608E-02  0.1142858E+00
         11   -1    0    0    0    0  0.00000000000E+00  0.00000000000E+00  0.10003378670E+04  0.10003378670E+04  0.51100000000E-03 0. -1.
         -2   -1    0    0    0  501 -0.00000000000E+00 -0.00000000000E+00 -0.46997361209E+02  0.46997361278E+02  0.25500000000E-02 0. -1.
         11    1    1    2    0    0  0.10163123400E+03  0.15591764713E+03  0.34490721625E+03  0.39191862450E+03  0.51100000000E-03 0. -1.
         22    1    1    2    0    0  0.12880734363E+02  0.18173488285E+02  0.16057173137E+02  0.27459457447E+02  0.00000000000E+00 0. -1.
         -2    1    1    2    0  501 -0.11451196836E+03 -0.17409113542E+03  0.59237611642E+03  0.62795714635E+03  0.25500000000E-02 0. -1.
<mgrwt>
<rscale>  0 0.20837638E+03</rscale>
<asrwt>0</asrwt>
<pdfrwt beam="1">  1       11 0.10000000E+01 0.21350102E+03</pdfrwt>
<pdfrwt beam="2">  1       -2 0.72328060E-02 0.20837638E+03</pdfrwt>
<totfact> 0.86920842E+02</totfact>
</mgrwt>
</event>
<event>
 5    1  0.2804411E-003  0.7644664E+02  0.7818608E-02  0.1349862E+00
         11   -1    0    0    0    0  0.00000000000E+00  0.00000000000E+00  0.10002719642E+04  0.10002719642E+04  0.51100000000E-03 0. -1.
         -2   -1    0    0    0  501 -0.00000000000E+00 -0.00000000000E+00 -0.66527457515E+01  0.66527462402E+01  0.25500000000E-02 0. -1.
         11    1    1    2    0    0 -0.29122548915E+02 -0.47096432035E+02  0.20732909918E+03  0.21459625377E+03  0.51100000000E-03 0. -1.
         22    1    1    2    0    0  0.16176569795E+01 -0.20630092922E+02  0.97588506375E+02  0.99758378719E+02  0.00000000000E+00 0.  1.
         -2    1    1    2    0  501  0.27504891935E+02  0.67726524957E+02  0.68870161288E+03  0.69257007794E+03  0.25500000000E-02 0. -1.
<mgrwt>
<rscale>  0 0.73098572E+02</rscale>
<asrwt>0</asrwt>
<pdfrwt beam="1">  1       11 0.10000000E+01 0.76446640E+02</pdfrwt>
<pdfrwt beam="2">  1       -2 0.10237777E-02 0.73098572E+02</pdfrwt>
<totfact> 0.13571065E+04</totfact>
</mgrwt>
</event>
<event>
 5    1  0.2804411E-003  0.1610525E+03  0.7818608E-02  0.1202958E+00
         11   -1    0    0    0    0  0.00000000000E+00  0.00000000000E+00  0.10001318534E+04  0.10001318534E+04  0.51100000000E-03 0. -1.
         -2   -1    0    0    0  501 -0.00000000000E+00 -0.00000000000E+00 -0.53356846367E+02  0.53356846428E+02  0.25500000000E-02 0.  1.
         11    1    1    2    0    0 -0.64076287359E+02 -0.88409154519E+02  0.57130278677E+03  0.58164320969E+03  0.51100000000E-03 0. -1.
         22    1    1    2    0    0  0.12187428564E+02 -0.50191452474E+02  0.30242649560E+03  0.30680531377E+03  0.00000000000E+00 0. -1.
         -2    1    1    2    0  501  0.51888858794E+02  0.13860060699E+03  0.73045724704E+02  0.16504017641E+03  0.25500000000E-02 0.  1.
<mgrwt>
<rscale>  0 0.14799521E+03</rscale>
<asrwt>0</asrwt>
<pdfrwt beam="1">  1       11 0.10000000E+01 0.16105254E+03</pdfrwt>
<pdfrwt beam="2">  1       -2 0.82098277E-02 0.14799521E+03</pdfrwt>
<totfact> 0.69826311E+02</totfact>
</mgrwt>
</event>
<event>
 5    1  0.2804411E-003  0.1062736E+03  0.7818608E-02  0.1270912E+00
         11   -1    0    0    0    0  0.00000000000E+00  0.00000000000E+00  0.10004060694E+04  0.10004060694E+04  0.51100000000E-03 0.  1.
          2   -1    0    0  501    0 -0.00000000000E+00 -0.00000000000E+00 -0.18878477346E+02  0.18878477518E+02  0.25500000000E-02 0.  1.
         11    1    1    2    0    0 -0.72208959863E+02 -0.44384872728E+02  0.12054129150E+03  0.14735791044E+03  0.51100000000E-03 0.  1.
         22    1    1    2    0    0 -0.14716456691E+02 -0.13794842611E+02  0.45644626030E+02  0.49902942454E+02  0.00000000000E+00 0. -1.
          2    1    1    2  501    0  0.86925416554E+02  0.58179715339E+02  0.81534167454E+03  0.82202369404E+03  0.25500000000E-02 0.  1.
<mgrwt>
<rscale>  0 0.10459879E+03</rscale>
<asrwt>0</asrwt>
<pdfrwt beam="1">  1       11 0.10000000E+01 0.10627363E+03</pdfrwt>
<pdfrwt beam="2">  1        2 0.29055604E-02 0.10459879E+03</pdfrwt>
<totfact> 0.36634904E+03</totfact>
</mgrwt>
</event>
<event>
 5    1  0.2804411E-003  0.2785222E+03  0.7818608E-02  0.1226960E+00
         11   -1    0    0    0    0  0.00000000000E+00  0.00000000000E+00  0.99979433997E+03  0.99979433997E+03  0.51100000000E-03 0. -1.
          2   -1    0    0  501    0 -0.00000000000E+00 -0.00000000000E+00 -0.24389522868E+03  0.24389522869E+03  0.25500000000E-02 0. -1.
         11    1    1    2    0    0 -0.24714961564E+03  0.22047569847E+03 -0.69601201484E+02  0.33843284914E+03  0.51100000000E-03 0. -1.
         22    1    1    2    0    0  0.54340945246E+02 -0.27692521530E+02  0.37923171543E+02  0.71819085338E+02  0.00000000000E+00 0. -1.
          2    1    1    2  501    0  0.19280867039E+03 -0.19278317694E+03  0.78757714123E+03  0.83343763419E+03  0.25500000000E-02 0. -1.
<mgrwt>
<rscale>  0 0.13033472E+03</rscale>
<asrwt>0</asrwt>
<pdfrwt beam="1">  1       11 0.10000000E+01 0.27852222E+03</pdfrwt>
<pdfrwt beam="2">  1        2 0.37514625E-01 0.13033472E+03</pdfrwt>
<totfact> 0.16868922E+02</totfact>
</mgrwt>
</event>
<event>
 5    1  0.2804411E-003  0.2049083E+03  0.7818608E-02  0.1154612E+00
         11   -1    0    0    0    0  0.00000000000E+00  0.00000000000E+00  0.10002508922E+04  0.10002508922E+04  0.51100000000E-03 0. -1.
          2   -1    0    0  501    0 -0.00000000000E+00 -0.00000000000E+00 -0.22776515314E+03  0.22776515315E+03  0.25500000000E-02 0. -1.
         11    1    1    2    0    0  0.30112515277E+02 -0.38744331693E+02  0.13182173933E+03  0.14065865695E+03  0.51100000000E-03 0. -1.
         22    1    1    2    0    0  0.55070860367E+02 -0.13592149324E+03  0.81390841592E+03  0.82701533329E+03  0.00000000000E+00 0. -1.
          2    1    1    2  501    0 -0.85183375644E+02  0.17466582494E+03 -0.17324441622E+03  0.26034205508E+03  0.25500000000E-02 0. -1.
<mgrwt>
<rscale>  0 0.19433054E+03</rscale>
<asrwt>0</asrwt>
<pdfrwt beam="1">  1       11 0.10000000E+01 0.20490833E+03</pdfrwt>
<pdfrwt beam="2">  1        2 0.35049583E-01 0.19433054E+03</pdfrwt>
<totfact> 0.18233463E+02</totfact>
</mgrwt>
</event>
<event>
 5    1  0.6828277E-003  0.1900666E+03  0.7818608E-02  0.1160325E+00
         11   -1    0    0    0    0  0.00000000000E+00  0.00000000000E+00  0.10012196101E+04  0.10012196101E+04  0.51100000000E-03 0.  1.
          2   -1    0    0  501    0 -0.00000000000E+00 -0.00000000000E+00 -0.14397880291E+04  0.14397880291E+04  0.25500000000E-02 0. -1.
         11    1    1    2    0    0  0.17080048521E+03 -0.30278443134E+02  0.92049185110E+03  0.93669356665E+03  0.51100000000E-03 0.  1.
         22    1    1    2    0    0  0.15399442785E+02  0.47055878188E+01  0.65478955561E+02  0.67429808068E+02  0.00000000000E+00 0.  1.
          2    1    1    2  501    0 -0.18619992800E+03  0.25572855315E+02 -0.14245392256E+04  0.14368842645E+04  0.25500000000E-02 0. -1.
<mgrwt>
<rscale>  0 0.18794782E+03</rscale>
<asrwt>0</asrwt>
<pdfrwt beam="1">  1       11 0.10000000E+01 0.19006662E+03</pdfrwt>
<pdfrwt beam="2">  1        2 0.22177600E+00 0.18794782E+03</pdfrwt>
<totfact> 0.18885063E+01</totfact>
</mgrwt>
</event>
<event>
 5    1  0.2804411E-003  0.4756530E+03  0.7818608E-02  0.1020337E+00
         11   -1    0    0    0    0  0.00000000000E+00  0.00000000000E+00  0.99985756928E+03  0.99985756928E+03  0.51100000000E-03 0. -1.
          2   -1    0    0  501    0 -0.00000000000E+00 -0.00000000000E+00 -0.28255813717E+03  0.28255813718E+03  0.25500000000E-02 0. -1.
         11    1    1    2    0    0  0.10589311803E+03 -0.44668841853E+03  0.45539210859E+03  0.64662652920E+03  0.51100000000E-03 0. -1.
         22    1    1    2    0    0 -0.35186961082E+02 -0.34210771785E+02  0.11966031610E+03  0.12933325320E+03  0.00000000000E+00 0.  1.
          2    1    1    2  501    0 -0.70706156952E+02  0.48089919032E+03  0.14224700743E+03  0.50645592405E+03  0.25500000000E-02 0. -1.
<mgrwt>
<rscale>  0 0.47565300E+03</rscale>
<asrwt>0</asrwt>
<pdfrwt beam="1">  1       11 0.10000000E+01 0.49076462E+02</pdfrwt>
<pdfrwt beam="2">  1        2 0.43464290E-01 0.47565300E+03</pdfrwt>
<totfact> 0.14499687E+02</totfact>
</mgrwt>
</event>
<event>
 5    1  0.2804411E-003  0.2411985E+02  0.7818608E-02  0.1688444E+00
         11   -1    0    0    0    0  0.00000000000E+00  0.00000000000E+00  0.99982829693E+03  0.99982829693E+03  0.51100000000E-03 0. -1.
          2   -1    0    0  501    0 -0.00000000000E+00 -0.00000000000E+00 -0.23333051831E+01  0.23333065765E+01  0.25500000000E-02 0. -1.
         11    1    1    2    0    0  0.67336232072E+01 -0.81695487352E+01  0.20469646498E+02  0.23045382098E+02  0.51100000000E-03 0. -1.
         22    1    1    2    0    0  0.96563431295E+01 -0.82365271054E+01  0.43775209003E+02  0.45578001981E+02  0.00000000000E+00 0. -1.
          2    1    1    2  501    0 -0.16389966337E+02  0.16406075841E+02  0.93325013624E+03  0.93353821942E+03  0.25500000000E-02 0. -1.
<mgrwt>
<rscale>  0 0.23190307E+02</rscale>
<asrwt>0</asrwt>
<pdfrwt beam="1">  1       11 0.10000000E+01 0.24119855E+02</pdfrwt>
<pdfrwt beam="2">  1        2 0.35890849E-03 0.23190307E+02</pdfrwt>
<totfact> 0.45183088E+04</totfact>
</mgrwt>
</event>
<event>
 5    1  0.2804411E-003  0.4356434E+03  0.7818608E-02  0.1034710E+00
         11   -1    0    0    0    0  0.00000000000E+00  0.00000000000E+00  0.10002299837E+04  0.10002299837E+04  0.51100000000E-03 0. -1.
          2   -1    0    0  501    0 -0.00000000000E+00 -0.00000000000E+00 -0.24266974562E+03  0.24266974563E+03  0.25500000000E-02 0. -1.
         11    1    1    2    0    0 -0.34153169472E+03 -0.22097212271E+03  0.66367191535E+03  0.77841697614E+03  0.51100000000E-03 0. -1.
         22    1    1    2    0    0 -0.94455007392E+01 -0.22785192337E+02  0.17857843680E+02  0.30451355552E+02  0.00000000000E+00 0. -1.
          2    1    1    2  501    0  0.35097719546E+03  0.24375731504E+03  0.76030479014E+02  0.43403139761E+03  0.25500000000E-02 0. -1.
<mgrwt>
<rscale>  0 0.42732028E+03</rscale>
<asrwt>0</asrwt>
<pdfrwt beam="1">  1       11 0.10000000E+01 0.43564339E+03</pdfrwt>
<pdfrwt beam="2">  1        2 0.37342392E-01 0.42732028E+03</pdfrwt>
<totfact> 0.17129415E+02</totfact>
</mgrwt>
</event>
<event>
 5    1  0.2804411E-003  0.1046967E+03  0.7818608E-02  0.1280293E+00
         11   -1    0    0    0    0  0.00000000000E+00  0.00000000000E+00  0.10002642162E+04  0.10002642162E+04  0.51100000000E-03 0. -1.
         -2   -1    0    0    0  501 -0.00000000000E+00 -0.00000000000E+00 -0.10660581816E+02  0.10660582121E+02  0.25500000000E-02 0. -1.
         11    1    1    2    0    0  0.10546458491E+02  0.12021617364E+02  0.94824620974E+02  0.96163692805E+02  0.51100000000E-03 0. -1.
         22    1    1    2    0    0 -0.10852987331E+02  0.87979085602E+02  0.47824158257E+03  0.48638782688E+03  0.00000000000E+00 0. -1.
         -2    1    1    2    0  501  0.30652883960E+00 -0.10000070297E+03  0.41653743085E+03  0.42837327865E+03  0.25500000000E-02 0. -1.
<mgrwt>
<rscale>  0 0.10000117E+03</rscale>
<asrwt>0</asrwt>
<pdfrwt beam="1">  1       11 0.10000000E+01 0.10469670E+03</pdfrwt>
<pdfrwt beam="2">  1       -2 0.16405228E-02 0.10000117E+03</pdfrwt>
<totfact> 0.72910099E+03</totfact>
</mgrwt>
</event>
<event>
 5    1  0.2804411E-003  0.1916981E+03  0.7818608E-02  0.1490632E+00
         11   -1    0    0    0    0  0.00000000000E+00  0.00000000000E+00  0.10002535034E+04  0.10002535034E+04  0.51100000000E-03 0.  1.
         -2   -1    0    0    0  501 -0.00000000000E+00 -0.00000000000E+00 -0.61822763626E+02  0.61822763679E+02  0.25500000000E-02 0.  1.
         11    1    1    2    0    0  0.97315997002E+02  0.13042305744E+03  0.18920660544E+03  0.24955904457E+03  0.51100000000E-03 0.  1.
         22    1    1    2    0    0 -0.11938934041E+03 -0.16673243887E+03  0.74149218911E+03  0.76932710032E+03  0.00000000000E+00 0.  1.
         -2    1    1    2    0  501  0.22073343408E+02  0.36309381436E+02  0.77319451966E+01  0.43190122163E+02  0.25500000000E-02 0.  1.
<mgrwt>
<rscale>  0 0.42492396E+02</rscale>
<asrwt>0</asrwt>
<pdfrwt beam="1">  1       11 0.10000000E+01 0.19169806E+03</pdfrwt>
<pdfrwt beam="2">  1       -2 0.95136053E-02 0.42492396E+02</pdfrwt>
<totfact> 0.50609234E+02</totfact>
</mgrwt>
</event>
<event>
 5    1  0.2804411E-003  0.1280775E+03  0.7818608E-02  0.1230337E+00
         11   -1    0    0    0    0  0.00000000000E+00  0.00000000000E+00  0.10001513403E+04  0.10001513403E+04  0.51100000000E-03 0. -1.
          2   -1    0    0  501    0 -0.00000000000E+00 -0.00000000000E+00 -0.39377778897E+02  0.39377778980E+02  0.25500000000E-02 0. -1.
         11    1    1    2    0    0  0.27207726234E+02 -0.30432311600E+02  0.16726670304E+03  0.17217588653E+03  0.51100000000E-03 0. -1.
         22    1    1    2    0    0 -0.12566174072E+03  0.10182949528E+03  0.68671035484E+03  0.70550069500E+03  0.00000000000E+00 0. -1.
          2    1    1    2  501    0  0.98454014485E+02 -0.71397183685E+02  0.10679650351E+03  0.16185253775E+03  0.25500000000E-02 0. -1.
<mgrwt>
<rscale>  0 0.12807749E+03</rscale>
<asrwt>0</asrwt>
<pdfrwt beam="1">  1       11 0.10000000E+01 0.40821391E+02</pdfrwt>
<pdfrwt beam="2">  1        2 0.60590365E-02 0.12807749E+03</pdfrwt>
<totfact> 0.14223752E+03</totfact>
</mgrwt>
</event>
<event>
 5    1  0.2804411E-003  0.1207990E+03  0.7818608E-02  0.1243768E+00
         11   -1    0    0    0    0  0.00000000000E+00  0.00000000000E+00  0.10001389603E+04  0.10001389603E+04  0.51100000000E-03 0. -1.
          2   -1    0    0  501    0 -0.00000000000E+00 -0.00000000000E+00 -0.16123054162E+02  0.16123054364E+02  0.25500000000E-02 0. -1.
         11    1    1    2    0    0  0.10552514248E+02 -0.80898460349E+01  0.41960537782E+02  0.44016904674E+02  0.51100000000E-03 0. -1.
         22    1    1    2    0    0  0.10460962063E+03 -0.24165500766E+02  0.28833960544E+03  0.30767982095E+03  0.00000000000E+00 0. -1.
          2    1    1    2  501    0 -0.11516213487E+03  0.32255346801E+02  0.65371576292E+03  0.66456528905E+03  0.25500000000E-02 0. -1.
<mgrwt>
<rscale>  0 0.11959400E+03</rscale>
<asrwt>0</asrwt>
<pdfrwt beam="1">  1       11 0.10000000E+01 0.12079902E+03</pdfrwt>
<pdfrwt beam="2">  1        2 0.24808145E-02 0.11959400E+03</pdfrwt>
<totfact> 0.45974384E+03</totfact>
</mgrwt>
</event>
<event>
 5    1  0.2804411E-003  0.2694235E+03  0.7818608E-02  0.1108696E+00
         11   -1    0    0    0    0  0.00000000000E+00  0.00000000000E+00  0.99995178541E+03  0.99995178541E+03  0.51100000000E-03 0. -1.
          2   -1    0    0  501    0 -0.00000000000E+00 -0.00000000000E+00 -0.13233225054E+03  0.13233225056E+03  0.25500000000E-02 0. -1.
         11    1    1    2    0    0  0.45432244473E+02 -0.63246519492E+02  0.38128439345E+03  0.38915549560E+03  0.51100000000E-03 0. -1.
         22    1    1    2    0    0  0.86169832507E+02 -0.15800520537E+03  0.44807490808E+03  0.48286852062E+03  0.00000000000E+00 0. -1.
          2    1    1    2  501    0 -0.13160207698E+03  0.22125172487E+03  0.38260233345E+02  0.26026001976E+03  0.25500000000E-02 0. -1.
<mgrwt>
<rscale>  0 0.25743238E+03</rscale>
<asrwt>0</asrwt>
<pdfrwt beam="1">  1       11 0.10000000E+01 0.26942352E+03</pdfrwt>
<pdfrwt beam="2">  1        2 0.20357826E-01 0.25743238E+03</pdfrwt>
<totfact> 0.33549804E+02</totfact>
</mgrwt>
</event>
<event>
 5    1  0.2804411E-003  0.9341858E+02  0.7818608E-02  0.1597938E+00
         11   -1    0    0    0    0  0.00000000000E+00  0.00000000000E+00  0.10000475910E+04  0.10000475910E+04  0.51100000000E-03 0.  1.
          2   -1    0    0  501    0 -0.00000000000E+00 -0.00000000000E+00 -0.15641770013E+04  0.15641770013E+04  0.25500000000E-02 0.  1.
         11    1    1    2    0    0 -0.39987888866E+02  0.73470489725E+02  0.37645896915E+03  0.38564011665E+03  0.51100000000E-03 0.  1.
         22    1    1    2    0    0  0.69782518499E+02 -0.77089698597E+02  0.61448531595E+03  0.62322116864E+03  0.00000000000E+00 0.  1.
          2    1    1    2  501    0 -0.29794629633E+02  0.36192088720E+01 -0.15550736954E+04  0.15553633070E+04  0.25500000000E-02 0.  1.
<mgrwt>
<rscale>  0 0.30013641E+02</rscale>
<asrwt>0</asrwt>
<pdfrwt beam="1">  1       11 0.10000000E+01 0.93418578E+02</pdfrwt>
<pdfrwt beam="2">  1        2 0.24065406E+00 0.30013641E+02</pdfrwt>
<totfact> 0.19098086E+01</totfact>
</mgrwt>
</event>
<event>
 5    1  0.2804411E-003  0.1441426E+03  0.7818608E-02  0.1296705E+00
         11   -1    0    0    0    0  0.00000000000E+00  0.00000000000E+00  0.10001921318E+04  0.10001921318E+04  0.51100000000E-03 0. -1.
          2   -1    0    0  501    0 -0.00000000000E+00 -0.00000000000E+00 -0.38883998895E+03  0.38883998896E+03  0.25500000000E-02 0. -1.
         11    1    1    2    0    0  0.63081462329E+02 -0.11314359728E+03  0.33428419053E+03  0.35850615689E+03  0.51100000000E-03 0. -1.
         22    1    1    2    0    0 -0.14913826945E+03  0.78988132411E+02  0.63694811091E+03  0.65892658504E+03  0.00000000000E+00 0. -1.
          2    1    1    2  501    0  0.86056807118E+02  0.34155464869E+02 -0.35988015857E+03  0.37159937886E+03  0.25500000000E-02 0. -1.
<mgrwt>
<rscale>  0 0.92587093E+02</rscale>
<asrwt>0</asrwt>
<pdfrwt beam="1">  1       11 0.10000000E+01 0.14414263E+03</pdfrwt>
<pdfrwt beam="2">  1        2 0.59833029E-01 0.92587093E+02</pdfrwt>
<totfact> 0.10296145E+02</totfact>
</mgrwt>
</event>
<event>
 5    1  0.2804411E-003  0.2366941E+03  0.7818608E-02  0.1122015E+00
         11   -1    0    0    0    0  0.00000000000E+00  0.00000000000E+00  0.99997771380E+03  0.99997771380E+03  0.51100000000E-03 0. -1.
          2   -1    0    0  501    0 -0.00000000000E+00 -0.00000000000E+00 -0.61367825468E+03  0.61367825468E+03  0.25500000000E-02 0. -1.
         11    1    1    2    0    0  0.22346218574E+01 -0.15328075712E+02  0.12527596098E+01  0.15540683600E+02  0.51100000000E-03 0. -1.
         22    1    1    2    0    0  0.19457417815E+01 -0.22169574754E+03  0.95522687666E+03  0.98061775238E+03  0.00000000000E+00 0. -1.
          2    1    1    2  501    0 -0.41803636389E+01  0.23702382325E+03 -0.57018017715E+03  0.61749753250E+03  0.25500000000E-02 0. -1.
<mgrwt>
<rscale>  0 0.23669414E+03</rscale>
<asrwt>0</asrwt>
<pdfrwt beam="1">  1       11 0.10000000E+01 0.15490116E+02</pdfrwt>
<pdfrwt beam="2">  1        2 0.94409932E-01 0.23669414E+03</pdfrwt>
<totfact> 0.61488884E+01</totfact>
</mgrwt>
</event>
<event>
 5    1  0.2804411E-003  0.2152549E+03  0.7818608E-02  0.1142765E+00
         11   -1    0    0    0    0  0.00000000000E+00  0.00000000000E+00  0.10002166972E+04  0.10002166972E+04  0.51100000000E-03 0.  1.
         -2   -1    0    0    0  501 -0.00000000000E+00 -0.00000000000E+00 -0.28340264273E+03  0.28340264274E+03  0.25500000000E-02 0. -1.
         11    1    1    2    0    0  0.10344313134E+03 -0.45907500460E+02  0.43431318412E+03  0.44881613376E+03  0.51100000000E-03 0.  1.
         22    1    1    2    0    0  0.99917971921E+02 -0.67990818291E-01  0.51378829347E+03  0.52341380975E+03  0.00000000000E+00 0.  1.
         -2    1    1    2    0  501 -0.20336110326E+03  0.45975491278E+02 -0.23128742311E+03  0.31138939644E+03  0.25500000000E-02 0. -1.
<mgrwt>
<rscale>  0 0.20849337E+03</rscale>
<asrwt>0</asrwt>
<pdfrwt beam="1">  1       11 0.10000000E+01 0.21525485E+03</pdfrwt>
<pdfrwt beam="2">  1       -2 0.43609853E-01 0.20849337E+03</pdfrwt>
<totfact> 0.40746694E+01</totfact>
</mgrwt>
</event>
<event>
 5    1  0.2804411E-003  0.1802220E+03  0.7818608E-02  0.1167588E+00
         11   -1    0    0    0    0  0.00000000000E+00  0.00000000000E+00  0.10000014434E+04  0.10000014434E+04  0.51100000000E-03 0. -1.
          2   -1    0    0  501    0 -0.00000000000E+00 -0.00000000000E+00 -0.19437921138E+03  0.19437921140E+03  0.25500000000E-02 0. -1.
         11    1    1    2    0    0 -0.15667895701E+03  0.10145469748E+03  0.86052796863E+03  0.88053945738E+03  0.51100000000E-03 0. -1.
         22    1    1    2    0    0 -0.15233248325E+01 -0.15754524558E+02  0.84663755340E+02  0.86130581276E+02  0.00000000000E+00 0. -1.
          2    1    1    2  501    0  0.15820228184E+03 -0.85700172923E+02 -0.13956949194E+03  0.22771061615E+03  0.25500000000E-02 0. -1.
<mgrwt>
<rscale>  0 0.18022196E+03</rscale>
<asrwt>0</asrwt>
<pdfrwt beam="1">  1       11 0.10000000E+01 0.15827999E+02</pdfrwt>
<pdfrwt beam="2">  1        2 0.29904536E-01 0.18022196E+03</pdfrwt>
<totfact> 0.21644353E+02</totfact>
</mgrwt>
</event>
<event>
 5    1  0.2804411E-003  0.2607559E+03  0.7818608E-02  0.1124628E+00
         11   -1    0    0    0    0  0.00000000000E+00  0.00000000000E+00  0.10001125246E+04  0.10001125246E+04  0.51100000000E-03 0. -1.
          2   -1    0    0  501    0 -0.00000000000E+00 -0.00000000000E+00 -0.91680356969E+02  0.91680357005E+02  0.25500000000E-02 0. -1.
         11    1    1    2    0    0 -0.64808609854E+02  0.12525731300E+03  0.36314660987E+03  0.38957028972E+03  0.51100000000E-03 0. -1.
         22    1    1    2    0    0  0.45754880176E+02  0.10684372357E+03  0.42401683779E+03  0.43965824120E+03  0.00000000000E+00 0.  1.
          2    1    1    2  501    0  0.19053729678E+02 -0.23210103657E+03  0.12126871995E+03  0.26256435066E+03  0.25500000000E-02 0. -1.
<mgrwt>
<rscale>  0 0.23288181E+03</rscale>
<asrwt>0</asrwt>
<pdfrwt beam="1">  1       11 0.10000000E+01 0.26075595E+03</pdfrwt>
<pdfrwt beam="2">  1        2 0.14106257E-01 0.23288181E+03</pdfrwt>
<totfact> 0.51416844E+02</totfact>
</mgrwt>
</event>
<event>
 5    1  0.2804411E-003  0.7725559E+02  0.7818608E-02  0.1340597E+00
         11   -1    0    0    0    0  0.00000000000E+00  0.00000000000E+00  0.10001216410E+04  0.10001216410E+04  0.51100000000E-03 0. -1.
         -2   -1    0    0    0  501 -0.00000000000E+00 -0.00000000000E+00 -0.70838780661E+01  0.70838785250E+01  0.25500000000E-02 0.  1.
         11    1    1    2    0    0 -0.42233518648E+02 -0.44994445633E+02  0.21907541757E+03  0.22760098598E+03  0.51100000000E-03 0. -1.
         22    1    1    2    0    0 -0.13203728551E+02 -0.70915669531E+01  0.72711085101E+02  0.74239683903E+02  0.00000000000E+00 0.  1.
         -2    1    1    2    0  501  0.55437247199E+02  0.52086012587E+02  0.70125126031E+03  0.70536484969E+03  0.25500000000E-02 0.  1.
<mgrwt>
<rscale>  0 0.76067346E+02</rscale>
<asrwt>0</asrwt>
<pdfrwt beam="1">  1       11 0.10000000E+01 0.77255594E+02</pdfrwt>
<pdfrwt beam="2">  1       -2 0.10899600E-02 0.76067346E+02</pdfrwt>
<totfact> 0.12508107E+04</totfact>
</mgrwt>
</event>
<event>
 5    1  0.2804411E-003  0.1633177E+03  0.7818608E-02  0.1193017E+00
         11   -1    0    0    0    0  0.00000000000E+00  0.00000000000E+00  0.10002502584E+04  0.10002502584E+04  0.51100000000E-03 0. -1.
          2   -1    0    0  501    0 -0.00000000000E+00 -0.00000000000E+00 -0.43470948722E+02  0.43470948797E+02  0.25500000000E-02 0. -1.
         11    1    1    2    0    0 -0.76779239819E+01  0.15755419457E+02  0.62443377251E+02  0.64856450116E+02  0.51100000000E-03 0. -1.
         22    1    1    2    0    0 -0.14115942526E+03  0.31741661069E+02  0.75746019643E+03  0.77115463142E+03  0.00000000000E+00 0. -1.
          2    1    1    2  501    0  0.14883734924E+03 -0.47497080526E+02  0.13687573597E+03  0.20771012563E+03  0.25500000000E-02 0. -1.
<mgrwt>
<rscale>  0 0.15623229E+03</rscale>
<asrwt>0</asrwt>
<pdfrwt beam="1">  1       11 0.10000000E+01 0.16331766E+03</pdfrwt>
<pdfrwt beam="2">  1        2 0.66895118E-02 0.15623229E+03</pdfrwt>
<totfact> 0.12709027E+03</totfact>
</mgrwt>
</event>
<event>
 5    1  0.2804411E-003  0.3964975E+03  0.7818608E-02  0.1046080E+00
         11   -1    0    0    0    0  0.00000000000E+00  0.00000000000E+00  0.10003335683E+04  0.10003335683E+04  0.51100000000E-03 0. -1.
          2   -1    0    0  501    0 -0.00000000000E+00 -0.00000000000E+00 -0.82382792856E+03  0.82382792856E+03  0.25500000000E-02 0. -1.
         11    1    1    2    0    0 -0.24343540949E+03  0.28208455480E+03  0.87683315926E+03  0.95271658106E+03  0.51100000000E-03 0. -1.
         22    1    1    2    0    0 -0.19385060108E+02  0.10676131114E+02  0.32715769978E+02  0.39497872553E+02  0.00000000000E+00 0. -1.
          2    1    1    2  501    0  0.26282046960E+03 -0.29276068592E+03 -0.73304328951E+03  0.83194704324E+03  0.25500000000E-02 0. -1.
<mgrwt>
<rscale>  0 0.39342524E+03</rscale>
<asrwt>0</asrwt>
<pdfrwt beam="1">  1       11 0.10000000E+01 0.39649750E+03</pdfrwt>
<pdfrwt beam="2">  1        2 0.12678503E+00 0.39342524E+03</pdfrwt>
<totfact> 0.42070500E+01</totfact>
</mgrwt>
</event>
<event>
 5    1  0.3770771E-003  0.2234337E+03  0.7818608E-02  0.1132955E+00
         11   -1    0    0    0    0  0.00000000000E+00  0.00000000000E+00  0.10003077266E+04  0.10003077266E+04  0.51100000000E-03 0. -1.
         -2   -1    0    0    0  501 -0.00000000000E+00 -0.00000000000E+00 -0.24442656562E+03  0.24442656564E+03  0.25500000000E-02 0.  1.
         11    1    1    2    0    0  0.18309731402E+03 -0.73814638884E+02  0.78965413432E+03  0.81395754138E+03  0.51100000000E-03 0. -1.
         22    1    1    2    0    0  0.19977039732E+02 -0.14003066076E+02  0.14456033233E+03  0.14660442578E+03  0.00000000000E+00 0.  1.
         -2    1    1    2    0  501 -0.20307435375E+03  0.87817704960E+02 -0.17833330563E+03  0.28417232512E+03  0.25500000000E-02 0.  1.
<mgrwt>
<rscale>  0 0.22124905E+03</rscale>
<asrwt>0</asrwt>
<pdfrwt beam="1">  1       11 0.10000000E+01 0.22343371E+03</pdfrwt>
<pdfrwt beam="2">  1       -2 0.37615658E-01 0.22124905E+03</pdfrwt>
<totfact> 0.54085941E+01</totfact>
</mgrwt>
</event>
<event>
 5    1  0.2804411E-003  0.7423380E+03  0.7818608E-02  0.9647448E-01
         11   -1    0    0    0    0  0.00000000000E+00  0.00000000000E+00  0.10017818925E+04  0.10017818925E+04  0.51100000000E-03 0.  1.
          2   -1    0    0  501    0 -0.00000000000E+00 -0.00000000000E+00 -0.19537238898E+04  0.19537238898E+04  0.25500000000E-02 0.  1.
         11    1    1    2    0    0  0.35279373174E+03  0.42663016411E+03  0.17836863760E+03  0.58162882061E+03  0.51100000000E-03 0.  1.
         22    1    1    2    0    0  0.39749320847E+03 -0.13240715386E+03  0.44078813379E+03  0.60813377152E+03  0.00000000000E+00 0.  1.
          2    1    1    2  501    0 -0.75028694020E+03 -0.29422301025E+03 -0.15710987687E+04  0.17657431901E+04  0.25500000000E-02 0.  1.
<mgrwt>
<rscale>  0 0.74233801E+03</rscale>
<asrwt>0</asrwt>
<pdfrwt beam="1">  1       11 0.10000000E+01 0.41896600E+03</pdfrwt>
<pdfrwt beam="2">  1        2 0.30110849E+00 0.74233801E+03</pdfrwt>
<totfact> 0.89443143E+00</totfact>
</mgrwt>
</event>
<event>
 5    1  0.2804411E-003  0.3160971E+03  0.7818608E-02  0.1663288E+00
         11   -1    0    0    0    0  0.00000000000E+00  0.00000000000E+00  0.10001027892E+04  0.10001027892E+04  0.51100000000E-03 0. -1.
          2   -1    0    0  501    0 -0.00000000000E+00 -0.00000000000E+00 -0.36706475344E+03  0.36706475345E+03  0.25500000000E-02 0.  1.
         11    1    1    2    0    0  0.39284048018E+02  0.30796315405E+03  0.53583555293E+03  0.61927722424E+03  0.51100000000E-03 0. -1.
         22    1    1    2    0    0 -0.20558354618E+02 -0.32428648936E+03  0.35940331425E+03  0.48451534075E+03  0.00000000000E+00 0.  1.
          2    1    1    2  501    0 -0.18725693399E+02  0.16323335312E+02 -0.26220083141E+03  0.26337497768E+03  0.25500000000E-02 0.  1.
<mgrwt>
<rscale>  0 0.24841555E+02</rscale>
<asrwt>0</asrwt>
<pdfrwt beam="1">  1       11 0.10000000E+01 0.31609705E+03</pdfrwt>
<pdfrwt beam="2">  1        2 0.56477304E-01 0.24841555E+02</pdfrwt>
<totfact> 0.10890425E+02</totfact>
</mgrwt>
</event>
<event>
 5    1  0.2804411E-003  0.1581845E+03  0.7818608E-02  0.1357000E+00
         11   -1    0    0    0    0  0.00000000000E+00  0.00000000000E+00  0.10002047608E+04  0.10002047608E+04  0.51100000000E-03 0. -1.
          2   -1    0    0  501    0 -0.00000000000E+00 -0.00000000000E+00 -0.28221840089E+03  0.28221840090E+03  0.25500000000E-02 0. -1.
         11    1    1    2    0    0  0.10461814277E+03  0.35783465755E+02 -0.56928493811E+02  0.12436344168E+03  0.51100000000E-03 0. -1.
         22    1    1    2    0    0 -0.12481168571E+03 -0.10376540853E+03  0.95281719164E+03  0.96654323110E+03  0.00000000000E+00 0. -1.
          2    1    1    2  501    0  0.20193542934E+02  0.67981942776E+02 -0.17790233787E+03  0.19151648897E+03  0.25500000000E-02 0. -1.
<mgrwt>
<rscale>  0 0.70917725E+02</rscale>
<asrwt>0</asrwt>
<pdfrwt beam="1">  1       11 0.10000000E+01 0.15818454E+03</pdfrwt>
<pdfrwt beam="2">  1        2 0.43427105E-01 0.70917725E+02</pdfrwt>
<totfact> 0.14362665E+02</totfact>
</mgrwt>
</event>
<event>
 5    1  0.2804411E-003  0.2482795E+03  0.7818608E-02  0.1212486E+00
         11   -1    0    0    0    0  0.00000000000E+00  0.00000000000E+00  0.10018714852E+04  0.10018714852E+04  0.51100000000E-03 0. -1.
          2   -1    0    0  501    0 -0.00000000000E+00 -0.00000000000E+00 -0.31837249418E+04  0.31837249418E+04  0.25500000000E-02 0. -1.
         11    1    1    2    0    0 -0.12313531150E+03  0.25484778422E+03  0.51212287701E+02  0.28763239816E+03  0.51100000000E-03 0. -1.
         22    1    1    2    0    0 -0.17287504245E+02 -0.24724569147E+03  0.81234215888E+03  0.84931094003E+03  0.00000000000E+00 0. -1.
          2    1    1    2  501    0  0.14042281574E+03 -0.76020927575E+01 -0.30454079032E+04  0.30486530888E+04  0.25500000000E-02 0. -1.
<mgrwt>
<rscale>  0 0.14062844E+03</rscale>
<asrwt>0</asrwt>
<pdfrwt beam="1">  1       11 0.10000000E+01 0.24827951E+03</pdfrwt>
<pdfrwt beam="2">  1        2 0.49072048E+00 0.14062844E+03</pdfrwt>
<totfact> 0.22264411E+00</totfact>
</mgrwt>
</event>
<event>
 5    1  0.2804411E-003  0.1661902E+03  0.7818608E-02  0.1199287E+00
         11   -1    0    0    0    0  0.00000000000E+00  0.00000000000E+00  0.10001279094E+04  0.10001279094E+04  0.51100000000E-03 0.  1.
          2   -1    0    0  501    0 -0.00000000000E+00 -0.00000000000E+00 -0.43971684922E+02  0.43971684996E+02  0.25500000000E-02 0.  1.
         11    1    1    2    0    0  0.19833823072E+02  0.66472950003E+02  0.40439792428E+03  0.41030441721E+03  0.51100000000E-03 0.  1.
         22    1    1    2    0    0 -0.49752245272E+02  0.81501950757E+02  0.42817712146E+03  0.43869522590E+03  0.00000000000E+00 0.  1.
          2    1    1    2  501    0  0.29918422200E+02 -0.14797490076E+03  0.12358117871E+03  0.19509995125E+03  0.25500000000E-02 0.  1.
<mgrwt>
<rscale>  0 0.15096915E+03</rscale>
<asrwt>0</asrwt>
<pdfrwt beam="1">  1       11 0.10000000E+01 0.16619021E+03</pdfrwt>
<pdfrwt beam="2">  1        2 0.67657397E-02 0.15096915E+03</pdfrwt>
<totfact> 0.12496240E+03</totfact>
</mgrwt>
</event>
<event>
 5    1  0.2804411E-003  0.2135505E+03  0.7818608E-02  0.1728447E+00
         11   -1    0    0    0    0  0.00000000000E+00  0.00000000000E+00  0.10005025728E+04  0.10005025728E+04  0.51100000000E-03 0.  1.
          2   -1    0    0  501    0 -0.00000000000E+00 -0.00000000000E+00 -0.15895625146E+04  0.15895625146E+04  0.25500000000E-02 0.  1.
         11    1    1    2    0    0  0.10644135334E+03  0.16953590015E+03  0.23380318676E+01  0.20019402972E+03  0.51100000000E-03 0.  1.
         22    1    1    2    0    0 -0.10164151740E+03 -0.18985271464E+03  0.88626885992E+03  0.91205676544E+03  0.00000000000E+00 0.  1.
          2    1    1    2  501    0 -0.47998359434E+01  0.20316814495E+02 -0.14776668335E+04  0.14778142922E+04  0.25500000000E-02 0.  1.
<mgrwt>
<rscale>  0 0.20876096E+02</rscale>
<asrwt>0</asrwt>
<pdfrwt beam="1">  1       11 0.10000000E+01 0.21355052E+03</pdfrwt>
<pdfrwt beam="2">  1        2 0.24467098E+00 0.20876096E+02</pdfrwt>
<totfact> 0.19250982E+01</totfact>
</mgrwt>
</event>
<event>
 5    1  0.2804411E-003  0.8936809E+02  0.7818608E-02  0.1572572E+00
         11   -1    0    0    0    0  0.00000000000E+00  0.00000000000E+00  0.10003177730E+04  0.10003177730E+04  0.51100000000E-03 0.  1.
          2   -1    0    0  501    0 -0.00000000000E+00 -0.00000000000E+00 -0.94877334840E+01  0.94877338267E+01  0.25500000000E-02 0.  1.
         11    1    1    2    0    0 -0.69509470652E+02 -0.60599902182E+02  0.43188189131E+03  0.44161734873E+03  0.51100000000E-03 0.  1.
         22    1    1    2    0    0  0.10915196760E+02 -0.44206896122E+01  0.33726947225E+02  0.35723815391E+02  0.00000000000E+00 0.  1.
          2    1    1    2  501    0  0.58594273892E+02  0.65020591795E+02  0.52522120097E+03  0.53246434270E+03  0.25500000000E-02 0.  1.
<mgrwt>
<rscale>  0 0.32441262E+02</rscale>
<asrwt>0</asrwt>
<pdfrwt beam="1">  1       11 0.10000000E+01 0.89368091E+02</pdfrwt>
<pdfrwt beam="2">  1        2 0.14601151E-02 0.32441262E+02</pdfrwt>
<totfact> 0.77023491E+03</totfact>
</mgrwt>
</event>
<event>
 5    1  0.2804411E-003  0.5128961E+03  0.7818608E-02  0.1010467E+00
         11   -1    0    0    0    0  0.00000000000E+00  0.00000000000E+00  0.99985045538E+03  0.99985045538E+03  0.51100000000E-03 0.  1.
          2   -1    0    0  501    0 -0.00000000000E+00 -0.00000000000E+00 -0.33969444897E+03  0.33969444898E+03  0.25500000000E-02 0.  1.
         11    1    1    2    0    0 -0.10588150578E+03 -0.69883746944E+02  0.48407360165E+02  0.13578624331E+03  0.51100000000E-03 0.  1.
         22    1    1    2    0    0  0.10247336018E+03 -0.47321260182E+03  0.36954165434E+03  0.60909111827E+03  0.00000000000E+00 0.  1.
          2    1    1    2  501    0  0.34081455995E+01  0.54309634876E+03  0.24220699191E+03  0.59466754278E+03  0.25500000000E-02 0.  1.
<mgrwt>
<rscale>  0 0.51289612E+03</rscale>
<asrwt>0</asrwt>
<pdfrwt beam="1">  1       11 0.10000000E+01 0.12686468E+03</pdfrwt>
<pdfrwt beam="2">  1        2 0.52252868E-01 0.51289612E+03</pdfrwt>
<totfact> 0.11836480E+02</totfact>
</mgrwt>
</event>
<event>
 5    1  0.2804411E-003  0.4896577E+02  0.7818608E-02  0.1451001E+00
         11   -1    0    0    0    0  0.00000000000E+00  0.00000000000E+00  0.10001804433E+04  0.10001804433E+04  0.51100000000E-03 0. -1.
          2   -1    0    0  501    0 -0.00000000000E+00 -0.00000000000E+00 -0.12947475420E+03  0.12947475422E+03  0.25500000000E-02 0. -1.
         11    1    1    2    0    0  0.24020824785E+02  0.15540127798E+02 -0.31035366916E+02  0.42210065094E+02  0.51100000000E-03 0. -1.
         22    1    1    2    0    0 -0.11093407233E+02  0.47627141985E+02 -0.85287659215E+02  0.98312731383E+02  0.00000000000E+00 0. -1.
          2    1    1    2  501    0 -0.12927417552E+02 -0.63167269783E+02  0.98702871522E+03  0.98913240104E+03  0.25500000000E-02 0. -1.
<mgrwt>
<rscale>  0 0.48965768E+02</rscale>
<asrwt>0</asrwt>
<pdfrwt beam="1">  1       11 0.10000000E+01 0.28609376E+02</pdfrwt>
<pdfrwt beam="2">  1        2 0.19922787E-01 0.48965768E+02</pdfrwt>
<totfact> 0.32423901E+02</totfact>
</mgrwt>
</event>
<event>
 5    1  0.2804411E-003  0.7894889E+02  0.7818608E-02  0.1338944E+00
         11   -1    0    0    0    0  0.00000000000E+00  0.00000000000E+00  0.10002375783E+04  0.10002375783E+04  0.51100000000E-03 0. -1.
          2   -1    0    0  501    0 -0.00000000000E+00 -0.00000000000E+00 -0.62844647905E+01  0.62844653078E+01  0.25500000000E-02 0. -1.
         11    1    1    2    0    0  0.16471610659E+01  0.62018618137E+02  0.35215251073E+03  0.35757574435E+03  0.51100000000E-03 0. -1.
         22    1    1    2    0    0  0.63381449602E+01  0.14178278605E+02  0.54501799560E+02  0.56671349208E+02  0.00000000000E+00 0.  1.
          2    1    1    2  501    0 -0.79853060262E+01 -0.76196896741E+02  0.58729880323E+03  0.59227495006E+03  0.25500000000E-02 0. -1.
<mgrwt>
<rscale>  0 0.76614177E+02</rscale>
<asrwt>0</asrwt>
<pdfrwt beam="1">  1       11 0.10000000E+01 0.78948885E+02</pdfrwt>
<pdfrwt beam="2">  1        2 0.96707045E-03 0.76614177E+02</pdfrwt>
<totfact> 0.15544988E+04</totfact>
</mgrwt>
</event>
<event>
 5    1  0.2804411E-003  0.2954434E+03  0.7818608E-02  0.1087541E+00
         11   -1    0    0    0    0  0.00000000000E+00  0.00000000000E+00  0.10001264240E+04  0.10001264240E+04  0.51100000000E-03 0. -1.
          2   -1    0    0  501    0 -0.00000000000E+00 -0.00000000000E+00 -0.32423494375E+03  0.32423494376E+03  0.25500000000E-02 0.  1.
         11    1    1    2    0    0  0.11521809840E+03  0.35367061307E+02  0.38498817189E+03  0.40341285517E+03  0.51100000000E-03 0. -1.
         22    1    1    2    0    0 -0.95500341940E+02 -0.32601747354E+03  0.46929504047E+03  0.57934924129E+03  0.00000000000E+00 0. -1.
          2    1    1    2  501    0 -0.19717756459E+02  0.29065041223E+03 -0.17839173212E+03  0.34159927129E+03  0.25500000000E-02 0.  1.
<mgrwt>
<rscale>  0 0.29544345E+03</rscale>
<asrwt>0</asrwt>
<pdfrwt beam="1">  1       11 0.10000000E+01 0.12052402E+03</pdfrwt>
<pdfrwt beam="2">  1        2 0.49888604E-01 0.29544345E+03</pdfrwt>
<totfact> 0.12473160E+02</totfact>
</mgrwt>
</event>
<event>
 5    1  0.2804411E-003  0.3250937E+02  0.7818608E-02  0.1571900E+00
         11   -1    0    0    0    0  0.00000000000E+00  0.00000000000E+00  0.10003051423E+04  0.10003051423E+04  0.51100000000E-03 0.  1.
         -2   -1    0    0    0  501 -0.00000000000E+00 -0.00000000000E+00 -0.48725885817E+01  0.48725892489E+01  0.25500000000E-02 0. -1.
         11    1    1    2    0    0  0.11901044753E+02  0.95290681011E+01  0.69236886404E+02  0.70895588327E+02  0.51100000000E-03 0.  1.
         22    1    1    2    0    0 -0.10467171590E+02  0.30339100611E+02  0.68355916142E+02  0.75515256595E+02  0.00000000000E+00 0.  1.
         -2    1    1    2    0  501 -0.14338731629E+01 -0.39868168712E+02  0.85783975116E+03  0.85876688661E+03  0.25500000000E-02 0. -1.
<mgrwt>
<rscale>  0 0.32509375E+02</rscale>
<asrwt>0</asrwt>
<pdfrwt beam="1">  1       11 0.10000000E+01 0.15245925E+02</pdfrwt>
<pdfrwt beam="2">  1       -2 0.74985779E-03 0.32509375E+02</pdfrwt>
<totfact> 0.17832151E+04</totfact>
</mgrwt>
</event>
<event>
 5    1  0.2804411E-003  0.3520511E+03  0.7818608E-02  0.1063605E+00
         11   -1    0    0    0    0  0.00000000000E+00  0.00000000000E+00  0.10002098231E+04  0.10002098231E+04  0.51100000000E-03 0. -1.
          2   -1    0    0  501    0 -0.00000000000E+00 -0.00000000000E+00 -0.36975481119E+03  0.36975481120E+03  0.25500000000E-02 0. -1.
         11    1    1    2    0    0  0.25872063983E+03 -0.11958533145E+03  0.65939973575E+03  0.71836274436E+03  0.51100000000E-03 0. -1.
         22    1    1    2    0    0  0.51515298893E+02 -0.37187686477E+02  0.21679396165E+03  0.22591231010E+03  0.00000000000E+00 0. -1.
          2    1    1    2  501    0 -0.31023593872E+03  0.15677301792E+03 -0.24573868550E+03  0.42568957984E+03  0.25500000000E-02 0. -1.
<mgrwt>
<rscale>  0 0.34759764E+03</rscale>
<asrwt>0</asrwt>
<pdfrwt beam="1">  1       11 0.10000000E+01 0.35205111E+03</pdfrwt>
<pdfrwt beam="2">  1        2 0.56897290E-01 0.34759764E+03</pdfrwt>
<totfact> 0.10799341E+02</totfact>
</mgrwt>
</event>
<event>
 5    1  0.2804411E-003  0.1202158E+03  0.7818608E-02  0.1248344E+00
         11   -1    0    0    0    0  0.00000000000E+00  0.00000000000E+00  0.99991208426E+03  0.99991208426E+03  0.51100000000E-03 0. -1.
          2   -1    0    0  501    0 -0.00000000000E+00 -0.00000000000E+00 -0.66068855731E+03  0.66068855731E+03  0.25500000000E-02 0.  1.
         11    1    1    2    0    0  0.10183002242E+03 -0.83312838588E+02  0.63189876827E+03  0.64545056811E+03  0.51100000000E-03 0. -1.
         22    1    1    2    0    0  0.34049455320E+01  0.13415846831E+03  0.34326144850E+03  0.36856276304E+03  0.00000000000E+00 0.  1.
          2    1    1    2  501    0 -0.10523496795E+03 -0.50845629720E+02 -0.63593668981E+03  0.64658731042E+03  0.25500000000E-02 0.  1.
<mgrwt>
<rscale>  0 0.11687462E+03</rscale>
<asrwt>0</asrwt>
<pdfrwt beam="1">  1       11 0.10000000E+01 0.12021576E+03</pdfrwt>
<pdfrwt beam="2">  1        2 0.10163545E+00 0.11687462E+03</pdfrwt>
<totfact> 0.57458363E+01</totfact>
</mgrwt>
</event>
<event>
 5    1  0.2804411E-003  0.8828594E+02  0.7818608E-02  0.1687727E+00
         11   -1    0    0    0    0  0.00000000000E+00  0.00000000000E+00  0.10002606098E+04  0.10002606098E+04  0.51100000000E-03 0. -1.
          2   -1    0    0  501    0 -0.00000000000E+00 -0.00000000000E+00 -0.16199824142E+03  0.16199824144E+03  0.25500000000E-02 0. -1.
         11    1    1    2    0    0  0.70042423170E+02 -0.36184932221E+02  0.46085436559E+03  0.46754896711E+03  0.51100000000E-03 0. -1.
         22    1    1    2    0    0 -0.89796129911E+02  0.48418566350E+02  0.53031956391E+03  0.54004309308E+03  0.00000000000E+00 0. -1.
          2    1    1    2  501    0  0.19753706741E+02 -0.12233634128E+02 -0.15291156110E+03  0.15466679107E+03  0.25500000000E-02 0. -1.
<mgrwt>
<rscale>  0 0.23235119E+02</rscale>
<asrwt>0</asrwt>
<pdfrwt beam="1">  1       11 0.10000000E+01 0.88285944E+02</pdfrwt>
<pdfrwt beam="2">  1        2 0.24929301E-01 0.23235119E+02</pdfrwt>
<totfact> 0.24647576E+02</totfact>
</mgrwt>
</event>
<event>
 5    1  0.2804411E-003  0.2631200E+03  0.7818608E-02  0.1117310E+00
         11   -1    0    0    0    0  0.00000000000E+00  0.00000000000E+00  0.10000927937E+04  0.10000927937E+04  0.51100000000E-03 0. -1.
         -2   -1    0    0    0  501 -0.00000000000E+00 -0.00000000000E+00 -0.10959617729E+03  0.10959617732E+03  0.25500000000E-02 0.  1.
         11    1    1    2    0    0  0.15715204688E+02 -0.10781402743E+03  0.20918649948E+03  0.23585975437E+03  0.51100000000E-03 0. -1.
         22    1    1    2    0    0  0.17181010037E+02 -0.13372026882E+03  0.60286169373E+03  0.61775279778E+03  0.00000000000E+00 0. -1.
         -2    1    1    2    0  501 -0.32896214725E+02  0.24153429625E+03  0.78448423235E+02  0.25607641891E+03  0.25500000000E-02 0.  1.
<mgrwt>
<rscale>  0 0.24376418E+03</rscale>
<asrwt>0</asrwt>
<pdfrwt beam="1">  1       11 0.10000000E+01 0.26311997E+03</pdfrwt>
<pdfrwt beam="2">  1       -2 0.16862514E-01 0.24376418E+03</pdfrwt>
<totfact> 0.22480424E+02</totfact>
</mgrwt>
</event>
<event>
 5    1  0.2804411E-003  0.2654489E+03  0.7818608E-02  0.1106742E+00
         11   -1    0    0    0    0  0.00000000000E+00  0.00000000000E+00  0.10003372507E+04  0.10003372507E+04  0.51100000000E-03 0. -1.
          2   -1    0    0  501    0 -0.00000000000E+00 -0.00000000000E+00 -0.87969356197E+02  0.87969356234E+02  0.25500000000E-02 0. -1.
         11    1    1    2    0    0  0.17121278646E+03 -0.14060862359E+03  0.54580252489E+03  0.58905432640E+03  0.51100000000E-03 0. -1.
         22    1    1    2    0    0  0.25801711096E+02 -0.30076666082E+02  0.16513995226E+03  0.16982796581E+03  0.00000000000E+00 0. -1.
          2    1    1    2  501    0 -0.19701449756E+03  0.17068528967E+03  0.20142541731E+03  0.32942431468E+03  0.25500000000E-02 0. -1.
<mgrwt>
<rscale>  0 0.26066872E+03</rscale>
<asrwt>0</asrwt>
<pdfrwt beam="1">  1       11 0.10000000E+01 0.26544892E+03</pdfrwt>
<pdfrwt beam="2">  1        2 0.13538311E-01 0.26066872E+03</pdfrwt>
<totfact> 0.54250632E+02</totfact>
</mgrwt>
</event>
<event>
 5    1  0.2804411E-003  0.3369373E+03  0.7818608E-02  0.1068108E+00
         11   -1    0    0    0    0  0.00000000000E+00  0.00000000000E+00  0.10007147627E+04  0.10007147627E+04  0.51100000000E-03 0. -1.
          2   -1    0    0  501    0 -0.00000000000E+00 -0.00000000000E+00 -0.10169061027E+04  0.10169061027E+04  0.25500000000E-02 0. -1.
         11    1    1    2    0    0  0.16137053931E+02 -0.20587656192E+03  0.10416679615E+03  0.23129263861E+03  0.51100000000E-03 0. -1.
         22    1    1    2    0    0 -0.54673911910E+02 -0.15709407576E+03  0.78905522591E+03  0.80639688418E+03  0.00000000000E+00 0. -1.
          2    1    1    2  501    0  0.38536857979E+02  0.36297063767E+03 -0.90941336204E+03  0.97993134265E+03  0.25500000000E-02 0. -1.
<mgrwt>
<rscale>  0 0.33693730E+03</rscale>
<asrwt>0</asrwt>
<pdfrwt beam="1">  1       11 0.10000000E+01 0.16633636E+03</pdfrwt>
<pdfrwt beam="2">  1        2 0.15655891E+00 0.33693730E+03</pdfrwt>
<totfact> 0.31701947E+01</totfact>
</mgrwt>
</event>
<event>
 5    1  0.2804411E-003  0.8926218E+02  0.7818608E-02  0.1320181E+00
         11   -1    0    0    0    0  0.00000000000E+00  0.00000000000E+00  0.10002688511E+04  0.10002688511E+04  0.51100000000E-03 0. -1.
          2   -1    0    0  501    0 -0.00000000000E+00 -0.00000000000E+00 -0.10182943330E+02  0.10182943649E+02  0.25500000000E-02 0. -1.
         11    1    1    2    0    0  0.88202646022E+01  0.56701652054E+02  0.12419241875E+03  0.13680873981E+03  0.51100000000E-03 0. -1.
         22    1    1    2    0    0  0.15572002523E+02  0.22852742785E+02  0.12118151926E+03  0.12429680497E+03  0.00000000000E+00 0. -1.
          2    1    1    2  501    0 -0.24392267125E+02 -0.79554394840E+02  0.74471196973E+03  0.74934624994E+03  0.25500000000E-02 0. -1.
<mgrwt>
<rscale>  0 0.83209882E+02</rscale>
<asrwt>0</asrwt>
<pdfrwt beam="1">  1       11 0.10000000E+01 0.89262176E+02</pdfrwt>
<pdfrwt beam="2">  1        2 0.15670278E-02 0.83209882E+02</pdfrwt>
<totfact> 0.81717016E+03</totfact>
</mgrwt>
</event>
<event>
 5    1  0.2804411E-003  0.1653399E+03  0.7818608E-02  0.1182797E+00
         11   -1    0    0    0    0  0.00000000000E+00  0.00000000000E+00  0.10001489379E+04  0.10001489379E+04  0.51100000000E-03 0. -1.
          2   -1    0    0  501    0 -0.00000000000E+00 -0.00000000000E+00 -0.12679509833E+03  0.12679509835E+03  0.25500000000E-02 0. -1.
         11    1    1    2    0    0 -0.10349193361E+03  0.49374859479E+02  0.48167253115E+03  0.49513319858E+03  0.51100000000E-03 0. -1.
         22    1    1    2    0    0 -0.70124640614E+02 -0.57266478900E+02  0.44176136052E+03  0.45094347149E+03  0.00000000000E+00 0. -1.
          2    1    1    2  501    0  0.17361657423E+03  0.78916194214E+01 -0.50080052146E+02  0.18086736614E+03  0.25500000000E-02 0. -1.
<mgrwt>
<rscale>  0 0.16533994E+03</rscale>
<asrwt>0</asrwt>
<pdfrwt beam="1">  1       11 0.10000000E+01 0.90536815E+02</pdfrwt>
<pdfrwt beam="2">  1        2 0.19509843E-01 0.16533994E+03</pdfrwt>
<totfact> 0.34777752E+02</totfact>
</mgrwt>
</event>
<event>
 5    1  0.2804411E-003  0.2265805E+03  0.7818608E-02  0.1129070E+00
         11   -1    0    0    0    0  0.00000000000E+00  0.00000000000E+00  0.10002516713E+04  0.10002516713E+04  0.51100000000E-03 0.  1.
          2   -1    0    0  501    0 -0.00000000000E+00 -0.00000000000E+00 -0.76402699754E+03  0.76402699755E+03  0.25500000000E-02 0.  1.
         11    1    1    2    0    0  0.55715785061E+02  0.59873692424E+02  0.12865910921E+02  0.82792749764E+02  0.51100000000E-03 0.  1.
         22    1    1    2    0    0  0.16640796173E+03 -0.90833551068E+01  0.92700511607E+03  0.94186655227E+03  0.00000000000E+00 0.  1.
          2    1    1    2  501    0 -0.22212374679E+03 -0.50790337317E+02 -0.70364635326E+03  0.73961936678E+03  0.25500000000E-02 0.  1.
<mgrwt>
<rscale>  0 0.22658053E+03</rscale>
<asrwt>0</asrwt>
<pdfrwt beam="1">  1       11 0.10000000E+01 0.81786966E+02</pdfrwt>
<pdfrwt beam="2">  1        2 0.11757219E+00 0.22658053E+03</pdfrwt>
<totfact> 0.47255659E+01</totfact>
</mgrwt>
</event>
<event>
 5    1  0.2804411E-003  0.1690361E+03  0.7818608E-02  0.1181010E+00
         11   -1    0    0    0    0  0.00000000000E+00  0.00000000000E+00  0.10000620677E+04  0.10000620677E+04  0.51100000000E-03 0. -1.
         -2   -1    0    0    0  501 -0.00000000000E+00 -0.00000000000E+00 -0.39014353883E+02  0.39014353966E+02  0.25500000000E-02 0.  1.
         11    1    1    2    0    0 -0.11374658520E+03 -0.86489542852E+02  0.62616466899E+03  0.64226234465E+03  0.51100000000E-03 0. -1.
         22    1    1    2    0    0 -0.12630584416E+02 -0.22683680686E+02  0.12962499923E+03  0.13219955166E+03  0.00000000000E+00 0. -1.
         -2    1    1    2    0  501  0.12637716961E+03  0.10917322354E+03  0.20525804555E+03  0.26461452531E+03  0.25500000000E-02 0.  1.
<mgrwt>
<rscale>  0 0.16700294E+03</rscale>
<asrwt>0</asrwt>
<pdfrwt beam="1">  1       11 0.10000000E+01 0.16903611E+03</pdfrwt>
<pdfrwt beam="2">  1       -2 0.60025807E-02 0.16700294E+03</pdfrwt>
<totfact> 0.11396164E+03</totfact>
</mgrwt>
</event>
<event>
 5    1  0.2804411E-003  0.2887800E+02  0.7818608E-02  0.1700458E+00
         11   -1    0    0    0    0  0.00000000000E+00  0.00000000000E+00  0.99984476038E+03  0.99984476038E+03  0.51100000000E-03 0. -1.
          2   -1    0    0  501    0 -0.00000000000E+00 -0.00000000000E+00 -0.48116093358E+01  0.48116100116E+01  0.25500000000E-02 0. -1.
         11    1    1    2    0    0 -0.42637347435E+01 -0.33600904768E+02  0.88903170102E+02  0.95136606465E+02  0.51100000000E-03 0. -1.
         22    1    1    2    0    0 -0.16133785364E+02  0.24205173089E+02  0.13663837733E+03  0.13970052109E+03  0.00000000000E+00 0.  1.
          2    1    1    2  501    0  0.20397520108E+02  0.93957316789E+01  0.76949160361E+03  0.76981924284E+03  0.25500000000E-02 0. -1.
<mgrwt>
<rscale>  0 0.22457484E+02</rscale>
<asrwt>0</asrwt>
<pdfrwt beam="1">  1       11 0.10000000E+01 0.28877997E+02</pdfrwt>
<pdfrwt beam="2">  1        2 0.74013271E-03 0.22457484E+02</pdfrwt>
<totfact> 0.17338557E+04</totfact>
</mgrwt>
</event>
<event>
 5    1  0.2804411E-003  0.1879161E+03  0.7818608E-02  0.1160354E+00
         11   -1    0    0    0    0  0.00000000000E+00  0.00000000000E+00  0.99989979164E+03  0.99989979164E+03  0.51100000000E-03 0.  1.
          2   -1    0    0  501    0 -0.00000000000E+00 -0.00000000000E+00 -0.28042515403E+03  0.28042515404E+03  0.25500000000E-02 0.  1.
         11    1    1    2    0    0 -0.15970972994E+03  0.95426774974E+01  0.87434958967E+03  0.88886751852E+03  0.51100000000E-03 0.  1.
         22    1    1    2    0    0 -0.19202635199E+02  0.52021327894E+02  0.75288765219E+02  0.93505924532E+02  0.00000000000E+00 0.  1.
          2    1    1    2  501    0  0.17891236514E+03 -0.61564005392E+02 -0.23016371727E+03  0.29795150262E+03  0.25500000000E-02 0.  1.
<mgrwt>
<rscale>  0 0.18791608E+03</rscale>
<asrwt>0</asrwt>
<pdfrwt beam="1">  1       11 0.10000000E+01 0.55452320E+02</pdfrwt>
<pdfrwt beam="2">  1        2 0.43138007E-01 0.18791608E+03</pdfrwt>
<totfact> 0.14577678E+02</totfact>
</mgrwt>
</event>
<event>
 5    1  0.2804411E-003  0.3238572E+03  0.7818608E-02  0.1080564E+00
         11   -1    0    0    0    0  0.00000000000E+00  0.00000000000E+00  0.10003513745E+04  0.10003513745E+04  0.51100000000E-03 0.  1.
          2   -1    0    0  501    0 -0.00000000000E+00 -0.00000000000E+00 -0.70959960438E+03  0.70959960439E+03  0.25500000000E-02 0.  1.
         11    1    1    2    0    0  0.47834966225E+02  0.26383129052E+03  0.83414226093E+03  0.87617831822E+03  0.51100000000E-03 0.  1.
         22    1    1    2    0    0  0.40304170321E+02  0.32899597571E+02  0.10394283035E+03  0.11623649017E+03  0.00000000000E+00 0. -1.
          2    1    1    2  501    0 -0.88139136545E+02 -0.29673088810E+03 -0.64733332114E+03  0.71753617052E+03  0.25500000000E-02 0.  1.
<mgrwt>
<rscale>  0 0.30954439E+03</rscale>
<asrwt>0</asrwt>
<pdfrwt beam="1">  1       11 0.10000000E+01 0.32385724E+03</pdfrwt>
<pdfrwt beam="2">  1        2 0.10920753E+00 0.30954439E+03</pdfrwt>
<totfact> 0.51263491E+01</totfact>
</mgrwt>
</event>
<event>
 5    1  0.2804411E-003  0.3450123E+03  0.7818608E-02  0.1065670E+00
         11   -1    0    0    0    0  0.00000000000E+00  0.00000000000E+00  0.10001759598E+04  0.10001759598E+04  0.51100000000E-03 0. -1.
          2   -1    0    0  501    0 -0.00000000000E+00 -0.00000000000E+00 -0.30940695158E+03  0.30940695159E+03  0.25500000000E-02 0. -1.
         11    1    1    2    0    0 -0.29965842787E+03 -0.13849466296E+03  0.83024984362E+03  0.89347117910E+03  0.51100000000E-03 0. -1.
         22    1    1    2    0    0 -0.14557997697E+02  0.18119706281E+01  0.30325406480E+02  0.33687517164E+02  0.00000000000E+00 0.  1.
          2    1    1    2  501    0  0.31421642557E+03  0.13668269233E+03 -0.16980624192E+03  0.38242421508E+03  0.25500000000E-02 0. -1.
<mgrwt>
<rscale>  0 0.34265744E+03</rscale>
<asrwt>0</asrwt>
<pdfrwt beam="1">  1       11 0.10000000E+01 0.34501230E+03</pdfrwt>
<pdfrwt beam="2">  1        2 0.47609444E-01 0.34265744E+03</pdfrwt>
<totfact> 0.13122533E+02</totfact>
</mgrwt>
</event>
<event>
 5    1  0.3147712E-003  0.2049822E+03  0.7818608E-02  0.1147610E+00
         11   -1    0    0    0    0  0.00000000000E+00  0.00000000000E+00  0.10001503923E+04  0.10001503923E+04  0.51100000000E-03 0. -1.
          2   -1    0    0  501    0 -0.00000000000E+00 -0.00000000000E+00 -0.30813839111E+03  0.30813839112E+03  0.25500000000E-02 0. -1.
         11    1    1    2    0    0  0.19260694318E+03 -0.19574383248E+02  0.90074930504E+03  0.92131965222E+03  0.51100000000E-03 0. -1.
         22    1    1    2    0    0  0.80444941938E+01 -0.80508042618E+01  0.54021107065E+02  0.55206968262E+02  0.00000000000E+00 0. -1.
          2    1    1    2  501    0 -0.20065143737E+03  0.27625187510E+02 -0.26275841086E+03  0.33176216298E+03  0.25500000000E-02 0. -1.
<mgrwt>
<rscale>  0 0.20254419E+03</rscale>
<asrwt>0</asrwt>
<pdfrwt beam="1">  1       11 0.10000000E+01 0.20498220E+03</pdfrwt>
<pdfrwt beam="2">  1        2 0.47413034E-01 0.20254419E+03</pdfrwt>
<totfact> 0.13176920E+02</totfact>
</mgrwt>
</event>
<event>
 5    1  0.2804411E-003  0.1890566E+03  0.7818608E-02  0.1160898E+00
         11   -1    0    0    0    0  0.00000000000E+00  0.00000000000E+00  0.99994748808E+03  0.99994748808E+03  0.51100000000E-03 0. -1.
          2   -1    0    0  501    0 -0.00000000000E+00 -0.00000000000E+00 -0.43573078744E+02  0.43573078818E+02  0.25500000000E-02 0. -1.
         11    1    1    2    0    0  0.15868376607E+03 -0.57417784645E+02  0.62804909067E+03  0.65032530314E+03  0.51100000000E-03 0. -1.
         22    1    1    2    0    0  0.20212098789E+02  0.18636767560E+01  0.77658942431E+02  0.80267761698E+02  0.00000000000E+00 0. -1.
          2    1    1    2  501    0 -0.17889586486E+03  0.55554107889E+02  0.25066637623E+03  0.31292750206E+03  0.25500000000E-02 0. -1.
<mgrwt>
<rscale>  0 0.18732322E+03</rscale>
<asrwt>0</asrwt>
<pdfrwt beam="1">  1       11 0.10000000E+01 0.18905660E+03</pdfrwt>
<pdfrwt beam="2">  1        2 0.67031984E-02 0.18732322E+03</pdfrwt>
<totfact> 0.12831208E+03</totfact>
</mgrwt>
</event>
<event>
 5    1  0.2804411E-003  0.1602682E+03  0.7818608E-02  0.1188394E+00
         11   -1    0    0    0    0  0.00000000000E+00  0.00000000000E+00  0.99985557768E+03  0.99985557768E+03  0.51100000000E-03 0. -1.
          2   -1    0    0  501    0 -0.00000000000E+00 -0.00000000000E+00 -0.66657038512E+03  0.66657038513E+03  0.25500000000E-02 0. -1.
         11    1    1    2    0    0 -0.31289283637E+02  0.19802839104E+02  0.15236471637E+02  0.40041500663E+02  0.51100000000E-03 0. -1.
         22    1    1    2    0    0  0.18845963783E+03  0.10112398592E+02  0.95304003360E+03  0.97154752912E+03  0.00000000000E+00 0. -1.
          2    1    1    2  501    0 -0.15717035420E+03 -0.29915237696E+02 -0.63499131267E+03  0.65483693303E+03  0.25500000000E-02 0. -1.
<mgrwt>
<rscale>  0 0.16026818E+03</rscale>
<asrwt>0</asrwt>
<pdfrwt beam="1">  1       11 0.10000000E+01 0.37029336E+02</pdfrwt>
<pdfrwt beam="2">  1        2 0.10253448E+00 0.16026818E+03</pdfrwt>
<totfact> 0.56378704E+01</totfact>
</mgrwt>
</event>
<event>
 5    1  0.2804411E-003  0.1966452E+03  0.7818608E-02  0.1156893E+00
         11   -1    0    0    0    0  0.00000000000E+00  0.00000000000E+00  0.10000635412E+04  0.10000635412E+04  0.51100000000E-03 0. -1.
          2   -1    0    0  501    0 -0.00000000000E+00 -0.00000000000E+00 -0.51251016904E+02  0.51251016968E+02  0.25500000000E-02 0. -1.
         11    1    1    2    0    0  0.17357791698E+03 -0.19793853258E+00  0.64551032946E+03  0.66844066145E+03  0.51100000000E-03 0. -1.
         22    1    1    2    0    0  0.17658810862E+02  0.14214257512E+02  0.10347232210E+03  0.10592639028E+03  0.00000000000E+00 0. -1.
          2    1    1    2  501    0 -0.19123672784E+03 -0.14016318979E+02  0.19982987271E+03  0.27694750641E+03  0.25500000000E-02 0. -1.
<mgrwt>
<rscale>  0 0.19174969E+03</rscale>
<asrwt>0</asrwt>
<pdfrwt beam="1">  1       11 0.10000000E+01 0.19664516E+03</pdfrwt>
<pdfrwt beam="2">  1        2 0.78852726E-02 0.19174969E+03</pdfrwt>
<totfact> 0.10440931E+03</totfact>
</mgrwt>
</event>
<event>
 5    1  0.2804411E-003  0.3100064E+02  0.7818608E-02  0.1587284E+00
         11   -1    0    0    0    0  0.00000000000E+00  0.00000000000E+00  0.99996028803E+03  0.99996028803E+03  0.51100000000E-03 0. -1.
          2   -1    0    0  501    0 -0.00000000000E+00 -0.00000000000E+00 -0.52237960693E+01  0.52237966917E+01  0.25500000000E-02 0. -1.
         11    1    1    2    0    0  0.20546295554E+02 -0.13000147328E+02  0.96792658564E+02  0.99799663545E+02  0.51100000000E-03 0. -1.
         22    1    1    2    0    0 -0.13299999616E+02 -0.27678374996E+02  0.70353314467E+02  0.76763085456E+02  0.00000000000E+00 0. -1.
          2    1    1    2  501    0 -0.72462959379E+01  0.40678522324E+02  0.82759051893E+03  0.82862133572E+03  0.25500000000E-02 0. -1.
<mgrwt>
<rscale>  0 0.31000638E+02</rscale>
<asrwt>0</asrwt>
<pdfrwt beam="1">  1       11 0.10000000E+01 0.24313673E+02</pdfrwt>
<pdfrwt beam="2">  1        2 0.80362904E-03 0.31000638E+02</pdfrwt>
<totfact> 0.16764862E+04</totfact>
</mgrwt>
</event>
<event>
 5    1  0.2804411E-003  0.9748639E+02  0.7818608E-02  0.1288798E+00
         11   -1    0    0    0    0  0.00000000000E+00  0.00000000000E+00  0.10002540771E+04  0.10002540771E+04  0.51100000000E-03 0. -1.
          2   -1    0    0  501    0 -0.00000000000E+00 -0.00000000000E+00 -0.94315577645E+01  0.94315581093E+01  0.25500000000E-02 0. -1.
         11    1    1    2    0    0  0.68335817938E+02 -0.47654052539E+02  0.45727526793E+03  0.46480249934E+03  0.51100000000E-03 0. -1.
         22    1    1    2    0    0  0.65451747199E+01 -0.12521601057E+02  0.84775996106E+02  0.85945327511E+02  0.00000000000E+00 0. -1.
          2    1    1    2  501    0 -0.74880992658E+02  0.60175653596E+02  0.44877125531E+03  0.45893780836E+03  0.25500000000E-02 0. -1.
<mgrwt>
<rscale>  0 0.96063897E+02</rscale>
<asrwt>0</asrwt>
<pdfrwt beam="1">  1       11 0.10000000E+01 0.97486389E+02</pdfrwt>
<pdfrwt beam="2">  1        2 0.14513775E-02 0.96063897E+02</pdfrwt>
<totfact> 0.92551472E+03</totfact>
</mgrwt>
</event>
<event>
 5    1  0.2804411E-003  0.3941167E+02  0.7818608E-02  0.1512586E+00
         11   -1    0    0    0    0  0.00000000000E+00  0.00000000000E+00  0.10002389542E+04  0.10002389542E+04  0.51100000000E-03 0. -1.
          2   -1    0    0  501    0 -0.00000000000E+00 -0.00000000000E+00 -0.96051786247E+01  0.96051789632E+01  0.25500000000E-02 0. -1.
         11    1    1    2    0    0  0.14888265809E+02 -0.95986447443E+00  0.76885677833E+01  0.16783797944E+02  0.51100000000E-03 0. -1.
         22    1    1    2    0    0 -0.13092617860E+02 -0.37517258277E+02  0.80301762961E+02  0.89595392994E+02  0.00000000000E+00 0.  1.
          2    1    1    2  501    0 -0.17956479495E+01  0.38477122751E+02  0.90264344485E+03  0.90346494224E+03  0.25500000000E-02 0. -1.
<mgrwt>
<rscale>  0 0.39411670E+02</rscale>
<asrwt>0</asrwt>
<pdfrwt beam="1">  1       11 0.10000000E+01 0.14919183E+02</pdfrwt>
<pdfrwt beam="2">  1        2 0.14780729E-02 0.39411670E+02</pdfrwt>
<totfact> 0.78502656E+03</totfact>
</mgrwt>
</event>
<event>
 5    1  0.2804411E-003  0.1599077E+03  0.7818608E-02  0.1191773E+00
         11   -1    0    0    0    0  0.00000000000E+00  0.00000000000E+00  0.10000685830E+04  0.10000685830E+04  0.51100000000E-03 0. -1.
          2   -1    0    0  501    0 -0.00000000000E+00 -0.00000000000E+00 -0.57382516321E+02  0.57382516378E+02  0.25500000000E-02 0. -1.
         11    1    1    2    0    0 -0.53482093980E+01 -0.23377619274E+02  0.96752923162E+02  0.99680713117E+02  0.51100000000E-03 0. -1.
         22    1    1    2    0    0 -0.75583629486E+02 -0.11151146678E+03  0.77251930170E+03  0.78417712525E+03  0.00000000000E+00 0. -1.
          2    1    1    2  501    0  0.80931838884E+02  0.13488908606E+03  0.73413841772E+02  0.17359326096E+03  0.25500000000E-02 0. -1.
<mgrwt>
<rscale>  0 0.15730552E+03</rscale>
<asrwt>0</asrwt>
<pdfrwt beam="1">  1       11 0.10000000E+01 0.15990772E+03</pdfrwt>
<pdfrwt beam="2">  1        2 0.88286846E-02 0.15730552E+03</pdfrwt>
<totfact> 0.89507530E+02</totfact>
</mgrwt>
</event>
<event>
 5    1  0.2804411E-003  0.2457725E+03  0.7818608E-02  0.1125362E+00
         11   -1    0    0    0    0  0.00000000000E+00  0.00000000000E+00  0.10006016729E+04  0.10006016729E+04  0.51100000000E-03 0. -1.
          2   -1    0    0  501    0 -0.00000000000E+00 -0.00000000000E+00 -0.18742977677E+04  0.18742977677E+04  0.25500000000E-02 0. -1.
         11    1    1    2    0    0 -0.20580296264E+03  0.27829773395E+02  0.89753452921E+03  0.92124784225E+03  0.51100000000E-03 0. -1.
         22    1    1    2    0    0 -0.19354526481E+02  0.27370278416E+02  0.80638368538E+02  0.87328553844E+02  0.00000000000E+00 0.  1.
          2    1    1    2  501    0  0.22515748912E+03 -0.55200051811E+02 -0.18518689926E+04  0.18663230445E+04  0.25500000000E-02 0. -1.
<mgrwt>
<rscale>  0 0.23182524E+03</rscale>
<asrwt>0</asrwt>
<pdfrwt beam="1">  1       11 0.10000000E+01 0.24577251E+03</pdfrwt>
<pdfrwt beam="2">  1        2 0.28852699E+00 0.23182524E+03</pdfrwt>
<totfact> 0.10988616E+01</totfact>
</mgrwt>
</event>
<event>
 5    1  0.2804411E-003  0.1610730E+03  0.7818608E-02  0.1187491E+00
         11   -1    0    0    0    0  0.00000000000E+00  0.00000000000E+00  0.10000001680E+04  0.10000001680E+04  0.51100000000E-03 0. -1.
         -2   -1    0    0    0  501 -0.00000000000E+00 -0.00000000000E+00 -0.17428122403E+03  0.17428122405E+03  0.25500000000E-02 0.  1.
         11    1    1    2    0    0 -0.26514204556E+02 -0.12604407386E+03  0.62895757472E+03  0.64201070271E+03  0.51100000000E-03 0. -1.
         22    1    1    2    0    0 -0.61226377429E+02 -0.12080099216E+02  0.32087716549E+03  0.32688951256E+03  0.00000000000E+00 0.  1.
         -2    1    1    2    0  501  0.87740581985E+02  0.13812417307E+03 -0.12411579620E+03  0.20538117681E+03  0.25500000000E-02 0.  1.
<mgrwt>
<rscale>  0 0.16107304E+03</rscale>
<asrwt>0</asrwt>
<pdfrwt beam="1">  1       11 0.10000000E+01 0.62406715E+02</pdfrwt>
<pdfrwt beam="2">  1       -2 0.26812500E-01 0.16107304E+03</pdfrwt>
<totfact> 0.10003657E+02</totfact>
</mgrwt>
</event>
<event>
 5    1  0.2804411E-003  0.1714634E+03  0.7818608E-02  0.1179531E+00
         11   -1    0    0    0    0  0.00000000000E+00  0.00000000000E+00  0.99996933577E+03  0.99996933577E+03  0.51100000000E-03 0. -1.
          2   -1    0    0  501    0 -0.00000000000E+00 -0.00000000000E+00 -0.33289606091E+02  0.33289606189E+02  0.25500000000E-02 0. -1.
         11    1    1    2    0    0 -0.13673878997E+03 -0.81260161476E+01  0.21462919525E+03  0.25461582880E+03  0.51100000000E-03 0. -1.
         22    1    1    2    0    0 -0.31486651943E+02  0.54414757634E+00  0.84408792208E+02  0.90091895025E+02  0.00000000000E+00 0.  1.
          2    1    1    2  501    0  0.16822544191E+03  0.75818685713E+01  0.66764174222E+03  0.68855121814E+03  0.25500000000E-02 0. -1.
<mgrwt>
<rscale>  0 0.16839621E+03</rscale>
<asrwt>0</asrwt>
<pdfrwt beam="1">  1       11 0.10000000E+01 0.17146340E+03</pdfrwt>
<pdfrwt beam="2">  1        2 0.51213207E-02 0.16839621E+03</pdfrwt>
<totfact> 0.18067383E+03</totfact>
</mgrwt>
</event>
<event>
 5    1  0.5144910E-003  0.2279651E+03  0.7818608E-02  0.1129332E+00
         11   -1    0    0    0    0  0.00000000000E+00  0.00000000000E+00  0.10007816316E+04  0.10007816316E+04  0.51100000000E-03 0.  1.
          2   -1    0    0  501    0 -0.00000000000E+00 -0.00000000000E+00 -0.10671317950E+04  0.10671317950E+04  0.25500000000E-02 0.  1.
         11    1    1    2    0    0  0.34250357989E+02  0.20872268318E+03  0.92400612781E+03  0.94790588653E+03  0.51100000000E-03 0.  1.
         22    1    1    2    0    0 -0.36659755303E+01  0.15415716150E+02  0.51496226669E+02  0.53878985163E+02  0.00000000000E+00 0.  1.
          2    1    1    2  501    0 -0.30584382459E+02 -0.22413839933E+03 -0.10418525179E+04  0.10661285549E+04  0.25500000000E-02 0.  1.
<mgrwt>
<rscale>  0 0.22621544E+03</rscale>
<asrwt>0</asrwt>
<pdfrwt beam="1">  1       11 0.10000000E+01 0.22796510E+03</pdfrwt>
<pdfrwt beam="2">  1        2 0.16430244E+00 0.22621544E+03</pdfrwt>
<totfact> 0.30156456E+01</totfact>
</mgrwt>
</event>
<event>
 5    1  0.2804411E-003  0.2180856E+03  0.7818608E-02  0.1135318E+00
         11   -1    0    0    0    0  0.00000000000E+00  0.00000000000E+00  0.10005211557E+04  0.10005211557E+04  0.51100000000E-03 0. -1.
          2   -1    0    0  501    0 -0.00000000000E+00 -0.00000000000E+00 -0.30760519331E+03  0.30760519332E+03  0.25500000000E-02 0. -1.
         11    1    1    2    0    0  0.15213853574E+03  0.90908590156E+02  0.89211724183E+03  0.90955136138E+03  0.51100000000E-03 0. -1.
         22    1    1    2    0    0  0.24151196228E+02  0.40747058214E+02  0.48137995099E+02  0.67534210623E+02  0.00000000000E+00 0. -1.
          2    1    1    2  501    0 -0.17628973196E+03 -0.13165564837E+03 -0.24733927451E+03  0.33104077704E+03  0.25500000000E-02 0. -1.
<mgrwt>
<rscale>  0 0.21808563E+03</rscale>
<asrwt>0</asrwt>
<pdfrwt beam="1">  1       11 0.10000000E+01 0.47366687E+02</pdfrwt>
<pdfrwt beam="2">  1        2 0.47348538E-01 0.21808563E+03</pdfrwt>
<totfact> 0.13197776E+02</totfact>
</mgrwt>
</event>
<event>
 5    1  0.2804411E-003  0.1525808E+03  0.7818608E-02  0.1198863E+00
         11   -1    0    0    0    0  0.00000000000E+00  0.00000000000E+00  0.99997913596E+03  0.99997913596E+03  0.51100000000E-03 0.  1.
          2   -1    0    0  501    0 -0.00000000000E+00 -0.00000000000E+00 -0.31168180811E+02  0.31168180915E+02  0.25500000000E-02 0.  1.
         11    1    1    2    0    0 -0.10541911983E+03  0.94898046361E+02  0.70779426900E+03  0.72186671710E+03  0.51100000000E-03 0.  1.
         22    1    1    2    0    0 -0.10033259107E+02  0.29177190523E+01  0.40592021714E+02  0.41915290762E+02  0.00000000000E+00 0.  1.
          2    1    1    2  501    0  0.11545237894E+03 -0.97815765413E+02  0.22042466443E+03  0.26736530901E+03  0.25500000000E-02 0.  1.
<mgrwt>
<rscale>  0 0.15131813E+03</rscale>
<asrwt>0</asrwt>
<pdfrwt beam="1">  1       11 0.10000000E+01 0.15258085E+03</pdfrwt>
<pdfrwt beam="2">  1        2 0.47950046E-02 0.15131813E+03</pdfrwt>
<totfact> 0.19531321E+03</totfact>
</mgrwt>
</event>
<event>
 5    1  0.2804411E-003  0.5525975E+02  0.7818608E-02  0.1433411E+00
         11   -1    0    0    0    0  0.00000000000E+00  0.00000000000E+00  0.99992800705E+03  0.99992800705E+03  0.51100000000E-03 0.  1.
          2   -1    0    0  501    0 -0.00000000000E+00 -0.00000000000E+00 -0.52797413612E+01  0.52797419770E+01  0.25500000000E-02 0.  1.
         11    1    1    2    0    0 -0.23789353176E+02 -0.76608810978E+01  0.57949301886E+02  0.63108985201E+02  0.51100000000E-03 0.  1.
         22    1    1    2    0    0 -0.28417627999E+02  0.48729614151E+01  0.10895502731E+03  0.11270539166E+03  0.00000000000E+00 0.  1.
          2    1    1    2  501    0  0.52206981175E+02  0.27879196827E+01  0.82774393649E+03  0.82939337216E+03  0.25500000000E-02 0.  1.
<mgrwt>
<rscale>  0 0.52281367E+02</rscale>
<asrwt>0</asrwt>
<pdfrwt beam="1">  1       11 0.10000000E+01 0.55259750E+02</pdfrwt>
<pdfrwt beam="2">  1        2 0.81220945E-03 0.52281367E+02</pdfrwt>
<totfact> 0.18395933E+04</totfact>
</mgrwt>
</event>
<event>
 5    1  0.2804411E-003  0.7877500E+02  0.7818608E-02  0.1341130E+00
         11   -1    0    0    0    0  0.00000000000E+00  0.00000000000E+00  0.10002886850E+04  0.10002886850E+04  0.51100000000E-03 0. -1.
         -2   -1    0    0    0  501 -0.00000000000E+00 -0.00000000000E+00 -0.62676386395E+01  0.62676391583E+01  0.25500000000E-02 0. -1.
         11    1    1    2    0    0  0.35477432039E+02  0.49888300661E+02  0.34425019924E+03  0.34965081210E+03  0.51100000000E-03 0. -1.
         22    1    1    2    0    0  0.26602413100E+01  0.15725504921E+02  0.53569680280E+02  0.55893461461E+02  0.00000000000E+00 0.  1.
         -2    1    1    2    0  501 -0.38137673349E+02 -0.65613805582E+02  0.59620116688E+03  0.60101205063E+03  0.25500000000E-02 0. -1.
<mgrwt>
<rscale>  0 0.75892382E+02</rscale>
<asrwt>0</asrwt>
<pdfrwt beam="1">  1       11 0.10000000E+01 0.78775004E+02</pdfrwt>
<pdfrwt beam="2">  1       -2 0.96453048E-03 0.75892382E+02</pdfrwt>
<totfact> 0.14853578E+04</totfact>
</mgrwt>
</event>
<event>
 5    1  0.2804411E-003  0.6328682E+02  0.7818608E-02  0.1435106E+00
         11   -1    0    0    0    0  0.00000000000E+00  0.00000000000E+00  0.99995035626E+03  0.99995035626E+03  0.51100000000E-03 0.  1.
          2   -1    0    0  501    0 -0.00000000000E+00 -0.00000000000E+00 -0.11602691715E+02  0.11602691996E+02  0.25500000000E-02 0.  1.
         11    1    1    2    0    0 -0.60307998819E+02  0.22643262217E+02  0.30107066476E+03  0.30788523386E+03  0.51100000000E-03 0.  1.
         22    1    1    2    0    0 -0.42761918478E+01 -0.42426844147E+02  0.65020510135E+02  0.77755962210E+02  0.00000000000E+00 0.  1.
          2    1    1    2  501    0  0.64584190667E+02  0.19783581930E+02  0.62225648964E+03  0.62591185219E+03  0.25500000000E-02 0.  1.
<mgrwt>
<rscale>  0 0.51948651E+02</rscale>
<asrwt>0</asrwt>
<pdfrwt beam="1">  1       11 0.10000000E+01 0.63286818E+02</pdfrwt>
<pdfrwt beam="2">  1        2 0.17849408E-02 0.51948651E+02</pdfrwt>
<totfact> 0.63995593E+03</totfact>
</mgrwt>
</event>
<event>
 5    1  0.2804411E-003  0.1155165E+03  0.7818608E-02  0.1250682E+00
         11   -1    0    0    0    0  0.00000000000E+00  0.00000000000E+00  0.10002761049E+04  0.10002761049E+04  0.51100000000E-03 0. -1.
          2   -1    0    0  501    0 -0.00000000000E+00 -0.00000000000E+00 -0.45129293406E+03  0.45129293407E+03  0.25500000000E-02 0.  1.
         11    1    1    2    0    0  0.66987876426E+02  0.45904521989E+02  0.47260158010E+03  0.47952774085E+03  0.51100000000E-03 0. -1.
         22    1    1    2    0    0 -0.18053260517E+03 -0.30079039006E+02  0.50038868467E+03  0.53280916458E+03  0.00000000000E+00 0. -1.
          2    1    1    2  501    0  0.11354472874E+03 -0.15825482984E+02 -0.42400709398E+03  0.43923213349E+03  0.25500000000E-02 0.  1.
<mgrwt>
<rscale>  0 0.11551649E+03</rscale>
<asrwt>0</asrwt>
<pdfrwt beam="1">  1       11 0.10000000E+01 0.81207147E+02</pdfrwt>
<pdfrwt beam="2">  1        2 0.69448850E-01 0.11551649E+03</pdfrwt>
<totfact> 0.87749254E+01</totfact>
</mgrwt>
</event>
<event>
 5    1  0.2804411E-003  0.1175585E+03  0.7818608E-02  0.1247180E+00
         11   -1    0    0    0    0  0.00000000000E+00  0.00000000000E+00  0.99994761213E+03  0.99994761213E+03  0.51100000000E-03 0. -1.
          2   -1    0    0  501    0 -0.00000000000E+00 -0.00000000000E+00 -0.37432808313E+02  0.37432808400E+02  0.25500000000E-02 0. -1.
         11    1    1    2    0    0  0.11765641334E+03  0.62331846374E+02  0.41960697788E+03  0.44022529068E+03  0.51100000000E-03 0. -1.
         22    1    1    2    0    0 -0.79632208944E+02  0.53642614900E+02  0.38928782736E+03  0.40095365239E+03  0.00000000000E+00 0. -1.
          2    1    1    2  501    0 -0.38024204391E+02 -0.11597446127E+03  0.15361999858E+03  0.19620147746E+03  0.25500000000E-02 0. -1.
<mgrwt>
<rscale>  0 0.11755848E+03</rscale>
<asrwt>0</asrwt>
<pdfrwt beam="1">  1       11 0.10000000E+01 0.96014680E+02</pdfrwt>
<pdfrwt beam="2">  1        2 0.57585917E-02 0.11755848E+03</pdfrwt>
<totfact> 0.15083341E+03</totfact>
</mgrwt>
</event>
<event>
 5    1  0.2804411E-003  0.2003077E+03  0.7818608E-02  0.1152574E+00
         11   -1    0    0    0    0  0.00000000000E+00  0.00000000000E+00  0.10003500536E+04  0.10003500536E+04  0.51100000000E-03 0. -1.
          2   -1    0    0  501    0 -0.00000000000E+00 -0.00000000000E+00 -0.23359672914E+04  0.23359672914E+04  0.25500000000E-02 0.  1.
         11    1    1    2    0    0 -0.26589326137E+02 -0.13737598611E+03  0.66496187233E+03  0.67952442596E+03  0.51100000000E-03 0. -1.
         22    1    1    2    0    0 -0.33519726535E+02 -0.49889161444E+02  0.32116136732E+03  0.32673708751E+03  0.00000000000E+00 0. -1.
          2    1    1    2  501    0  0.60109052672E+02  0.18726514755E+03 -0.23217404775E+04  0.23300558316E+04  0.25500000000E-02 0.  1.
<mgrwt>
<rscale>  0 0.19667571E+03</rscale>
<asrwt>0</asrwt>
<pdfrwt beam="1">  1       11 0.10000000E+01 0.20030774E+03</pdfrwt>
<pdfrwt beam="2">  1        2 0.35950538E+00 0.19667571E+03</pdfrwt>
<totfact> 0.64001140E+00</totfact>
</mgrwt>
</event>
<event>
 5    1  0.2804411E-003  0.2182485E+03  0.7818608E-02  0.1339883E+00
         11   -1    0    0    0    0  0.00000000000E+00  0.00000000000E+00  0.10001281878E+04  0.10001281878E+04  0.51100000000E-03 0.  1.
          2   -1    0    0  501    0 -0.00000000000E+00 -0.00000000000E+00 -0.18115994975E+03  0.18115994977E+03  0.25500000000E-02 0. -1.
         11    1    1    2    0    0  0.17600924799E+03  0.10472972113E+03  0.60843112944E+03  0.64197819990E+03  0.51100000000E-03 0.  1.
         22    1    1    2    0    0 -0.24793038642E+03 -0.79244955395E+02  0.31583722868E+03  0.40927056391E+03  0.00000000000E+00 0. -1.
          2    1    1    2  501    0  0.71921138431E+02 -0.25484765734E+02 -0.10530012007E+03  0.13003937377E+03  0.25500000000E-02 0. -1.
<mgrwt>
<rscale>  0 0.76302840E+02</rscale>
<asrwt>0</asrwt>
<pdfrwt beam="1">  1       11 0.10000000E+01 0.21824848E+03</pdfrwt>
<pdfrwt beam="2">  1        2 0.27874333E-01 0.76302840E+02</pdfrwt>
<totfact> 0.22917376E+02</totfact>
</mgrwt>
</event>
<event>
 5    1  0.2804411E-003  0.1780139E+03  0.7818608E-02  0.1169739E+00
         11   -1    0    0    0    0  0.00000000000E+00  0.00000000000E+00  0.10002300913E+04  0.10002300913E+04  0.51100000000E-03 0.  1.
          2   -1    0    0  501    0 -0.00000000000E+00 -0.00000000000E+00 -0.85995591360E+02  0.85995591397E+02  0.25500000000E-02 0.  1.
         11    1    1    2    0    0  0.64047211356E+02  0.12411133604E+03  0.63617856166E+03  0.65132851260E+03  0.51100000000E-03 0.  1.
         22    1    1    2    0    0 -0.37443183883E+02  0.60313094799E+02  0.23247101186E+03  0.24306878199E+03  0.00000000000E+00 0. -1.
          2    1    1    2  501    0 -0.26604027473E+02 -0.18442443084E+03  0.45584926458E+02  0.19182838814E+03  0.25500000000E-02 0.  1.
<mgrwt>
<rscale>  0 0.17801392E+03</rscale>
<asrwt>0</asrwt>
<pdfrwt beam="1">  1       11 0.10000000E+01 0.70990573E+02</pdfrwt>
<pdfrwt beam="2">  1        2 0.13233135E-01 0.17801392E+03</pdfrwt>
<totfact> 0.54897388E+02</totfact>
</mgrwt>
</event>
<event>
 5    1  0.2804411E-003  0.7660747E+02  0.7818608E-02  0.1358428E+00
         11   -1    0    0    0    0  0.00000000000E+00  0.00000000000E+00  0.99996070104E+03  0.99996070104E+03  0.51100000000E-03 0. -1.
          2   -1    0    0  501    0 -0.00000000000E+00 -0.00000000000E+00 -0.62703556185E+01  0.62703561370E+01  0.25500000000E-02 0. -1.
         11    1    1    2    0    0  0.22310528698E+02  0.30222110184E+02  0.16772460389E+03  0.17187983705E+03  0.51100000000E-03 0. -1.
         22    1    1    2    0    0 -0.64114007614E+01  0.38453612298E+02  0.16069320207E+03  0.16535444219E+03  0.00000000000E+00 0.  1.
          2    1    1    2  501    0 -0.15899127936E+02 -0.68675722482E+02  0.66527253946E+03  0.66899677793E+03  0.25500000000E-02 0. -1.
<mgrwt>
<rscale>  0 0.70492107E+02</rscale>
<asrwt>0</asrwt>
<pdfrwt beam="1">  1       11 0.10000000E+01 0.76607466E+02</pdfrwt>
<pdfrwt beam="2">  1        2 0.96463220E-03 0.70492107E+02</pdfrwt>
<totfact> 0.15381003E+04</totfact>
</mgrwt>
</event>
<event>
 5    1  0.2804411E-003  0.2971503E+03  0.7818608E-02  0.1088377E+00
         11   -1    0    0    0    0  0.00000000000E+00  0.00000000000E+00  0.99986768736E+03  0.99986768736E+03  0.51100000000E-03 0. -1.
          2   -1    0    0  501    0 -0.00000000000E+00 -0.00000000000E+00 -0.27088926331E+04  0.27088926331E+04  0.25500000000E-02 0. -1.
         11    1    1    2    0    0 -0.21584202958E+03 -0.13257758356E+03  0.83696411860E+03  0.87445613567E+03  0.51100000000E-03 0. -1.
         22    1    1    2    0    0 -0.24778966125E+02 -0.36018795927E+02  0.13261462504E+03  0.13963520186E+03  0.00000000000E+00 0. -1.
          2    1    1    2  501    0  0.24062099570E+03  0.16859637949E+03 -0.26786036894E+04  0.26946689830E+04  0.25500000000E-02 0. -1.
<mgrwt>
<rscale>  0 0.29380811E+03</rscale>
<asrwt>0</asrwt>
<pdfrwt beam="1">  1       11 0.10000000E+01 0.29715030E+03</pdfrwt>
<pdfrwt beam="2">  1        2 0.41669756E+00 0.29380811E+03</pdfrwt>
<totfact> 0.38114466E+00</totfact>
</mgrwt>
</event>
<event>
 5    1  0.2804411E-003  0.2496299E+03  0.7818608E-02  0.1117509E+00
         11   -1    0    0    0    0  0.00000000000E+00  0.00000000000E+00  0.10002616110E+04  0.10002616110E+04  0.51100000000E-03 0.  1.
          2   -1    0    0  501    0 -0.00000000000E+00 -0.00000000000E+00 -0.25439529616E+03  0.25439529617E+03  0.25500000000E-02 0.  1.
         11    1    1    2    0    0  0.16535586824E+03  0.11745620309E+03  0.70077804576E+03  0.72953984965E+03  0.51100000000E-03 0.  1.
         22    1    1    2    0    0  0.20852975760E+02  0.39384396730E+02  0.22055675770E+03  0.22501391217E+03  0.00000000000E+00 0.  1.
          2    1    1    2  501    0 -0.18620884400E+03 -0.15684059982E+03 -0.17546848863E+03  0.30010314534E+03  0.25500000000E-02 0.  1.
<mgrwt>
<rscale>  0 0.24345987E+03</rscale>
<asrwt>0</asrwt>
<pdfrwt beam="1">  1       11 0.10000000E+01 0.24962985E+03</pdfrwt>
<pdfrwt beam="2">  1        2 0.39147976E-01 0.24345987E+03</pdfrwt>
<totfact> 0.16209178E+02</totfact>
</mgrwt>
</event>
<event>
 5    1  0.2804411E-003  0.1079033E+03  0.7818608E-02  0.1264503E+00
         11   -1    0    0    0    0  0.00000000000E+00  0.00000000000E+00  0.10003604913E+04  0.10003604913E+04  0.51100000000E-03 0. -1.
          2   -1    0    0  501    0 -0.00000000000E+00 -0.00000000000E+00 -0.29994397920E+02  0.29994398028E+02  0.25500000000E-02 0. -1.
         11    1    1    2    0    0 -0.15833276233E+01  0.11246561580E+03  0.10982522970E+03  0.15720242600E+03  0.51100000000E-03 0. -1.
         22    1    1    2    0    0  0.42597522091E+02 -0.27299547491E+02  0.22485590303E+03  0.23047774580E+03  0.00000000000E+00 0. -1.
          2    1    1    2  501    0 -0.41014194468E+02 -0.85166068308E+02  0.63568496065E+03  0.64267471753E+03  0.25500000000E-02 0. -1.
<mgrwt>
<rscale>  0 0.10790329E+03</rscale>
<asrwt>0</asrwt>
<pdfrwt beam="1">  1       11 0.10000000E+01 0.50594606E+02</pdfrwt>
<pdfrwt beam="2">  1        2 0.46161861E-02 0.10790329E+03</pdfrwt>
<totfact> 0.19940544E+03</totfact>
</mgrwt>
</event>
<event>
 5    1  0.2804411E-003  0.8978052E+02  0.7818608E-02  0.1454233E+00
         11   -1    0    0    0    0  0.00000000000E+00  0.00000000000E+00  0.10002264007E+04  0.10002264007E+04  0.51100000000E-03 0.  1.
          2   -1    0    0  501    0 -0.00000000000E+00 -0.00000000000E+00 -0.11600099545E+02  0.11600099825E+02  0.25500000000E-02 0.  1.
         11    1    1    2    0    0  0.58027483336E+01 -0.80890248250E+02  0.37905506304E+03  0.38763338991E+03  0.51100000000E-03 0.  1.
         22    1    1    2    0    0  0.21237548865E+02 -0.15136348740E+02  0.56922812860E+02  0.62612691675E+02  0.00000000000E+00 0. -1.
          2    1    1    2  501    0 -0.27040297199E+02  0.96026596990E+02  0.55264842522E+03  0.56158041891E+03  0.25500000000E-02 0.  1.
<mgrwt>
<rscale>  0 0.48388374E+02</rscale>
<asrwt>0</asrwt>
<pdfrwt beam="1">  1       11 0.10000000E+01 0.89780516E+02</pdfrwt>
<pdfrwt beam="2">  1        2 0.17850347E-02 0.48388374E+02</pdfrwt>
<totfact> 0.63283453E+03</totfact>
</mgrwt>
</event>
<event>
 5    1  0.2804411E-003  0.3203538E+03  0.7818608E-02  0.1087009E+00
         11   -1    0    0    0    0  0.00000000000E+00  0.00000000000E+00  0.10004523010E+04  0.10004523010E+04  0.51100000000E-03 0. -1.
          2   -1    0    0  501    0 -0.00000000000E+00 -0.00000000000E+00 -0.42868183826E+03  0.42868183827E+03  0.25500000000E-02 0.  1.
         11    1    1    2    0    0 -0.41470765460E+01  0.20736165762E+03  0.44910248072E+03  0.49468079959E+03  0.51100000000E-03 0. -1.
         22    1    1    2    0    0 -0.22083625236E+02  0.87965656508E+02  0.46949172695E+03  0.47817164795E+03  0.00000000000E+00 0. -1.
          2    1    1    2  501    0  0.26230701782E+02 -0.29532731413E+03 -0.34682374491E+03  0.45628169175E+03  0.25500000000E-02 0.  1.
<mgrwt>
<rscale>  0 0.29648992E+03</rscale>
<asrwt>0</asrwt>
<pdfrwt beam="1">  1       11 0.10000000E+01 0.32035381E+03</pdfrwt>
<pdfrwt beam="2">  1        2 0.65980880E-01 0.29648992E+03</pdfrwt>
<totfact> 0.91883023E+01</totfact>
</mgrwt>
</event>
<event>
 5    1  0.2804411E-003  0.9243842E+02  0.7818608E-02  0.1297052E+00
         11   -1    0    0    0    0  0.00000000000E+00  0.00000000000E+00  0.10002135211E+04  0.10002135211E+04  0.51100000000E-03 0. -1.
          2   -1    0    0  501    0 -0.00000000000E+00 -0.00000000000E+00 -0.24294573959E+02  0.24294574092E+02  0.25500000000E-02 0. -1.
         11    1    1    2    0    0  0.72447543502E+02  0.54036841126E+02  0.44383435550E+03  0.45294322148E+03  0.51100000000E-03 0. -1.
         22    1    1    2    0    0 -0.56667264380E+02  0.44634796906E+02  0.39721079667E+03  0.40370764290E+03  0.00000000000E+00 0. -1.
          2    1    1    2  501    0 -0.15780279123E+02 -0.98671638032E+02  0.13487379499E+03  0.16785723083E+03  0.25500000000E-02 0. -1.
<mgrwt>
<rscale>  0 0.92438415E+02</rscale>
<asrwt>0</asrwt>
<pdfrwt beam="1">  1       11 0.10000000E+01 0.72134901E+02</pdfrwt>
<pdfrwt beam="2">  1        2 0.37384247E-02 0.92438415E+02</pdfrwt>
<totfact> 0.25891763E+03</totfact>
</mgrwt>
</event>
<event>
 5    1  0.2804411E-003  0.1979572E+03  0.7818608E-02  0.1154421E+00
         11   -1    0    0    0    0  0.00000000000E+00  0.00000000000E+00  0.10000770314E+04  0.10000770314E+04  0.51100000000E-03 0. -1.
          2   -1    0    0  501    0 -0.00000000000E+00 -0.00000000000E+00 -0.94238422779E+02  0.94238422813E+02  0.25500000000E-02 0. -1.
         11    1    1    2    0    0  0.10381369623E+03  0.11161202733E+03  0.64018222501E+03  0.65807887778E+03  0.51100000000E-03 0. -1.
         22    1    1    2    0    0  0.15848976835E+02  0.41784022074E+02  0.23509085911E+03  0.23930066152E+03  0.00000000000E+00 0. -1.
          2    1    1    2  501    0 -0.11966267307E+03 -0.15339604941E+03  0.30565524544E+02  0.19693591495E+03  0.25500000000E-02 0. -1.
<mgrwt>
<rscale>  0 0.19454949E+03</rscale>
<asrwt>0</asrwt>
<pdfrwt beam="1">  1       11 0.10000000E+01 0.19795723E+03</pdfrwt>
<pdfrwt beam="2">  1        2 0.14499335E-01 0.19454949E+03</pdfrwt>
<totfact> 0.49413443E+02</totfact>
</mgrwt>
</event>
<event>
 5    1  0.2804411E-003  0.2204223E+03  0.7818608E-02  0.1461956E+00
         11   -1    0    0    0    0  0.00000000000E+00  0.00000000000E+00  0.10002037287E+04  0.10002037287E+04  0.51100000000E-03 0. -1.
          2   -1    0    0  501    0 -0.00000000000E+00 -0.00000000000E+00 -0.52031955954E+02  0.52031956016E+02  0.25500000000E-02 0. -1.
         11    1    1    2    0    0  0.19225241318E+03 -0.10454889501E+03  0.52685543738E+03  0.57049812770E+03  0.51100000000E-03 0. -1.
         22    1    1    2    0    0  0.75982329843E+01  0.65649580117E+01  0.10688587693E+02  0.14665528461E+02  0.00000000000E+00 0. -1.
          2    1    1    2  501    0 -0.19985064616E+03  0.97983936996E+02  0.41062774763E+03  0.46707202850E+03  0.25500000000E-02 0. -1.
<mgrwt>
<rscale>  0 0.47046486E+02</rscale>
<asrwt>0</asrwt>
<pdfrwt beam="1">  1       11 0.10000000E+01 0.22042233E+03</pdfrwt>
<pdfrwt beam="2">  1        2 0.80065469E-02 0.47046486E+02</pdfrwt>
<totfact> 0.92591052E+02</totfact>
</mgrwt>
</event>
<event>
 5    1  0.2804411E-003  0.2651213E+03  0.7818608E-02  0.1109038E+00
         11   -1    0    0    0    0  0.00000000000E+00  0.00000000000E+00  0.10003564908E+04  0.10003564908E+04  0.51100000000E-03 0.  1.
          2   -1    0    0  501    0 -0.00000000000E+00 -0.00000000000E+00 -0.72237644340E+02  0.72237644385E+02  0.25500000000E-02 0.  1.
         11    1    1    2    0    0  0.14519173750E+03  0.68850549409E+02  0.32628628102E+03  0.36370836665E+03  0.51100000000E-03 0.  1.
         22    1    1    2    0    0  0.10247770743E+03 -0.71200075551E+00  0.27310220723E+03  0.29169676560E+03  0.00000000000E+00 0.  1.
          2    1    1    2  501    0 -0.24766944493E+03 -0.68138548653E+02  0.32873035825E+03  0.41718900297E+03  0.25500000000E-02 0.  1.
<mgrwt>
<rscale>  0 0.25687159E+03</rscale>
<asrwt>0</asrwt>
<pdfrwt beam="1">  1       11 0.10000000E+01 0.26512134E+03</pdfrwt>
<pdfrwt beam="2">  1        2 0.11117445E-01 0.25687159E+03</pdfrwt>
<totfact> 0.68949661E+02</totfact>
</mgrwt>
</event>
<event>
 5    1  0.2804411E-003  0.2180522E+03  0.7818608E-02  0.1179222E+00
         11   -1    0    0    0    0  0.00000000000E+00  0.00000000000E+00  0.10005580787E+04  0.10005580787E+04  0.51100000000E-03 0.  1.
          2   -1    0    0  501    0 -0.00000000000E+00 -0.00000000000E+00 -0.24894335320E+04  0.24894335320E+04  0.25500000000E-02 0.  1.
         11    1    1    2    0    0 -0.27952524857E+02  0.16750453641E+03  0.47839291679E+02  0.17643047127E+03  0.51100000000E-03 0.  1.
         22    1    1    2    0    0  0.19471599480E+03 -0.14209250189E+03  0.86906477557E+03  0.90187481496E+03  0.00000000000E+00 0.  1.
          2    1    1    2  501    0 -0.16676346994E+03 -0.25412034523E+02 -0.24057795205E+04  0.24116863245E+04  0.25500000000E-02 0.  1.
<mgrwt>
<rscale>  0 0.16868855E+03</rscale>
<asrwt>0</asrwt>
<pdfrwt beam="1">  1       11 0.10000000E+01 0.21805222E+03</pdfrwt>
<pdfrwt beam="2">  1        2 0.38320350E+00 0.16868855E+03</pdfrwt>
<totfact> 0.53943909E+00</totfact>
</mgrwt>
</event>
<event>
 5    1  0.2804411E-003  0.1863903E+03  0.7818608E-02  0.1174463E+00
         11   -1    0    0    0    0  0.00000000000E+00  0.00000000000E+00  0.10002040661E+04  0.10002040661E+04  0.51100000000E-03 0. -1.
         -2   -1    0    0    0  501 -0.00000000000E+00 -0.00000000000E+00 -0.32503265188E+02  0.32503265288E+02  0.25500000000E-02 0. -1.
         11    1    1    2    0    0  0.10373404386E+02  0.40632011265E+02  0.72599479156E+02  0.83840635923E+02  0.51100000000E-03 0. -1.
         22    1    1    2    0    0 -0.55743597946E+02  0.12660951040E+03  0.46588938127E+03  0.48599406624E+03  0.00000000000E+00 0. -1.
         -2    1    1    2    0  501  0.45370193561E+02 -0.16724152166E+03  0.42921194050E+03  0.46287262925E+03  0.25500000000E-02 0. -1.
<mgrwt>
<rscale>  0 0.17328641E+03</rscale>
<asrwt>0</asrwt>
<pdfrwt beam="1">  1       11 0.10000000E+01 0.18639028E+03</pdfrwt>
<pdfrwt beam="2">  1       -2 0.50015226E-02 0.17328641E+03</pdfrwt>
<totfact> 0.15073890E+03</totfact>
</mgrwt>
</event>
<event>
 5    1  0.2804411E-003  0.1660797E+03  0.7818608E-02  0.1266945E+00
         11   -1    0    0    0    0  0.00000000000E+00  0.00000000000E+00  0.10000881563E+04  0.10000881563E+04  0.51100000000E-03 0.  1.
          2   -1    0    0  501    0 -0.00000000000E+00 -0.00000000000E+00 -0.48764974926E+02  0.48764974993E+02  0.25500000000E-02 0.  1.
         11    1    1    2    0    0  0.11420317125E+03 -0.75395554429E+02  0.27333837452E+03  0.30568075003E+03  0.51100000000E-03 0.  1.
         22    1    1    2    0    0  0.19920159003E+02 -0.65495666757E+02  0.47400775043E+02  0.83266611396E+02  0.00000000000E+00 0.  1.
          2    1    1    2  501    0 -0.13412333025E+03  0.14089122119E+03  0.63058403180E+03  0.65990576986E+03  0.25500000000E-02 0.  1.
<mgrwt>
<rscale>  0 0.10662774E+03</rscale>
<asrwt>0</asrwt>
<pdfrwt beam="1">  1       11 0.10000000E+01 0.16607968E+03</pdfrwt>
<pdfrwt beam="2">  1        2 0.75029650E-02 0.10662774E+03</pdfrwt>
<totfact> 0.10698266E+03</totfact>
</mgrwt>
</event>
<event>
 5    1  0.2804411E-003  0.3063480E+02  0.7818608E-02  0.1591176E+00
         11   -1    0    0    0    0  0.00000000000E+00  0.00000000000E+00  0.99968932871E+03  0.99968932871E+03  0.51100000000E-03 0. -1.
          2   -1    0    0  501    0 -0.00000000000E+00 -0.00000000000E+00 -0.57219966675E+01  0.57219972357E+01  0.25500000000E-02 0. -1.
         11    1    1    2    0    0  0.16134310265E+01  0.14887379908E+02  0.16486224251E+02  0.22271794506E+02  0.51100000000E-03 0. -1.
         22    1    1    2    0    0  0.29864312626E+02  0.46938937552E+01  0.91129037896E+02  0.96012558320E+02  0.00000000000E+00 0. -1.
          2    1    1    2  501    0 -0.31477743653E+02 -0.19581273663E+02  0.88635206989E+03  0.88712697312E+03  0.25500000000E-02 0. -1.
<mgrwt>
<rscale>  0 0.30634804E+02</rscale>
<asrwt>0</asrwt>
<pdfrwt beam="1">  1       11 0.10000000E+01 0.14974561E+02</pdfrwt>
<pdfrwt beam="2">  1        2 0.88003371E-03 0.30634804E+02</pdfrwt>
<totfact> 0.14830052E+04</totfact>
</mgrwt>
</event>
<event>
 5    1  0.2804411E-003  0.7131905E+03  0.7818608E-02  0.9743525E-01
         11   -1    0    0    0    0  0.00000000000E+00  0.00000000000E+00  0.10001562380E+04  0.10001562380E+04  0.51100000000E-03 0. -1.
          2   -1    0    0  501    0 -0.00000000000E+00 -0.00000000000E+00 -0.86343231153E+03  0.86343231154E+03  0.25500000000E-02 0. -1.
         11    1    1    2    0    0 -0.28740764850E+03 -0.50041510080E+03  0.66012092355E+03  0.87679989920E+03  0.51100000000E-03 0. -1.
         22    1    1    2    0    0 -0.64093119289E+02 -0.87330667633E+02  0.22939495326E+02  0.11072846922E+03  0.00000000000E+00 0. -1.
          2    1    1    2  501    0  0.35150076779E+03  0.58774576844E+03 -0.54633649238E+03  0.87606018115E+03  0.25500000000E-02 0. -1.
<mgrwt>
<rscale>  0 0.68483420E+03</rscale>
<asrwt>0</asrwt>
<pdfrwt beam="1">  1       11 0.10000000E+01 0.71319054E+03</pdfrwt>
<pdfrwt beam="2">  1        2 0.13285649E+00 0.68483420E+03</pdfrwt>
<totfact> 0.38697678E+01</totfact>
</mgrwt>
</event>
<event>
 5    1  0.2804411E-003  0.1888898E+03  0.7818608E-02  0.1167206E+00
         11   -1    0    0    0    0  0.00000000000E+00  0.00000000000E+00  0.10000103400E+04  0.10000103400E+04  0.51100000000E-03 0.  1.
          2   -1    0    0  501    0 -0.00000000000E+00 -0.00000000000E+00 -0.43118459088E+02  0.43118459163E+02  0.25500000000E-02 0.  1.
         11    1    1    2    0    0 -0.84572779721E+02  0.93037278966E+02  0.39221835134E+03  0.41187828964E+03  0.51100000000E-03 0.  1.
         22    1    1    2    0    0 -0.31822365180E+02  0.45075979703E+02  0.33274100069E+03  0.33728486538E+03  0.00000000000E+00 0.  1.
          2    1    1    2  501    0  0.11639514490E+03 -0.13811325867E+03  0.23193252886E+03  0.29396564412E+03  0.25500000000E-02 0.  1.
<mgrwt>
<rscale>  0 0.18061866E+03</rscale>
<asrwt>0</asrwt>
<pdfrwt beam="1">  1       11 0.10000000E+01 0.18888984E+03</pdfrwt>
<pdfrwt beam="2">  1        2 0.66336775E-02 0.18061866E+03</pdfrwt>
<totfact> 0.12972996E+03</totfact>
</mgrwt>
</event>
<event>
 5    1  0.2804411E-003  0.1029549E+03  0.7818608E-02  0.1404268E+00
         11   -1    0    0    0    0  0.00000000000E+00  0.00000000000E+00  0.10001879255E+04  0.10001879255E+04  0.51100000000E-03 0.  1.
          2   -1    0    0  501    0 -0.00000000000E+00 -0.00000000000E+00 -0.20524128956E+02  0.20524129115E+02  0.25500000000E-02 0.  1.
         11    1    1    2    0    0 -0.55866986412E+02  0.64450208970E+02  0.35099400517E+03  0.36120872259E+03  0.51100000000E-03 0.  1.
         22    1    1    2    0    0  0.72111493322E+02 -0.12064195252E+03  0.45871805651E+03  0.47976744736E+03  0.00000000000E+00 0.  1.
          2    1    1    2  501    0 -0.16244506910E+02  0.56191743550E+02  0.16995173484E+03  0.17973588465E+03  0.25500000000E-02 0.  1.
<mgrwt>
<rscale>  0 0.58492701E+02</rscale>
<asrwt>0</asrwt>
<pdfrwt beam="1">  1       11 0.10000000E+01 0.10295492E+03</pdfrwt>
<pdfrwt beam="2">  1        2 0.31581516E-02 0.58492701E+02</pdfrwt>
<totfact> 0.30670010E+03</totfact>
</mgrwt>
</event>
<event>
 5    1  0.2804411E-003  0.1298602E+03  0.7818608E-02  0.1227663E+00
         11   -1    0    0    0    0  0.00000000000E+00  0.00000000000E+00  0.99996318832E+03  0.99996318832E+03  0.51100000000E-03 0. -1.
          2   -1    0    0  501    0 -0.00000000000E+00 -0.00000000000E+00 -0.26658163660E+02  0.26658163782E+02  0.25500000000E-02 0. -1.
         11    1    1    2    0    0 -0.16850606393E+02 -0.21827665922E+02  0.14733401296E+02  0.31264405470E+02  0.51100000000E-03 0. -1.
         22    1    1    2    0    0  0.72617106269E+02 -0.10333898599E+03  0.36709249681E+03  0.38821268831E+03  0.00000000000E+00 0. -1.
          2    1    1    2  501    0 -0.55766499876E+02  0.12516665192E+03  0.59147912655E+03  0.60714425832E+03  0.25500000000E-02 0. -1.
<mgrwt>
<rscale>  0 0.12986020E+03</rscale>
<asrwt>0</asrwt>
<pdfrwt beam="1">  1       11 0.10000000E+01 0.27575183E+02</pdfrwt>
<pdfrwt beam="2">  1        2 0.41011049E-02 0.12986020E+03</pdfrwt>
<totfact> 0.23683186E+03</totfact>
</mgrwt>
</event>
<event>
 5    1  0.2804411E-003  0.1373933E+03  0.7818608E-02  0.1218858E+00
         11   -1    0    0    0    0  0.00000000000E+00  0.00000000000E+00  0.10002974915E+04  0.10002974915E+04  0.51100000000E-03 0.  1.
          2   -1    0    0  501    0 -0.00000000000E+00 -0.00000000000E+00 -0.26357918495E+02  0.26357918618E+02  0.25500000000E-02 0.  1.
         11    1    1    2    0    0  0.10204917473E+03 -0.62047270615E+02  0.17538818106E+03  0.21219074417E+03  0.51100000000E-03 0.  1.
         22    1    1    2    0    0  0.16711646422E+02 -0.41609071237E+01  0.36261790710E+02  0.40143613935E+02  0.00000000000E+00 0.  1.
          2    1    1    2  501    0 -0.11876082115E+03  0.66208177739E+02  0.76228960128E+03  0.77432105206E+03  0.25500000000E-02 0.  1.
<mgrwt>
<rscale>  0 0.13596932E+03</rscale>
<asrwt>0</asrwt>
<pdfrwt beam="1">  1       11 0.10000000E+01 0.13739330E+03</pdfrwt>
<pdfrwt beam="2">  1        2 0.40562706E-02 0.13596932E+03</pdfrwt>
<totfact> 0.24129859E+03</totfact>
</mgrwt>
</event>
<event>
 5    1  0.2804411E-003  0.1350902E+03  0.7818608E-02  0.1241835E+00
         11   -1    0    0    0    0  0.00000000000E+00  0.00000000000E+00  0.10002682981E+04  0.10002682981E+04  0.51100000000E-03 0.  1.
          2   -1    0    0  501    0 -0.00000000000E+00 -0.00000000000E+00 -0.56032338476E+02  0.56032338534E+02  0.25500000000E-02 0.  1.
         11    1    1    2    0    0  0.88688730712E+02 -0.11725111715E+03  0.57752749856E+03  0.59594590948E+03  0.51100000000E-03 0.  1.
         22    1    1    2    0    0  0.31639095220E+02  0.12755343580E+03  0.92437273776E+02  0.16067221575E+03  0.00000000000E+00 0.  1.
          2    1    1    2  501    0 -0.12032782593E+03 -0.10302318647E+02  0.27427118731E+03  0.29968251143E+03  0.25500000000E-02 0.  1.
<mgrwt>
<rscale>  0 0.12076806E+03</rscale>
<asrwt>0</asrwt>
<pdfrwt beam="1">  1       11 0.10000000E+01 0.13509020E+03</pdfrwt>
<pdfrwt beam="2">  1        2 0.86226723E-02 0.12076806E+03</pdfrwt>
<totfact> 0.90693360E+02</totfact>
</mgrwt>
</event>
<event>
 5    1  0.2804411E-003  0.6484132E+02  0.7818608E-02  0.1383028E+00
         11   -1    0    0    0    0  0.00000000000E+00  0.00000000000E+00  0.10001651458E+04  0.10001651458E+04  0.51100000000E-03 0. -1.
          2   -1    0    0  501    0 -0.00000000000E+00 -0.00000000000E+00 -0.83876747411E+01  0.83876751287E+01  0.25500000000E-02 0. -1.
         11    1    1    2    0    0  0.50037738326E+02 -0.37054586567E+01  0.96797548984E+02  0.10902876304E+03  0.51100000000E-03 0. -1.
         22    1    1    2    0    0  0.13236742350E+02 -0.34218173615E+01  0.41966096379E+02  0.44136984802E+02  0.00000000000E+00 0. -1.
          2    1    1    2  501    0 -0.63274480676E+02  0.71272760182E+01  0.85301382570E+03  0.85538707309E+03  0.25500000000E-02 0. -1.
<mgrwt>
<rscale>  0 0.63674626E+02</rscale>
<asrwt>0</asrwt>
<pdfrwt beam="1">  1       11 0.10000000E+01 0.64841322E+02</pdfrwt>
<pdfrwt beam="2">  1        2 0.12906246E-02 0.63674626E+02</pdfrwt>
<totfact> 0.10198592E+04</totfact>
</mgrwt>
</event>
<event>
 5    1  0.2804411E-003  0.1103497E+03  0.7818608E-02  0.1259924E+00
         11   -1    0    0    0    0  0.00000000000E+00  0.00000000000E+00  0.10003945716E+04  0.10003945716E+04  0.51100000000E-03 0. -1.
          2   -1    0    0  501    0 -0.00000000000E+00 -0.00000000000E+00 -0.18391385361E+02  0.18391385538E+02  0.25500000000E-02 0. -1.
         11    1    1    2    0    0 -0.17468662476E+02 -0.10240269538E+01  0.51417815954E+02  0.54313852723E+02  0.51100000000E-03 0. -1.
         22    1    1    2    0    0  0.69208354086E+02 -0.94196337559E+02  0.69998481788E+03  0.70967703327E+03  0.00000000000E+00 0. -1.
          2    1    1    2  501    0 -0.51739691611E+02  0.95220364513E+02  0.23060055242E+03  0.25479507116E+03  0.25500000000E-02 0. -1.
<mgrwt>
<rscale>  0 0.11034973E+03</rscale>
<asrwt>0</asrwt>
<pdfrwt beam="1">  1       11 0.10000000E+01 0.17498660E+02</pdfrwt>
<pdfrwt beam="2">  1        2 0.28305603E-02 0.11034973E+03</pdfrwt>
<totfact> 0.38163745E+03</totfact>
</mgrwt>
</event>
<event>
 5    1  0.2804411E-003  0.2544426E+03  0.7818608E-02  0.1115298E+00
         11   -1    0    0    0    0  0.00000000000E+00  0.00000000000E+00  0.10000468462E+04  0.10000468462E+04  0.51100000000E-03 0.  1.
         -2   -1    0    0    0  501 -0.00000000000E+00 -0.00000000000E+00 -0.12578658646E+03  0.12578658649E+03  0.25500000000E-02 0. -1.
         11    1    1    2    0    0 -0.29584864937E+02  0.21629236111E+03  0.77422791216E+03  0.80441687556E+03  0.51100000000E-03 0.  1.
         22    1    1    2    0    0  0.11647878429E+02  0.29926687816E+02  0.64431910463E+02  0.71991324487E+02  0.00000000000E+00 0.  1.
         -2    1    1    2    0  501  0.17936986508E+02 -0.24621904893E+03  0.35600437095E+02  0.24942523262E+03  0.25500000000E-02 0. -1.
<mgrwt>
<rscale>  0 0.24687154E+03</rscale>
<asrwt>0</asrwt>
<pdfrwt beam="1">  1       11 0.10000000E+01 0.25444260E+03</pdfrwt>
<pdfrwt beam="2">  1       -2 0.19352689E-01 0.24687154E+03</pdfrwt>
<totfact> 0.17814596E+02</totfact>
</mgrwt>
</event>
<event>
 5    1  0.2804411E-003  0.5247981E+02  0.7818608E-02  0.1444092E+00
         11   -1    0    0    0    0  0.00000000000E+00  0.00000000000E+00  0.10000489381E+04  0.10000489381E+04  0.51100000000E-03 0.  1.
          2   -1    0    0  501    0 -0.00000000000E+00 -0.00000000000E+00 -0.35032485340E+01  0.35032494621E+01  0.25500000000E-02 0.  1.
         11    1    1    2    0    0 -0.31500145913E+02 -0.25181257689E+02  0.19599691095E+03  0.20010283364E+03  0.51100000000E-03 0.  1.
         22    1    1    2    0    0 -0.23722149186E+01 -0.11912709665E+02  0.61060373899E+02  0.62256801362E+02  0.00000000000E+00 0.  1.
          2    1    1    2  501    0  0.33872360831E+02  0.37093967354E+02  0.73948840472E+03  0.74119255256E+03  0.25500000000E-02 0.  1.
<mgrwt>
<rscale>  0 0.50232452E+02</rscale>
<asrwt>0</asrwt>
<pdfrwt beam="1">  1       11 0.10000000E+01 0.52479809E+02</pdfrwt>
<pdfrwt beam="2">  1        2 0.53898774E-03 0.50232452E+02</pdfrwt>
<totfact> 0.31745393E+04</totfact>
</mgrwt>
</event>
<event>
 5    1  0.2804411E-003  0.3968641E+03  0.7818608E-02  0.1046768E+00
         11   -1    0    0    0    0  0.00000000000E+00  0.00000000000E+00  0.99997943363E+03  0.99997943363E+03  0.51100000000E-03 0. -1.
          2   -1    0    0  501    0 -0.00000000000E+00 -0.00000000000E+00 -0.26344159489E+03  0.26344159491E+03  0.25500000000E-02 0. -1.
         11    1    1    2    0    0  0.20676383546E+03  0.28842460264E+03  0.65166311911E+03  0.74202753040E+03  0.51100000000E-03 0. -1.
         22    1    1    2    0    0  0.17762640668E+02  0.32277625792E+02  0.12267303164E+03  0.12808602274E+03  0.00000000000E+00 0. -1.
          2    1    1    2  501    0 -0.22452647613E+03 -0.32070222844E+03 -0.37798312008E+02  0.39330747540E+03  0.25500000000E-02 0. -1.
<mgrwt>
<rscale>  0 0.39148698E+03</rscale>
<asrwt>0</asrwt>
<pdfrwt beam="1">  1       11 0.10000000E+01 0.39686411E+03</pdfrwt>
<pdfrwt beam="2">  1        2 0.40528641E-01 0.39148698E+03</pdfrwt>
<totfact> 0.15648636E+02</totfact>
</mgrwt>
</event>
<event>
 5    1  0.2804411E-003  0.1393369E+03  0.7818608E-02  0.1221790E+00
         11   -1    0    0    0    0  0.00000000000E+00  0.00000000000E+00  0.10001333766E+04  0.10001333766E+04  0.51100000000E-03 0.  1.
          2   -1    0    0  501    0 -0.00000000000E+00 -0.00000000000E+00 -0.18680695849E+02  0.18680696023E+02  0.25500000000E-02 0.  1.
         11    1    1    2    0    0 -0.85285461355E+02 -0.68848810528E+02  0.38311971868E+03  0.39849026020E+03  0.51100000000E-03 0.  1.
         22    1    1    2    0    0 -0.29719340085E+02  0.28179896536E+00  0.10094454708E+03  0.10522889418E+03  0.00000000000E+00 0.  1.
          2    1    1    2  501    0  0.11500480144E+03  0.68567011563E+02  0.49738841503E+03  0.51509491828E+03  0.25500000000E-02 0.  1.
<mgrwt>
<rscale>  0 0.13389376E+03</rscale>
<asrwt>0</asrwt>
<pdfrwt beam="1">  1       11 0.10000000E+01 0.13933691E+03</pdfrwt>
<pdfrwt beam="2">  1        2 0.28743365E-02 0.13389376E+03</pdfrwt>
<totfact> 0.38163887E+03</totfact>
</mgrwt>
</event>
<event>
 5    1  0.2804411E-003  0.1028517E+03  0.7818608E-02  0.1281892E+00
         11   -1    0    0    0    0  0.00000000000E+00  0.00000000000E+00  0.10000843455E+04  0.10000843455E+04  0.51100000000E-03 0. -1.
          2   -1    0    0  501    0 -0.00000000000E+00 -0.00000000000E+00 -0.10210861517E+02  0.10210861836E+02  0.25500000000E-02 0. -1.
         11    1    1    2    0    0 -0.14730846045E+02 -0.79945927603E+01  0.49455556111E+02  0.52218419826E+02  0.51100000000E-03 0. -1.
         22    1    1    2    0    0 -0.82973909919E+02 -0.94211178726E+01  0.45924747266E+03  0.46677796471E+03  0.00000000000E+00 0. -1.
          2    1    1    2  501    0  0.97704755964E+02  0.17415710633E+02  0.48117045524E+03  0.49129882283E+03  0.25500000000E-02 0. -1.
<mgrwt>
<rscale>  0 0.99244780E+02</rscale>
<asrwt>0</asrwt>
<pdfrwt beam="1">  1       11 0.10000000E+01 0.10285172E+03</pdfrwt>
<pdfrwt beam="2">  1        2 0.15710343E-02 0.99244780E+02</pdfrwt>
<totfact> 0.83462965E+03</totfact>
</mgrwt>
</event>
<event>
 5    1  0.2804411E-003  0.2760514E+03  0.7818608E-02  0.1097865E+00
         11   -1    0    0    0    0  0.00000000000E+00  0.00000000000E+00  0.10000311405E+04  0.10000311405E+04  0.51100000000E-03 0.  1.
          2   -1    0    0  501    0 -0.00000000000E+00 -0.00000000000E+00 -0.95740324373E+02  0.95740324407E+02  0.25500000000E-02 0.  1.
         11    1    1    2    0    0  0.99963095557E+01 -0.66817687618E+01 -0.12663517187E+02  0.17462442736E+02  0.51100000000E-03 0.  1.
         22    1    1    2    0    0 -0.25326780857E+03 -0.11572750777E+03  0.33377313566E+03  0.43467452766E+03  0.00000000000E+00 0.  1.
          2    1    1    2  501    0  0.24327149901E+03  0.12240927654E+03  0.58318119764E+03  0.64363449449E+03  0.25500000000E-02 0.  1.
<mgrwt>
<rscale>  0 0.27605140E+03</rscale>
<asrwt>0</asrwt>
<pdfrwt beam="1">  1       11 0.10000000E+01 0.12023826E+02</pdfrwt>
<pdfrwt beam="2">  1        2 0.14729739E-01 0.27605140E+03</pdfrwt>
<totfact> 0.49128802E+02</totfact>
</mgrwt>
</event>
<event>
 5    1  0.2804411E-003  0.1741978E+03  0.7818608E-02  0.1295505E+00
         11   -1    0    0    0    0  0.00000000000E+00  0.00000000000E+00  0.10000320843E+04  0.10000320843E+04  0.51100000000E-03 0. -1.
         -2   -1    0    0    0  501 -0.00000000000E+00 -0.00000000000E+00 -0.12915011375E+03  0.12915011378E+03  0.25500000000E-02 0.  1.
         11    1    1    2    0    0  0.12817432745E+03 -0.16727836286E+03  0.79858134572E+03  0.82591941171E+03  0.51100000000E-03 0. -1.
         22    1    1    2    0    0 -0.75913222403E+02  0.90225759330E+02  0.14373506396E+03  0.18591200497E+03  0.00000000000E+00 0.  1.
         -2    1    1    2    0  501 -0.52261105050E+02  0.77052603525E+02 -0.71434439084E+02  0.11735078144E+03  0.25500000000E-02 0.  1.
<mgrwt>
<rscale>  0 0.93103850E+02</rscale>
<asrwt>0</asrwt>
<pdfrwt beam="1">  1       11 0.10000000E+01 0.17419782E+03</pdfrwt>
<pdfrwt beam="2">  1       -2 0.19869885E-01 0.93103850E+02</pdfrwt>
<totfact> 0.16490462E+02</totfact>
</mgrwt>
</event>
<event>
 5    1  0.2804411E-003  0.1888604E+03  0.7818608E-02  0.1160956E+00
         11   -1    0    0    0    0  0.00000000000E+00  0.00000000000E+00  0.10000061781E+04  0.10000061781E+04  0.51100000000E-03 0. -1.
         -2   -1    0    0    0  501 -0.00000000000E+00 -0.00000000000E+00 -0.12264889575E+03  0.12264889577E+03  0.25500000000E-02 0.  1.
         11    1    1    2    0    0 -0.13696242846E+03  0.10122420942E+03  0.83732919046E+03  0.85447365119E+03  0.51100000000E-03 0. -1.
         22    1    1    2    0    0 -0.92146206724E+01  0.15816850749E+02  0.75416990677E+02  0.77606729634E+02  0.00000000000E+00 0.  1.
         -2    1    1    2    0  501  0.14617704913E+03 -0.11704106017E+03 -0.35388898805E+02  0.19057469303E+03  0.25500000000E-02 0.  1.
<mgrwt>
<rscale>  0 0.18726009E+03</rscale>
<asrwt>0</asrwt>
<pdfrwt beam="1">  1       11 0.10000000E+01 0.18886039E+03</pdfrwt>
<pdfrwt beam="2">  1       -2 0.18869177E-01 0.18726009E+03</pdfrwt>
<totfact> 0.18443127E+02</totfact>
</mgrwt>
</event>
<event>
 5    1  0.2804411E-003  0.3681806E+03  0.7818608E-02  0.1055391E+00
         11   -1    0    0    0    0  0.00000000000E+00  0.00000000000E+00  0.10003412764E+04  0.10003412764E+04  0.51100000000E-03 0. -1.
          2   -1    0    0  501    0 -0.00000000000E+00 -0.00000000000E+00 -0.53743825437E+03  0.53743825438E+03  0.25500000000E-02 0. -1.
         11    1    1    2    0    0 -0.11631211993E+02 -0.20347409297E+02  0.17967595517E+02  0.29531959746E+02  0.51100000000E-03 0. -1.
         22    1    1    2    0    0  0.10814895246E+03 -0.33616287538E+03  0.87368312571E+03  0.94235018908E+03  0.00000000000E+00 0. -1.
          2    1    1    2  501    0 -0.96517740468E+02  0.35651028468E+03 -0.42874769921E+03  0.56589738194E+03  0.25500000000E-02 0. -1.
<mgrwt>
<rscale>  0 0.36818060E+03</rscale>
<asrwt>0</asrwt>
<pdfrwt beam="1">  1       11 0.10000000E+01 0.23437196E+02</pdfrwt>
<pdfrwt beam="2">  1        2 0.82711024E-01 0.36818060E+03</pdfrwt>
<totfact> 0.71003621E+01</totfact>
</mgrwt>
</event>
<event>
 5    1  0.2804411E-003  0.1820837E+03  0.7818608E-02  0.1177146E+00
         11   -1    0    0    0    0  0.00000000000E+00  0.00000000000E+00  0.99993745316E+03  0.99993745316E+03  0.51100000000E-03 0.  1.
          2   -1    0    0  501    0 -0.00000000000E+00 -0.00000000000E+00 -0.13505379295E+04  0.13505379295E+04  0.25500000000E-02 0.  1.
         11    1    1    2    0    0 -0.29406123945E+02  0.76098464485E+02  0.48372852020E+03  0.49055986146E+03  0.51100000000E-03 0.  1.
         22    1    1    2    0    0  0.32285254241E+02  0.94551560352E+02  0.50244884501E+03  0.51228622572E+03  0.00000000000E+00 0.  1.
          2    1    1    2  501    0 -0.28791302958E+01 -0.17065002484E+03 -0.13367778415E+04  0.13476292955E+04  0.25500000000E-02 0.  1.
<mgrwt>
<rscale>  0 0.17067431E+03</rscale>
<asrwt>0</asrwt>
<pdfrwt beam="1">  1       11 0.10000000E+01 0.18208371E+03</pdfrwt>
<pdfrwt beam="2">  1        2 0.20776206E+00 0.17067431E+03</pdfrwt>
<totfact> 0.21275373E+01</totfact>
</mgrwt>
</event>
<event>
 5    1  0.2804411E-003  0.1012426E+03  0.7818608E-02  0.1283197E+00
         11   -1    0    0    0    0  0.00000000000E+00  0.00000000000E+00  0.10002527256E+04  0.10002527256E+04  0.51100000000E-03 0.  1.
          2   -1    0    0  501    0 -0.00000000000E+00 -0.00000000000E+00 -0.10002973159E+02  0.10002973484E+02  0.25500000000E-02 0.  1.
         11    1    1    2    0    0 -0.47828052114E+02 -0.53804088520E+02  0.39713030077E+03  0.40360237648E+03  0.51100000000E-03 0.  1.
         22    1    1    2    0    0 -0.77891575276E+01 -0.27652501498E+02  0.12584130641E+03  0.12907891467E+03  0.00000000000E+00 0.  1.
          2    1    1    2  501    0  0.55617209642E+02  0.81456590019E+02  0.46727814529E+03  0.47757440796E+03  0.25500000000E-02 0.  1.
<mgrwt>
<rscale>  0 0.98632906E+02</rscale>
<asrwt>0</asrwt>
<pdfrwt beam="1">  1       11 0.10000000E+01 0.10124256E+03</pdfrwt>
<pdfrwt beam="2">  1        2 0.15393079E-02 0.98632906E+02</pdfrwt>
<totfact> 0.85740686E+03</totfact>
</mgrwt>
</event>
<event>
 5    1  0.2804411E-003  0.9837473E+02  0.7818608E-02  0.1283751E+00
         11   -1    0    0    0    0  0.00000000000E+00  0.00000000000E+00  0.10000145497E+04  0.10000145497E+04  0.51100000000E-03 0. -1.
          2   -1    0    0  501    0 -0.00000000000E+00 -0.00000000000E+00 -0.12237778489E+02  0.12237778755E+02  0.25500000000E-02 0. -1.
         11    1    1    2    0    0  0.48851960791E+02  0.78610524324E+02  0.54222149191E+03  0.55006388256E+03  0.51100000000E-03 0. -1.
         22    1    1    2    0    0  0.18539279969E+02 -0.12192288622E+01  0.10024334925E+03  0.10195057866E+03  0.00000000000E+00 0. -1.
          2    1    1    2  501    0 -0.67391240761E+02 -0.77391295462E+02  0.34531193001E+03  0.36023786719E+03  0.25500000000E-02 0. -1.
<mgrwt>
<rscale>  0 0.98374734E+02</rscale>
<asrwt>0</asrwt>
<pdfrwt beam="1">  1       11 0.10000000E+01 0.18579328E+02</pdfrwt>
<pdfrwt beam="2">  1        2 0.18827625E-02 0.98374734E+02</pdfrwt>
<totfact> 0.65201571E+03</totfact>
</mgrwt>
</event>
<event>
 5    1  0.2804411E-003  0.9657910E+02  0.7818608E-02  0.1324850E+00
         11   -1    0    0    0    0  0.00000000000E+00  0.00000000000E+00  0.10003948557E+04  0.10003948557E+04  0.51100000000E-03 0.  1.
          2   -1    0    0  501    0 -0.00000000000E+00 -0.00000000000E+00 -0.21902360447E+02  0.21902360595E+02  0.25500000000E-02 0.  1.
         11    1    1    2    0    0  0.55804514582E+02  0.94745580528E+02  0.66379743327E+03  0.67284314761E+03  0.51100000000E-03 0.  1.
         22    1    1    2    0    0 -0.65324802043E+02 -0.21506940561E+02  0.21259444492E+03  0.22344188565E+03  0.00000000000E+00 0.  1.
          2    1    1    2  501    0  0.95202874618E+01 -0.73238639967E+02  0.10210061702E+03  0.12601218299E+03  0.25500000000E-02 0.  1.
<mgrwt>
<rscale>  0 0.81499336E+02</rscale>
<asrwt>0</asrwt>
<pdfrwt beam="1">  1       11 0.10000000E+01 0.96579101E+02</pdfrwt>
<pdfrwt beam="2">  1        2 0.33709243E-02 0.81499336E+02</pdfrwt>
<totfact> 0.29269203E+03</totfact>
</mgrwt>
</event>
<event>
 5    1  0.2804411E-003  0.3718548E+03  0.7818608E-02  0.1053986E+00
         11   -1    0    0    0    0  0.00000000000E+00  0.00000000000E+00  0.10013277389E+04  0.10013277389E+04  0.51100000000E-03 0. -1.
          2   -1    0    0  501    0 -0.00000000000E+00 -0.00000000000E+00 -0.14835289493E+04  0.14835289493E+04  0.25500000000E-02 0. -1.
         11    1    1    2    0    0 -0.32692269671E+03 -0.98196979412E+02  0.92360798841E+03  0.98466888478E+03  0.51100000000E-03 0. -1.
         22    1    1    2    0    0 -0.40164027961E+02  0.33787854065E+02 -0.74465704836E+01  0.53011504754E+02  0.00000000000E+00 0. -1.
          2    1    1    2  501    0  0.36708672467E+03  0.64409125347E+02 -0.13983626284E+04  0.14471762986E+04  0.25500000000E-02 0. -1.
<mgrwt>
<rscale>  0 0.37185481E+03</rscale>
<asrwt>0</asrwt>
<pdfrwt beam="1">  1       11 0.10000000E+01 0.52485886E+02</pdfrwt>
<pdfrwt beam="2">  1        2 0.22853825E+00 0.37185481E+03</pdfrwt>
<totfact> 0.17023490E+01</totfact>
</mgrwt>
</event>
<event>
 5    1  0.2804411E-003  0.1889569E+03  0.7818608E-02  0.1160680E+00
         11   -1    0    0    0    0  0.00000000000E+00  0.00000000000E+00  0.10001614749E+04  0.10001614749E+04  0.51100000000E-03 0. -1.
          2   -1    0    0  501    0 -0.00000000000E+00 -0.00000000000E+00 -0.36981084649E+02  0.36981084737E+02  0.25500000000E-02 0. -1.
         11    1    1    2    0    0 -0.95190279935E+02  0.14706274160E+03  0.54491338000E+03  0.57238032029E+03  0.51100000000E-03 0. -1.
         22    1    1    2    0    0 -0.14369481770E+01  0.13692397108E+02  0.44396292233E+02  0.46482010742E+02  0.00000000000E+00 0. -1.
          2    1    1    2  501    0  0.96627228112E+02 -0.16075513871E+03  0.37387071798E+03  0.41828022856E+03  0.25500000000E-02 0. -1.
<mgrwt>
<rscale>  0 0.18756075E+03</rscale>
<asrwt>0</asrwt>
<pdfrwt beam="1">  1       11 0.10000000E+01 0.18895686E+03</pdfrwt>
<pdfrwt beam="2">  1        2 0.56903162E-02 0.18756075E+03</pdfrwt>
<totfact> 0.15868155E+03</totfact>
</mgrwt>
</event>
<event>
 5    1  0.2804411E-003  0.9978356E+02  0.7818608E-02  0.1280752E+00
         11   -1    0    0    0    0  0.00000000000E+00  0.00000000000E+00  0.10003326190E+04  0.10003326190E+04  0.51100000000E-03 0.  1.
          2   -1    0    0  501    0 -0.00000000000E+00 -0.00000000000E+00 -0.90244996148E+02  0.90244996184E+02  0.25500000000E-02 0.  1.
         11    1    1    2    0    0  0.36135868451E+02 -0.34099127947E+02  0.25357897124E+03  0.25840055374E+03  0.51100000000E-03 0.  1.
         22    1    1    2    0    0 -0.12443014299E+03 -0.10892806703E+02  0.70908129638E+03  0.71999847125E+03  0.00000000000E+00 0.  1.
          2    1    1    2  501    0  0.88294274542E+02  0.44991934650E+02 -0.52572644813E+02  0.11217859016E+03  0.25500000000E-02 0.  1.
<mgrwt>
<rscale>  0 0.99783556E+02</rscale>
<asrwt>0</asrwt>
<pdfrwt beam="1">  1       11 0.10000000E+01 0.49684520E+02</pdfrwt>
<pdfrwt beam="2">  1        2 0.13888463E-01 0.99783556E+02</pdfrwt>
<totfact> 0.50474668E+02</totfact>
</mgrwt>
</event>
<event>
 5    1  0.2804411E-003  0.8854106E+02  0.7818608E-02  0.1323777E+00
         11   -1    0    0    0    0  0.00000000000E+00  0.00000000000E+00  0.10003344083E+04  0.10003344083E+04  0.51100000000E-03 0. -1.
          2   -1    0    0  501    0 -0.00000000000E+00 -0.00000000000E+00 -0.18904898916E+02  0.18904899088E+02  0.25500000000E-02 0. -1.
         11    1    1    2    0    0 -0.43935035688E+02  0.47321441945E+02  0.52580603914E+02  0.83272601358E+02  0.51100000000E-03 0. -1.
         22    1    1    2    0    0 -0.14905612886E+02  0.96297996666E+01  0.45621660999E+02  0.48951468716E+02  0.00000000000E+00 0. -1.
          2    1    1    2  501    0  0.58840648574E+02 -0.56951241612E+02  0.88322724452E+03  0.88701523736E+03  0.25500000000E-02 0. -1.
<mgrwt>
<rscale>  0 0.81888130E+02</rscale>
<asrwt>0</asrwt>
<pdfrwt beam="1">  1       11 0.10000000E+01 0.88541063E+02</pdfrwt>
<pdfrwt beam="2">  1        2 0.29094185E-02 0.81888130E+02</pdfrwt>
<totfact> 0.35570839E+03</totfact>
</mgrwt>
</event>
<event>
 5    1  0.2804411E-003  0.1290555E+03  0.7818608E-02  0.1228864E+00
         11   -1    0    0    0    0  0.00000000000E+00  0.00000000000E+00  0.10004451297E+04  0.10004451297E+04  0.51100000000E-03 0. -1.
          2   -1    0    0  501    0 -0.00000000000E+00 -0.00000000000E+00 -0.12578742338E+03  0.12578742340E+03  0.25500000000E-02 0.  1.
         11    1    1    2    0    0  0.63237335501E+02  0.10661409375E+01  0.31760140573E+03  0.32383753670E+03  0.51100000000E-03 0. -1.
         22    1    1    2    0    0 -0.57722928240E+02 -0.13004701822E+03  0.63556653383E+03  0.65129792132E+03  0.00000000000E+00 0. -1.
          2    1    1    2  501    0 -0.55144072613E+01  0.12898087728E+03 -0.78510233277E+02  0.15109709503E+03  0.25500000000E-02 0.  1.
<mgrwt>
<rscale>  0 0.12905554E+03</rscale>
<asrwt>0</asrwt>
<pdfrwt beam="1">  1       11 0.10000000E+01 0.63246322E+02</pdfrwt>
<pdfrwt beam="2">  1        2 0.19360525E-01 0.12905554E+03</pdfrwt>
<totfact> 0.34797663E+02</totfact>
</mgrwt>
</event>
<event>
 5    1  0.2804411E-003  0.4364534E+02  0.7818608E-02  0.1491393E+00
         11   -1    0    0    0    0  0.00000000000E+00  0.00000000000E+00  0.10000433011E+04  0.10000433011E+04  0.51100000000E-03 0. -1.
         -2   -1    0    0    0  501 -0.00000000000E+00 -0.00000000000E+00 -0.65215222897E+01  0.65215227882E+01  0.25500000000E-02 0. -1.
         11    1    1    2    0    0  0.27960727228E+02  0.15411888461E+02  0.51472957356E+02  0.60570569688E+02  0.51100000000E-03 0. -1.
         22    1    1    2    0    0  0.11658699959E+02 -0.36605271977E+00  0.21416571183E+02  0.24387062155E+02  0.00000000000E+00 0. -1.
         -2    1    1    2    0  501 -0.39619427187E+02 -0.15045835741E+02  0.92063225023E+03  0.92160719201E+03  0.25500000000E-02 0. -1.
<mgrwt>
<rscale>  0 0.42380139E+02</rscale>
<asrwt>0</asrwt>
<pdfrwt beam="1">  1       11 0.10000000E+01 0.43645342E+02</pdfrwt>
<pdfrwt beam="2">  1       -2 0.10033546E-02 0.42380139E+02</pdfrwt>
<totfact> 0.12637956E+04</totfact>
</mgrwt>
</event>
<event>
 5    1  0.2804411E-003  0.9797588E+02  0.7818608E-02  0.1340685E+00
         11   -1    0    0    0    0  0.00000000000E+00  0.00000000000E+00  0.10002587009E+04  0.10002587009E+04  0.51100000000E-03 0.  1.
          2   -1    0    0  501    0 -0.00000000000E+00 -0.00000000000E+00 -0.40038564078E+03  0.40038564079E+03  0.25500000000E-02 0.  1.
         11    1    1    2    0    0 -0.29449864384E+02  0.77993817286E+02  0.46808989511E+03  0.47545607573E+03  0.51100000000E-03 0.  1.
         22    1    1    2    0    0  0.10080104208E+03 -0.10427797492E+03  0.51472622857E+03  0.53476895620E+03  0.00000000000E+00 0.  1.
          2    1    1    2  501    0 -0.71351177697E+02  0.26284157630E+02 -0.38294306356E+03  0.39041930976E+03  0.25500000000E-02 0.  1.
<mgrwt>
<rscale>  0 0.76038461E+02</rscale>
<asrwt>0</asrwt>
<pdfrwt beam="1">  1       11 0.10000000E+01 0.97975880E+02</pdfrwt>
<pdfrwt beam="2">  1        2 0.61613725E-01 0.76038461E+02</pdfrwt>
<totfact> 0.99909463E+01</totfact>
</mgrwt>
</event>
<event>
 5    1  0.2804411E-003  0.6502086E+02  0.7818608E-02  0.1386944E+00
         11   -1    0    0    0    0  0.00000000000E+00  0.00000000000E+00  0.10001209554E+04  0.10001209554E+04  0.51100000000E-03 0. -1.
          2   -1    0    0  501    0 -0.00000000000E+00 -0.00000000000E+00 -0.11512691227E+02  0.11512691509E+02  0.25500000000E-02 0. -1.
         11    1    1    2    0    0 -0.63685112112E+01 -0.10593616599E+02  0.28454228018E+02  0.31022987284E+02  0.51100000000E-03 0. -1.
         22    1    1    2    0    0 -0.41972890133E+02 -0.29294269429E+02  0.62558355665E+02  0.80829608380E+02  0.00000000000E+00 0. -1.
          2    1    1    2  501    0  0.48341401344E+02  0.39887886028E+02  0.89759568047E+03  0.89978105122E+03  0.25500000000E-02 0. -1.
<mgrwt>
<rscale>  0 0.62673236E+02</rscale>
<asrwt>0</asrwt>
<pdfrwt beam="1">  1       11 0.10000000E+01 0.65020864E+02</pdfrwt>
<pdfrwt beam="2">  1        2 0.17713975E-02 0.62673236E+02</pdfrwt>
<totfact> 0.66505065E+03</totfact>
</mgrwt>
</event>
<event>
 5    1  0.2804411E-003  0.1073240E+03  0.7818608E-02  0.1685805E+00
         11   -1    0    0    0    0  0.00000000000E+00  0.00000000000E+00  0.99995773720E+03  0.99995773720E+03  0.51100000000E-03 0.  1.
          2   -1    0    0  501    0 -0.00000000000E+00 -0.00000000000E+00 -0.14086739412E+03  0.14086739414E+03  0.25500000000E-02 0.  1.
         11    1    1    2    0    0  0.26935370210E+02 -0.11209113875E+03  0.54373007215E+03  0.55581681237E+03  0.51100000000E-03 0.  1.
         22    1    1    2    0    0 -0.39653721226E+02  0.92501812094E+02  0.44349050794E+03  0.45476679021E+03  0.00000000000E+00 0. -1.
          2    1    1    2  501    0  0.12718351017E+02  0.19589326660E+02 -0.12813023701E+03  0.13024152876E+03  0.25500000000E-02 0.  1.
<mgrwt>
<rscale>  0 0.23355902E+02</rscale>
<asrwt>0</asrwt>
<pdfrwt beam="1">  1       11 0.10000000E+01 0.10732397E+03</pdfrwt>
<pdfrwt beam="2">  1        2 0.21670990E-01 0.23355902E+02</pdfrwt>
<totfact> 0.28525854E+02</totfact>
</mgrwt>
</event>
<event>
 5    1  0.2804411E-003  0.1796845E+03  0.7818608E-02  0.1173881E+00
         11   -1    0    0    0    0  0.00000000000E+00  0.00000000000E+00  0.10000161985E+04  0.10000161985E+04  0.51100000000E-03 0. -1.
          2   -1    0    0  501    0 -0.00000000000E+00 -0.00000000000E+00 -0.58716448294E+02  0.58716448349E+02  0.25500000000E-02 0. -1.
         11    1    1    2    0    0 -0.11041359011E+03  0.33662014325E+02  0.64622101638E+03  0.65644946043E+03  0.51100000000E-03 0. -1.
         22    1    1    2    0    0 -0.57889822046E+02  0.99426914200E+01  0.19059984419E+03  0.19944520354E+03  0.00000000000E+00 0. -1.
          2    1    1    2  501    0  0.16830341216E+03 -0.43604705745E+02  0.10447888962E+03  0.20283798286E+03  0.25500000000E-02 0. -1.
<mgrwt>
<rscale>  0 0.17386031E+03</rscale>
<asrwt>0</asrwt>
<pdfrwt beam="1">  1       11 0.10000000E+01 0.17968451E+03</pdfrwt>
<pdfrwt beam="2">  1        2 0.90334458E-02 0.17386031E+03</pdfrwt>
<totfact> 0.87481730E+02</totfact>
</mgrwt>
</event>
<event>
 5    1  0.2804411E-003  0.2269966E+03  0.7818608E-02  0.1132203E+00
         11   -1    0    0    0    0  0.00000000000E+00  0.00000000000E+00  0.10001557569E+04  0.10001557569E+04  0.51100000000E-03 0. -1.
          2   -1    0    0  501    0 -0.00000000000E+00 -0.00000000000E+00 -0.61803018646E+02  0.61803018699E+02  0.25500000000E-02 0. -1.
         11    1    1    2    0    0  0.10150947615E+02 -0.84711308637E+02  0.27407451187E+03  0.28704683521E+03  0.51100000000E-03 0. -1.
         22    1    1    2    0    0  0.72449690289E+02 -0.12163960778E+03  0.42667811638E+03  0.44955463161E+03  0.00000000000E+00 0. -1.
          2    1    1    2  501    0 -0.82600637904E+02  0.20635091641E+03  0.23760010995E+03  0.32535730873E+03  0.25500000000E-02 0. -1.
<mgrwt>
<rscale>  0 0.22226913E+03</rscale>
<asrwt>0</asrwt>
<pdfrwt beam="1">  1       11 0.10000000E+01 0.22699664E+03</pdfrwt>
<pdfrwt beam="2">  1        2 0.95096374E-02 0.22226913E+03</pdfrwt>
<totfact> 0.83136604E+02</totfact>
</mgrwt>
</event>
<event>
 5    1  0.2804411E-003  0.1194822E+03  0.7818608E-02  0.1264990E+00
         11   -1    0    0    0    0  0.00000000000E+00  0.00000000000E+00  0.10004188398E+04  0.10004188398E+04  0.51100000000E-03 0. -1.
          2   -1    0    0  501    0 -0.00000000000E+00 -0.00000000000E+00 -0.28248134540E+02  0.28248134656E+02  0.25500000000E-02 0. -1.
         11    1    1    2    0    0 -0.29803044148E+02 -0.10156746088E+02  0.30661660075E+02  0.43949042429E+02  0.51100000000E-03 0. -1.
         22    1    1    2    0    0 -0.18568843877E+02 -0.86010351782E+02  0.87992439838E+02  0.12443975267E+03  0.00000000000E+00 0. -1.
          2    1    1    2  501    0  0.48371888025E+02  0.96167097870E+02  0.85351660532E+03  0.86027817933E+03  0.25500000000E-02 0. -1.
<mgrwt>
<rscale>  0 0.10764734E+03</rscale>
<asrwt>0</asrwt>
<pdfrwt beam="1">  1       11 0.10000000E+01 0.11948218E+03</pdfrwt>
<pdfrwt beam="2">  1        2 0.43476870E-02 0.10764734E+03</pdfrwt>
<totfact> 0.21559217E+03</totfact>
</mgrwt>
</event>
<event>
 5    1  0.2804411E-003  0.1257462E+03  0.7818608E-02  0.1233908E+00
         11   -1    0    0    0    0  0.00000000000E+00  0.00000000000E+00  0.10002707026E+04  0.10002707026E+04  0.51100000000E-03 0.  1.
         -2   -1    0    0    0  501 -0.00000000000E+00 -0.00000000000E+00 -0.18791324370E+03  0.18791324372E+03  0.25500000000E-02 0.  1.
         11    1    1    2    0    0  0.10776605717E+03  0.28650004041E+02  0.26422675173E+03  0.28679282094E+03  0.51100000000E-03 0.  1.
         22    1    1    2    0    0 -0.12822804764E+03  0.95724322627E+02  0.69191666343E+03  0.71017902481E+03  0.00000000000E+00 0.  1.
         -2    1    1    2    0  501  0.20461990471E+02 -0.12437432667E+03 -0.14378595625E+03  0.19121210058E+03  0.25500000000E-02 0.  1.
<mgrwt>
<rscale>  0 0.12574620E+03</rscale>
<asrwt>0</asrwt>
<pdfrwt beam="1">  1       11 0.10000000E+01 0.11150940E+03</pdfrwt>
<pdfrwt beam="2">  1       -2 0.28917555E-01 0.12574620E+03</pdfrwt>
<totfact> 0.87008345E+01</totfact>
</mgrwt>
</event>
<event>
 5    1  0.2804411E-003  0.7700705E+02  0.7818608E-02  0.1359468E+00
         11   -1    0    0    0    0  0.00000000000E+00  0.00000000000E+00  0.10004241966E+04  0.10004241966E+04  0.51100000000E-03 0. -1.
          2   -1    0    0  501    0 -0.00000000000E+00 -0.00000000000E+00 -0.55836076219E+01  0.55836082042E+01  0.25500000000E-02 0. -1.
         11    1    1    2    0    0 -0.15117168187E+02  0.55185667309E+02  0.32454201670E+03  0.32954742793E+03  0.51100000000E-03 0. -1.
         22    1    1    2    0    0  0.12929383256E+02  0.14964428410E+02  0.10766452513E+03  0.10946576196E+03  0.00000000000E+00 0. -1.
          2    1    1    2  501    0  0.21877849311E+01 -0.70150095719E+02  0.56263404717E+03  0.56699461494E+03  0.25500000000E-02 0. -1.
<mgrwt>
<rscale>  0 0.70184203E+02</rscale>
<asrwt>0</asrwt>
<pdfrwt beam="1">  1       11 0.10000000E+01 0.77007052E+02</pdfrwt>
<pdfrwt beam="2">  1        2 0.85938097E-03 0.70184203E+02</pdfrwt>
<totfact> 0.17984088E+04</totfact>
</mgrwt>
</event>
<event>
 5    1  0.2804411E-003  0.1241192E+03  0.7818608E-02  0.1236452E+00
         11   -1    0    0    0    0  0.00000000000E+00  0.00000000000E+00  0.10002262995E+04  0.10002262995E+04  0.51100000000E-03 0. -1.
          2   -1    0    0  501    0 -0.00000000000E+00 -0.00000000000E+00 -0.60848549489E+03  0.60848549489E+03  0.25500000000E-02 0. -1.
         11    1    1    2    0    0  0.25616413893E+02  0.21557636703E+02  0.43879162958E+02  0.55193417208E+02  0.51100000000E-03 0. -1.
         22    1    1    2    0    0 -0.88823874299E+02 -0.12812832782E+03  0.93781906666E+03  0.95068982892E+03  0.00000000000E+00 0. -1.
          2    1    1    2  501    0  0.63207460407E+02  0.10657069112E+03 -0.58995742501E+03  0.60282854825E+03  0.25500000000E-02 0. -1.
<mgrwt>
<rscale>  0 0.12411922E+03</rscale>
<asrwt>0</asrwt>
<pdfrwt beam="1">  1       11 0.10000000E+01 0.33480328E+02</pdfrwt>
<pdfrwt beam="2">  1        2 0.93634335E-01 0.12411922E+03</pdfrwt>
<totfact> 0.63035742E+01</totfact>
</mgrwt>
</event>
<event>
 5    1  0.2804411E-003  0.1696951E+03  0.7818608E-02  0.1248909E+00
         11   -1    0    0    0    0  0.00000000000E+00  0.00000000000E+00  0.10001110500E+04  0.10001110500E+04  0.51100000000E-03 0.  1.
          2   -1    0    0  501    0 -0.00000000000E+00 -0.00000000000E+00 -0.76061319920E+02  0.76061319962E+02  0.25500000000E-02 0.  1.
         11    1    1    2    0    0  0.15558322524E+03 -0.78639518952E+01  0.75352683471E+02  0.17304915089E+03  0.51100000000E-03 0.  1.
         22    1    1    2    0    0  0.43735948525E+01  0.79921444776E+02  0.74669961461E+02  0.10946309338E+03  0.00000000000E+00 0.  1.
          2    1    1    2  501    0 -0.15995682009E+03 -0.72057492881E+02  0.77402708512E+03  0.79366012567E+03  0.25500000000E-02 0.  1.
<mgrwt>
<rscale>  0 0.11654426E+03</rscale>
<asrwt>0</asrwt>
<pdfrwt beam="1">  1       11 0.10000000E+01 0.16969513E+03</pdfrwt>
<pdfrwt beam="2">  1        2 0.11703041E-01 0.11654426E+03</pdfrwt>
<totfact> 0.62327126E+02</totfact>
</mgrwt>
</event>
<event>
 5    1  0.2804411E-003  0.2558082E+03  0.7818608E-02  0.1110776E+00
         11   -1    0    0    0    0  0.00000000000E+00  0.00000000000E+00  0.10000504540E+04  0.10000504540E+04  0.51100000000E-03 0. -1.
          2   -1    0    0  501    0 -0.00000000000E+00 -0.00000000000E+00 -0.70733396052E+02  0.70733396098E+02  0.25500000000E-02 0. -1.
         11    1    1    2    0    0 -0.22530675472E+03  0.95747901930E+02  0.58407064947E+03  0.63330033793E+03  0.51100000000E-03 0. -1.
         22    1    1    2    0    0 -0.10467823904E+02 -0.11505548663E+01  0.34704736545E+02  0.36267311073E+02  0.00000000000E+00 0.  1.
          2    1    1    2  501    0  0.23577457863E+03 -0.94597347064E+02  0.31054167188E+03  0.40121620105E+03  0.25500000000E-02 0. -1.
<mgrwt>
<rscale>  0 0.25404391E+03</rscale>
<asrwt>0</asrwt>
<pdfrwt beam="1">  1       11 0.10000000E+01 0.25580825E+03</pdfrwt>
<pdfrwt beam="2">  1        2 0.10882610E-01 0.25404391E+03</pdfrwt>
<totfact> 0.70756703E+02</totfact>
</mgrwt>
</event>
<event>
 5    1  0.2804411E-003  0.1313414E+03  0.7818608E-02  0.1241222E+00
         11   -1    0    0    0    0  0.00000000000E+00  0.00000000000E+00  0.10000687617E+04  0.10000687617E+04  0.51100000000E-03 0. -1.
         -2   -1    0    0    0  501 -0.00000000000E+00 -0.00000000000E+00 -0.15936201401E+02  0.15936201605E+02  0.25500000000E-02 0.  1.
         11    1    1    2    0    0 -0.92582153814E+02 -0.95420140660E+00  0.44999392312E+03  0.45942017430E+03  0.51100000000E-03 0. -1.
         22    1    1    2    0    0 -0.28097362000E+02  0.11547805066E+02  0.60491241919E+02  0.67690500826E+02  0.00000000000E+00 0.  1.
         -2    1    1    2    0  501  0.12067951581E+03 -0.10593603659E+02  0.47364739526E+03  0.48889428818E+03  0.25500000000E-02 0.  1.
<mgrwt>
<rscale>  0 0.12114359E+03</rscale>
<asrwt>0</asrwt>
<pdfrwt beam="1">  1       11 0.10000000E+01 0.13134139E+03</pdfrwt>
<pdfrwt beam="2">  1       -2 0.24518918E-02 0.12114359E+03</pdfrwt>
<totfact> 0.41823133E+03</totfact>
</mgrwt>
</event>
<event>
 5    1  0.2804411E-003  0.2309312E+03  0.7818608E-02  0.1127807E+00
         11   -1    0    0    0    0  0.00000000000E+00  0.00000000000E+00  0.10001415013E+04  0.10001415013E+04  0.51100000000E-03 0. -1.
          2   -1    0    0  501    0 -0.00000000000E+00 -0.00000000000E+00 -0.87410205014E+02  0.87410205051E+02  0.25500000000E-02 0. -1.
         11    1    1    2    0    0 -0.19309389372E+03 -0.45589815565E+02  0.65840007790E+03  0.68764405448E+03  0.51100000000E-03 0. -1.
         22    1    1    2    0    0 -0.26721501916E+02 -0.16253719589E+02  0.14203873297E+03  0.14544147871E+03  0.00000000000E+00 0.  1.
          2    1    1    2  501    0  0.21981539564E+03  0.61843535154E+02  0.11229248542E+03  0.25446617317E+03  0.25500000000E-02 0. -1.
<mgrwt>
<rscale>  0 0.22834936E+03</rscale>
<asrwt>0</asrwt>
<pdfrwt beam="1">  1       11 0.10000000E+01 0.23093119E+03</pdfrwt>
<pdfrwt beam="2">  1        2 0.13449626E-01 0.22834936E+03</pdfrwt>
<totfact> 0.54400775E+02</totfact>
</mgrwt>
</event>
<event>
 5    1  0.2804411E-003  0.3903561E+02  0.7818608E-02  0.1730613E+00
         11   -1    0    0    0    0  0.00000000000E+00  0.00000000000E+00  0.10002042276E+04  0.10002042276E+04  0.51100000000E-03 0.  1.
          2   -1    0    0  501    0 -0.00000000000E+00 -0.00000000000E+00 -0.67700992739E+01  0.67700997541E+01  0.25500000000E-02 0.  1.
         11    1    1    2    0    0  0.24292795279E+02  0.30921035469E+02  0.65085896052E+02  0.76042252742E+02  0.51100000000E-03 0.  1.
         22    1    1    2    0    0  0.74944088038E+01 -0.81081468409E+01  0.34410151532E+02  0.36138161781E+02  0.00000000000E+00 0. -1.
          2    1    1    2  501    0 -0.31787204083E+02 -0.22812888628E+02  0.89393808070E+03  0.89479391279E+03  0.25500000000E-02 0.  1.
<mgrwt>
<rscale>  0 0.20760538E+02</rscale>
<asrwt>0</asrwt>
<pdfrwt beam="1">  1       11 0.10000000E+01 0.39035606E+02</pdfrwt>
<pdfrwt beam="2">  1        2 0.10417665E-02 0.20760538E+02</pdfrwt>
<totfact> 0.10907629E+04</totfact>
</mgrwt>
</event>
<event>
 5    1  0.2804411E-003  0.2143903E+03  0.7818608E-02  0.1157828E+00
         11   -1    0    0    0    0  0.00000000000E+00  0.00000000000E+00  0.10005815053E+04  0.10005815053E+04  0.51100000000E-03 0. -1.
          2   -1    0    0  501    0 -0.00000000000E+00 -0.00000000000E+00 -0.12902235200E+04  0.12902235200E+04  0.25500000000E-02 0. -1.
         11    1    1    2    0    0 -0.86424265878E+02 -0.11850004439E+03  0.61840929398E+03  0.63556389854E+03  0.51100000000E-03 0. -1.
         22    1    1    2    0    0 -0.66073980554E+02  0.39919624393E+01  0.36349534719E+03  0.36947337401E+03  0.00000000000E+00 0. -1.
          2    1    1    2  501    0  0.15249824643E+03  0.11450808195E+03 -0.12715466559E+04  0.12857677528E+04  0.25500000000E-02 0. -1.
<mgrwt>
<rscale>  0 0.19070348E+03</rscale>
<asrwt>0</asrwt>
<pdfrwt beam="1">  1       11 0.10000000E+01 0.21439029E+03</pdfrwt>
<pdfrwt beam="2">  1        2 0.19861135E+00 0.19070348E+03</pdfrwt>
<totfact> 0.22749391E+01</totfact>
</mgrwt>
</event>
<event>
 5    1  0.2804411E-003  0.7397154E+02  0.7818608E-02  0.1433784E+00
         11   -1    0    0    0    0  0.00000000000E+00  0.00000000000E+00  0.10001584296E+04  0.10001584296E+04  0.51100000000E-03 0.  1.
          2   -1    0    0  501    0 -0.00000000000E+00 -0.00000000000E+00 -0.11585726824E+02  0.11585727105E+02  0.25500000000E-02 0.  1.
         11    1    1    2    0    0  0.57609719238E+02 -0.18363700907E+01  0.24985402856E+03  0.25641623894E+03  0.51100000000E-03 0.  1.
         22    1    1    2    0    0 -0.88362915369E+02  0.44025354222E+02  0.57718133629E+03  0.58556343088E+03  0.00000000000E+00 0.  1.
          2    1    1    2  501    0  0.30753196131E+02 -0.42188984132E+02  0.16153733793E+03  0.16976448688E+03  0.25500000000E-02 0.  1.
<mgrwt>
<rscale>  0 0.52207944E+02</rscale>
<asrwt>0</asrwt>
<pdfrwt beam="1">  1       11 0.10000000E+01 0.73971538E+02</pdfrwt>
<pdfrwt beam="2">  1        2 0.17827019E-02 0.52207944E+02</pdfrwt>
<totfact> 0.64151159E+03</totfact>
</mgrwt>
</event>
<event>
 5    1  0.2804411E-003  0.3000548E+03  0.7818608E-02  0.1085213E+00
         11   -1    0    0    0    0  0.00000000000E+00  0.00000000000E+00  0.10003645636E+04  0.10003645636E+04  0.51100000000E-03 0.  1.
          2   -1    0    0  501    0 -0.00000000000E+00 -0.00000000000E+00 -0.55325201992E+03  0.55325201992E+03  0.25500000000E-02 0. -1.
         11    1    1    2    0    0  0.91885497312E+02  0.29457385049E+03  0.82643594492E+03  0.88216385613E+03  0.51100000000E-03 0.  1.
         22    1    1    2    0    0  0.18490505909E+02 -0.15972783889E+02  0.10176966274E+03  0.10466180243E+03  0.00000000000E+00 0. -1.
          2    1    1    2  501    0 -0.11037600322E+03 -0.27860106660E+03 -0.48109306398E+03  0.56679092496E+03  0.25500000000E-02 0. -1.
<mgrwt>
<rscale>  0 0.30005483E+03</rscale>
<asrwt>0</asrwt>
<pdfrwt beam="1">  1       11 0.10000000E+01 0.24434169E+02</pdfrwt>
<pdfrwt beam="2">  1        2 0.85146723E-01 0.30005483E+03</pdfrwt>
<totfact> 0.68947161E+01</totfact>
</mgrwt>
</event>
<event>
 5    1  0.2804411E-003  0.1921427E+03  0.7818608E-02  0.1175065E+00
         11   -1    0    0    0    0  0.00000000000E+00  0.00000000000E+00  0.10002297564E+04  0.10002297564E+04  0.51100000000E-03 0.  1.
          2   -1    0    0  501    0 -0.00000000000E+00 -0.00000000000E+00 -0.35717223227E+02  0.35717223318E+02  0.25500000000E-02 0.  1.
         11    1    1    2    0    0  0.80511467146E+00  0.77521733619E+02  0.14840958535E+03  0.16743856311E+03  0.51100000000E-03 0.  1.
         22    1    1    2    0    0  0.84809030358E+01  0.94924835353E+02  0.49321414626E+03  0.50233738081E+03  0.00000000000E+00 0.  1.
          2    1    1    2  501    0 -0.92860177073E+01 -0.17244656897E+03  0.32288880152E+03  0.36617103576E+03  0.25500000000E-02 0.  1.
<mgrwt>
<rscale>  0 0.17269641E+03</rscale>
<asrwt>0</asrwt>
<pdfrwt beam="1">  1       11 0.10000000E+01 0.19214266E+03</pdfrwt>
<pdfrwt beam="2">  1        2 0.54962198E-02 0.17269641E+03</pdfrwt>
<totfact> 0.16503560E+03</totfact>
</mgrwt>
</event>
<event>
 5    1  0.2804411E-003  0.4861777E+02  0.7818608E-02  0.1452943E+00
         11   -1    0    0    0    0  0.00000000000E+00  0.00000000000E+00  0.99995943821E+03  0.99995943821E+03  0.51100000000E-03 0.  1.
          2   -1    0    0  501    0 -0.00000000000E+00 -0.00000000000E+00 -0.11626946105E+02  0.11626946384E+02  0.25500000000E-02 0.  1.
         11    1    1    2    0    0 -0.29459691364E+02 -0.11775144816E+02  0.85306012047E+02  0.91014521601E+02  0.51100000000E-03 0.  1.
         22    1    1    2    0    0  0.10766295083E+02  0.48881026293E+02  0.67601754548E+02  0.84114594805E+02  0.00000000000E+00 0.  1.
          2    1    1    2  501    0  0.18693396281E+02 -0.37105881477E+02  0.83542472551E+03  0.83645726819E+03  0.25500000000E-02 0.  1.
<mgrwt>
<rscale>  0 0.48617769E+02</rscale>
<asrwt>0</asrwt>
<pdfrwt beam="1">  1       11 0.10000000E+01 0.31725833E+02</pdfrwt>
<pdfrwt beam="2">  1        2 0.17886884E-02 0.48617769E+02</pdfrwt>
<totfact> 0.63159331E+03</totfact>
</mgrwt>
</event>
<event>
 5    1  0.2804411E-003  0.4119983E+03  0.7818608E-02  0.1049426E+00
         11   -1    0    0    0    0  0.00000000000E+00  0.00000000000E+00  0.10001328311E+04  0.10001328311E+04  0.51100000000E-03 0. -1.
          2   -1    0    0  501    0 -0.00000000000E+00 -0.00000000000E+00 -0.24216052202E+03  0.24216052204E+03  0.25500000000E-02 0. -1.
         11    1    1    2    0    0  0.17119831416E+03 -0.13111212242E+03  0.34393214318E+03  0.40594158512E+03  0.51100000000E-03 0. -1.
         22    1    1    2    0    0  0.19300988446E+03  0.90812007925E+01  0.40884859466E+03  0.45220842215E+03  0.00000000000E+00 0.  1.
          2    1    1    2  501    0 -0.36420819862E+03  0.12203092163E+03  0.51915712662E+01  0.38414334590E+03  0.25500000000E-02 0. -1.
<mgrwt>
<rscale>  0 0.38410826E+03</rscale>
<asrwt>0</asrwt>
<pdfrwt beam="1">  1       11 0.10000000E+01 0.41199830E+03</pdfrwt>
<pdfrwt beam="2">  1        2 0.37260413E-01 0.38410826E+03</pdfrwt>
<totfact> 0.17159805E+02</totfact>
</mgrwt>
</event>
<event>
 5    1  0.2804411E-003  0.5806904E+03  0.7818608E-02  0.9946297E-01
         11   -1    0    0    0    0  0.00000000000E+00  0.00000000000E+00  0.10000683821E+04  0.10000683821E+04  0.51100000000E-03 0. -1.
          2   -1    0    0  501    0 -0.00000000000E+00 -0.00000000000E+00 -0.15613539774E+04  0.15613539774E+04  0.25500000000E-02 0. -1.
         11    1    1    2    0    0 -0.25541380720E+03  0.46895119511E+03  0.40985429911E+03  0.67315078757E+03  0.51100000000E-03 0. -1.
         22    1    1    2    0    0  0.35867559975E+02  0.74630992480E+02  0.39398414667E+03  0.40259132470E+03  0.00000000000E+00 0. -1.
          2    1    1    2  501    0  0.21954624722E+03 -0.54358218759E+03 -0.13651240411E+04  0.14856802472E+04  0.25500000000E-02 0. -1.
<mgrwt>
<rscale>  0 0.58069043E+03</rscale>
<asrwt>0</asrwt>
<pdfrwt beam="1">  1       11 0.10000000E+01 0.82802578E+02</pdfrwt>
<pdfrwt beam="2">  1        2 0.24022472E+00 0.58069043E+03</pdfrwt>
<totfact> 0.14983922E+01</totfact>
</mgrwt>
</event>
<event>
 5    1  0.2804411E-003  0.2096220E+03  0.7818608E-02  0.1141866E+00
         11   -1    0    0    0    0  0.00000000000E+00  0.00000000000E+00  0.10001460487E+04  0.10001460487E+04  0.51100000000E-03 0. -1.
          2   -1    0    0  501    0 -0.00000000000E+00 -0.00000000000E+00 -0.61695702852E+02  0.61695702904E+02  0.25500000000E-02 0. -1.
         11    1    1    2    0    0 -0.15395537966E+03 -0.14468824425E+03  0.67000606109E+03  0.70252762853E+03  0.51100000000E-03 0. -1.
         22    1    1    2    0    0  0.11960069971E+02 -0.88982318043E+01  0.67977626749E+02  0.69592956119E+02  0.00000000000E+00 0.  1.
          2    1    1    2  501    0  0.14199530969E+03  0.15358647606E+03  0.20046665801E+03  0.28972116695E+03  0.25500000000E-02 0. -1.
<mgrwt>
<rscale>  0 0.20962205E+03</rscale>
<asrwt>0</asrwt>
<pdfrwt beam="1">  1       11 0.10000000E+01 0.14907106E+02</pdfrwt>
<pdfrwt beam="2">  1        2 0.94930326E-02 0.20962205E+03</pdfrwt>
<totfact> 0.83065197E+02</totfact>
</mgrwt>
</event>
<event>
 5    1  0.2804411E-003  0.1002575E+03  0.7818608E-02  0.1279755E+00
         11   -1    0    0    0    0  0.00000000000E+00  0.00000000000E+00  0.10002083890E+04  0.10002083890E+04  0.51100000000E-03 0. -1.
          2   -1    0    0  501    0 -0.00000000000E+00 -0.00000000000E+00 -0.66164322658E+02  0.66164322707E+02  0.25500000000E-02 0. -1.
         11    1    1    2    0    0  0.16744741883E+03  0.21612810017E+02  0.63949184077E+03  0.66140423800E+03  0.51100000000E-03 0. -1.
         22    1    1    2    0    0 -0.80940143710E+02  0.19772542736E+02  0.29757911091E+03  0.30902360356E+03  0.00000000000E+00 0.  1.
          2    1    1    2  501    0 -0.86507275123E+02 -0.41385352753E+02 -0.30268853061E+01  0.95944870175E+02  0.25500000000E-02 0. -1.
<mgrwt>
<rscale>  0 0.10025749E+03</rscale>
<asrwt>0</asrwt>
<pdfrwt beam="1">  1       11 0.10000000E+01 0.83320227E+02</pdfrwt>
<pdfrwt beam="2">  1        2 0.10181247E-01 0.10025749E+03</pdfrwt>
<totfact> 0.73106303E+02</totfact>
</mgrwt>
</event>
<event>
 5    1  0.2804411E-003  0.1690536E+03  0.7818608E-02  0.1182499E+00
         11   -1    0    0    0    0  0.00000000000E+00  0.00000000000E+00  0.10001893543E+04  0.10001893543E+04  0.51100000000E-03 0.  1.
          2   -1    0    0  501    0 -0.00000000000E+00 -0.00000000000E+00 -0.34169495327E+02  0.34169495422E+02  0.25500000000E-02 0.  1.
         11    1    1    2    0    0 -0.24209520403E+02 -0.73147223933E+02  0.96176617715E+02  0.12323375772E+03  0.51100000000E-03 0.  1.
         22    1    1    2    0    0 -0.11230935477E+02 -0.88631497390E+02  0.17106938899E+03  0.19299329545E+03  0.00000000000E+00 0. -1.
          2    1    1    2  501    0  0.35440455880E+02  0.16177872132E+03  0.69877385227E+03  0.71813179654E+03  0.25500000000E-02 0.  1.
<mgrwt>
<rscale>  0 0.16561516E+03</rscale>
<asrwt>0</asrwt>
<pdfrwt beam="1">  1       11 0.10000000E+01 0.16905360E+03</pdfrwt>
<pdfrwt beam="2">  1        2 0.52578407E-02 0.16561516E+03</pdfrwt>
<totfact> 0.17433349E+03</totfact>
</mgrwt>
</event>
<event>
 5    1  0.2804411E-003  0.1545037E+03  0.7818608E-02  0.1195046E+00
         11   -1    0    0    0    0  0.00000000000E+00  0.00000000000E+00  0.10004095879E+04  0.10004095879E+04  0.51100000000E-03 0. -1.
         -2   -1    0    0    0  501 -0.00000000000E+00 -0.00000000000E+00 -0.14818974842E+03  0.14818974844E+03  0.25500000000E-02 0.  1.
         11    1    1    2    0    0 -0.11619817940E+03  0.46068530583E+02  0.57694481048E+03  0.59033011167E+03  0.51100000000E-03 0. -1.
         22    1    1    2    0    0  0.12031903668E+02  0.72446954932E+02  0.36799863855E+03  0.37525501457E+03  0.00000000000E+00 0.  1.
         -2    1    1    2    0  501  0.10416627573E+03 -0.11851548552E+03 -0.92723609581E+02  0.18301421007E+03  0.25500000000E-02 0.  1.
<mgrwt>
<rscale>  0 0.15450366E+03</rscale>
<asrwt>0</asrwt>
<pdfrwt beam="1">  1       11 0.10000000E+01 0.73439281E+02</pdfrwt>
<pdfrwt beam="2">  1       -2 0.22807760E-01 0.15450366E+03</pdfrwt>
<totfact> 0.13262085E+02</totfact>
</mgrwt>
</event>
<event>
 5    1  0.2804411E-003  0.1667596E+03  0.7818608E-02  0.1350639E+00
         11   -1    0    0    0    0  0.00000000000E+00  0.00000000000E+00  0.10002616691E+04  0.10002616691E+04  0.51100000000E-03 0.  1.
         -2   -1    0    0    0  501 -0.00000000000E+00 -0.00000000000E+00 -0.85342111905E+02  0.85342111943E+02  0.25500000000E-02 0. -1.
         11    1    1    2    0    0 -0.13120468710E+03 -0.38484203265E+02  0.35106097071E+03  0.37674860182E+03  0.51100000000E-03 0.  1.
         22    1    1    2    0    0  0.19533253087E+03  0.73064070729E+02  0.59434844524E+03  0.62987556740E+03  0.00000000000E+00 0.  1.
         -2    1    1    2    0  501 -0.64127843772E+02 -0.34579867465E+02 -0.30489858799E+02  0.78979611779E+02  0.25500000000E-02 0. -1.
<mgrwt>
<rscale>  0 0.72857035E+02</rscale>
<asrwt>0</asrwt>
<pdfrwt beam="1">  1       11 0.10000000E+01 0.16675962E+03</pdfrwt>
<pdfrwt beam="2">  1       -2 0.13132991E-01 0.72857035E+02</pdfrwt>
<totfact> 0.31968801E+02</totfact>
</mgrwt>
</event>
<event>
 5    1  0.2804411E-003  0.5255840E+03  0.7818608E-02  0.1007309E+00
         11   -1    0    0    0    0  0.00000000000E+00  0.00000000000E+00  0.10004551050E+04  0.10004551050E+04  0.51100000000E-03 0.  1.
          2   -1    0    0  501    0 -0.00000000000E+00 -0.00000000000E+00 -0.15676774190E+04  0.15676774190E+04  0.25500000000E-02 0.  1.
         11    1    1    2    0    0 -0.41549450897E+03  0.11372712365E+03  0.47985371241E+03  0.64484814566E+03  0.51100000000E-03 0.  1.
         22    1    1    2    0    0 -0.10189440760E+03  0.17256075233E+02  0.38308623966E+03  0.39678118586E+03  0.00000000000E+00 0.  1.
          2    1    1    2  501    0  0.51738891657E+03 -0.13098319888E+03 -0.14301622661E+04  0.15265031925E+04  0.25500000000E-02 0.  1.
<mgrwt>
<rscale>  0 0.52558404E+03</rscale>
<asrwt>0</asrwt>
<pdfrwt beam="1">  1       11 0.10000000E+01 0.10334526E+03</pdfrwt>
<pdfrwt beam="2">  1        2 0.24129090E+00 0.52558404E+03</pdfrwt>
<totfact> 0.14962330E+01</totfact>
</mgrwt>
</event>
<event>
 5    1  0.2804411E-003  0.1999178E+03  0.7818608E-02  0.1149808E+00
         11   -1    0    0    0    0  0.00000000000E+00  0.00000000000E+00  0.10002972465E+04  0.10002972465E+04  0.51100000000E-03 0.  1.
         -2   -1    0    0    0  501 -0.00000000000E+00 -0.00000000000E+00 -0.10514981176E+03  0.10514981179E+03  0.25500000000E-02 0. -1.
         11    1    1    2    0    0 -0.38073908728E+02  0.19750890415E+01  0.10973516878E+02  0.39672932529E+02  0.51100000000E-03 0.  1.
         22    1    1    2    0    0 -0.14261771392E+03 -0.97038324369E+02  0.83914937454E+03  0.85669593294E+03  0.00000000000E+00 0.  1.
         -2    1    1    2    0  501  0.18069162265E+03  0.95063235327E+02  0.45024543329E+02  0.20907819283E+03  0.25500000000E-02 0. -1.
<mgrwt>
<rscale>  0 0.19991776E+03</rscale>
<asrwt>0</asrwt>
<pdfrwt beam="1">  1       11 0.10000000E+01 0.38125122E+02</pdfrwt>
<pdfrwt beam="2">  1       -2 0.16181702E-01 0.19991776E+03</pdfrwt>
<totfact> 0.23915173E+02</totfact>
</mgrwt>
</event>
<event>
 5    1  0.2804411E-003  0.2220662E+03  0.7818608E-02  0.1135019E+00
         11   -1    0    0    0    0  0.00000000000E+00  0.00000000000E+00  0.10001106823E+04  0.10001106823E+04  0.51100000000E-03 0.  1.
          2   -1    0    0  501    0 -0.00000000000E+00 -0.00000000000E+00 -0.18253115520E+03  0.18253115522E+03  0.25500000000E-02 0.  1.
         11    1    1    2    0    0  0.14416935581E+03 -0.13816187315E+03  0.86214108903E+03  0.88496370758E+03  0.51100000000E-03 0.  1.
         22    1    1    2    0    0  0.19137506622E+02 -0.69785531836E+01  0.54206356141E+02  0.57907455567E+02  0.00000000000E+00 0.  1.
          2    1    1    2  501    0 -0.16330686243E+03  0.14514042633E+03 -0.98767918025E+02  0.23977067442E+03  0.25500000000E-02 0.  1.
<mgrwt>
<rscale>  0 0.21848312E+03</rscale>
<asrwt>0</asrwt>
<pdfrwt beam="1">  1       11 0.10000000E+01 0.22206618E+03</pdfrwt>
<pdfrwt beam="2">  1        2 0.28084824E-01 0.21848312E+03</pdfrwt>
<totfact> 0.23268229E+02</totfact>
</mgrwt>
</event>
<event>
 5    1  0.2804411E-003  0.2368157E+03  0.7818608E-02  0.1122770E+00
         11   -1    0    0    0    0  0.00000000000E+00  0.00000000000E+00  0.10007262736E+04  0.10007262736E+04  0.51100000000E-03 0. -1.
         -2   -1    0    0    0  501 -0.00000000000E+00 -0.00000000000E+00 -0.10268993345E+03  0.10268993348E+03  0.25500000000E-02 0.  1.
         11    1    1    2    0    0  0.14100056025E+03  0.17210109112E+03  0.76298735893E+03  0.79476389793E+03  0.51100000000E-03 0. -1.
         22    1    1    2    0    0  0.12299952924E+02  0.67814738372E+01  0.59672317995E+02  0.61303040416E+02  0.00000000000E+00 0.  1.
         -2    1    1    2    0  501 -0.15330051317E+03 -0.17888256496E+03  0.75376663232E+02  0.24734926875E+03  0.25500000000E-02 0.  1.
<mgrwt>
<rscale>  0 0.23558442E+03</rscale>
<asrwt>0</asrwt>
<pdfrwt beam="1">  1       11 0.10000000E+01 0.23681566E+03</pdfrwt>
<pdfrwt beam="2">  1       -2 0.15809925E-01 0.23558442E+03</pdfrwt>
<totfact> 0.25007257E+02</totfact>
</mgrwt>
</event>
<event>
 5    1  0.2804411E-003  0.1211609E+03  0.7818608E-02  0.1244619E+00
         11   -1    0    0    0    0  0.00000000000E+00  0.00000000000E+00  0.10001270011E+04  0.10001270011E+04  0.51100000000E-03 0. -1.
          2   -1    0    0  501    0 -0.00000000000E+00 -0.00000000000E+00 -0.14428417164E+02  0.14428417389E+02  0.25500000000E-02 0. -1.
         11    1    1    2    0    0  0.17998892004E+02 -0.91556440178E+02  0.39432592880E+03  0.40521535012E+03  0.51100000000E-03 0. -1.
         22    1    1    2    0    0 -0.65857845499E+01 -0.26977280006E+02  0.10720214242E+03  0.11074044218E+03  0.00000000000E+00 0. -1.
          2    1    1    2  501    0 -0.11413107454E+02  0.11853372018E+03  0.48417051269E+03  0.49859962616E+03  0.25500000000E-02 0. -1.
<mgrwt>
<rscale>  0 0.11908191E+03</rscale>
<asrwt>0</asrwt>
<pdfrwt beam="1">  1       11 0.10000000E+01 0.12116094E+03</pdfrwt>
<pdfrwt beam="2">  1        2 0.22200384E-02 0.11908191E+03</pdfrwt>
<totfact> 0.53398917E+03</totfact>
</mgrwt>
</event>
<event>
 5    1  0.2804411E-003  0.2228129E+03  0.7818608E-02  0.1146637E+00
         11   -1    0    0    0    0  0.00000000000E+00  0.00000000000E+00  0.10001672243E+04  0.10001672243E+04  0.51100000000E-03 0. -1.
          2   -1    0    0  501    0 -0.00000000000E+00 -0.00000000000E+00 -0.10744269363E+03  0.10744269366E+03  0.25500000000E-02 0. -1.
         11    1    1    2    0    0  0.10414845528E+03  0.14017392434E+03  0.67181498388E+03  0.69414047740E+03  0.51100000000E-03 0. -1.
         22    1    1    2    0    0 -0.18093004329E+02  0.44479171318E+02  0.20340679972E+03  0.20899779822E+03  0.00000000000E+00 0.  1.
          2    1    1    2  501    0 -0.86055450948E+02 -0.18465309565E+03  0.17502747105E+02  0.20447164237E+03  0.25500000000E-02 0. -1.
<mgrwt>
<rscale>  0 0.20372115E+03</rscale>
<asrwt>0</asrwt>
<pdfrwt beam="1">  1       11 0.10000000E+01 0.22281287E+03</pdfrwt>
<pdfrwt beam="2">  1        2 0.16532409E-01 0.20372115E+03</pdfrwt>
<totfact> 0.42403046E+02</totfact>
</mgrwt>
</event>
<event>
 5    1  0.2804411E-003  0.5017544E+03  0.7818608E-02  0.1013322E+00
         11   -1    0    0    0    0  0.00000000000E+00  0.00000000000E+00  0.10005773745E+04  0.10005773745E+04  0.51100000000E-03 0. -1.
          2   -1    0    0  501    0 -0.00000000000E+00 -0.00000000000E+00 -0.43402431195E+03  0.43402431195E+03  0.25500000000E-02 0. -1.
         11    1    1    2    0    0 -0.24184379198E+03 -0.42356008232E+03  0.36248830452E+03  0.60769180838E+03  0.51100000000E-03 0. -1.
         22    1    1    2    0    0 -0.15681000798E+03  0.91100668643E+02  0.24657225762E+03  0.30608265004E+03  0.00000000000E+00 0. -1.
          2    1    1    2  501    0  0.39865379997E+03  0.33245941368E+03 -0.42507499550E+02  0.52082722807E+03  0.25500000000E-02 0. -1.
<mgrwt>
<rscale>  0 0.50175441E+03</rscale>
<asrwt>0</asrwt>
<pdfrwt beam="1">  1       11 0.10000000E+01 0.18135245E+03</pdfrwt>
<pdfrwt beam="2">  1        2 0.66811522E-01 0.50175441E+03</pdfrwt>
<totfact> 0.90067123E+01</totfact>
</mgrwt>
</event>
<event>
 5    1  0.2804411E-003  0.9443161E+02  0.7818608E-02  0.1296429E+00
         11   -1    0    0    0    0  0.00000000000E+00  0.00000000000E+00  0.10003433926E+04  0.10003433926E+04  0.51100000000E-03 0.  1.
          2   -1    0    0  501    0 -0.00000000000E+00 -0.00000000000E+00 -0.13697076675E+02  0.13697076913E+02  0.25500000000E-02 0.  1.
         11    1    1    2    0    0 -0.57001341047E+02 -0.42433610621E+02  0.13394593788E+03  0.15162875211E+03  0.51100000000E-03 0.  1.
         22    1    1    2    0    0 -0.12322259804E+02 -0.19117624268E+02  0.57647540512E+02  0.61972256465E+02  0.00000000000E+00 0.  1.
          2    1    1    2  501    0  0.69323600851E+02  0.61551234889E+02  0.79505283752E+03  0.80043946093E+03  0.25500000000E-02 0.  1.
<mgrwt>
<rscale>  0 0.92705535E+02</rscale>
<asrwt>0</asrwt>
<pdfrwt beam="1">  1       11 0.10000000E+01 0.94431615E+02</pdfrwt>
<pdfrwt beam="2">  1        2 0.21079661E-02 0.92705535E+02</pdfrwt>
<totfact> 0.55552439E+03</totfact>
</mgrwt>
</event>
<event>
 5    1  0.2804411E-003  0.2523014E+03  0.7818608E-02  0.1118256E+00
         11   -1    0    0    0    0  0.00000000000E+00  0.00000000000E+00  0.10003434255E+04  0.10003434255E+04  0.51100000000E-03 0.  1.
          2   -1    0    0  501    0 -0.00000000000E+00 -0.00000000000E+00 -0.12624154929E+03  0.12624154932E+03  0.25500000000E-02 0.  1.
         11    1    1    2    0    0  0.58015723480E+02 -0.56773048266E+02  0.22435102090E+03  0.23858412302E+03  0.51100000000E-03 0.  1.
         22    1    1    2    0    0  0.42734640370E+02 -0.16361113216E+03  0.62143387325E+03  0.64403020960E+03  0.00000000000E+00 0.  1.
          2    1    1    2  501    0 -0.10075036385E+03  0.22038418043E+03  0.28316982109E+02  0.24397064225E+03  0.25500000000E-02 0.  1.
<mgrwt>
<rscale>  0 0.24232173E+03</rscale>
<asrwt>0</asrwt>
<pdfrwt beam="1">  1       11 0.10000000E+01 0.25230135E+03</pdfrwt>
<pdfrwt beam="2">  1        2 0.19428446E-01 0.24232173E+03</pdfrwt>
<totfact> 0.35345059E+02</totfact>
</mgrwt>
</event>
<event>
 5    1  0.2804411E-003  0.1678230E+03  0.7818608E-02  0.1180137E+00
         11   -1    0    0    0    0  0.00000000000E+00  0.00000000000E+00  0.10000445833E+04  0.10000445833E+04  0.51100000000E-03 0.  1.
          2   -1    0    0  501    0 -0.00000000000E+00 -0.00000000000E+00 -0.65789020936E+02  0.65789020986E+02  0.25500000000E-02 0.  1.
         11    1    1    2    0    0  0.66022519769E+02  0.87493178910E+02  0.43186662907E+03  0.44555899135E+03  0.51100000000E-03 0.  1.
         22    1    1    2    0    0  0.12621197426E+03 -0.64194018259E+02  0.33728334879E+03  0.36580102761E+03  0.00000000000E+00 0.  1.
          2    1    1    2  501    0 -0.19223449403E+03 -0.23299160652E+02  0.16510558447E+03  0.25447358529E+03  0.25500000000E-02 0.  1.
<mgrwt>
<rscale>  0 0.16782305E+03</rscale>
<asrwt>0</asrwt>
<pdfrwt beam="1">  1       11 0.10000000E+01 0.10960853E+03</pdfrwt>
<pdfrwt beam="2">  1        2 0.10121839E-01 0.16782305E+03</pdfrwt>
<totfact> 0.75820141E+02</totfact>
</mgrwt>
</event>
<event>
 5    1  0.2804411E-003  0.1079094E+03  0.7818608E-02  0.1359291E+00
         11   -1    0    0    0    0  0.00000000000E+00  0.00000000000E+00  0.10002789422E+04  0.10002789422E+04  0.51100000000E-03 0. -1.
         -2   -1    0    0    0  501 -0.00000000000E+00 -0.00000000000E+00 -0.24929508914E+02  0.24929509045E+02  0.25500000000E-02 0. -1.
         11    1    1    2    0    0  0.70220447787E+02 -0.17867810395E+02  0.62986392157E+02  0.96007580601E+02  0.51100000000E-03 0. -1.
         22    1    1    2    0    0  0.40150459065E+02 -0.21860193067E+02  0.12400181193E+03  0.13216042057E+03  0.00000000000E+00 0.  1.
         -2    1    1    2    0  501 -0.11037090685E+03  0.39728003462E+02  0.78836122915E+03  0.79704045002E+03  0.25500000000E-02 0. -1.
<mgrwt>
<rscale>  0 0.70236401E+02</rscale>
<asrwt>0</asrwt>
<pdfrwt beam="1">  1       11 0.10000000E+01 0.10790936E+03</pdfrwt>
<pdfrwt beam="2">  1       -2 0.38363788E-02 0.70236401E+02</pdfrwt>
<totfact> 0.20454280E+03</totfact>
</mgrwt>
</event>
<event>
 5    1  0.2804411E-003  0.2548237E+03  0.7818608E-02  0.1114107E+00
         11   -1    0    0    0    0  0.00000000000E+00  0.00000000000E+00  0.99994131424E+03  0.99994131424E+03  0.51100000000E-03 0.  1.
         -2   -1    0    0    0  501 -0.00000000000E+00 -0.00000000000E+00 -0.90659735273E+02  0.90659735309E+02  0.25500000000E-02 0. -1.
         11    1    1    2    0    0  0.21460537909E+02  0.11653651407E+03  0.43229813142E+03  0.44824433987E+03  0.51100000000E-03 0.  1.
         22    1    1    2    0    0  0.53748311126E+02  0.12055636118E+03  0.32520173489E+03  0.35096849651E+03  0.00000000000E+00 0.  1.
         -2    1    1    2    0  501 -0.75208849035E+02 -0.23709287525E+03  0.15178171266E+03  0.29138821317E+03  0.25500000000E-02 0. -1.
<mgrwt>
<rscale>  0 0.24873561E+03</rscale>
<asrwt>0</asrwt>
<pdfrwt beam="1">  1       11 0.10000000E+01 0.25482368E+03</pdfrwt>
<pdfrwt beam="2">  1       -2 0.13946833E-01 0.24873561E+03</pdfrwt>
<totfact> 0.30830601E+02</totfact>
</mgrwt>
</event>
<event>
 5    1  0.2804411E-003  0.2026892E+03  0.7818608E-02  0.1154662E+00
         11   -1    0    0    0    0  0.00000000000E+00  0.00000000000E+00  0.10001411481E+04  0.10001411481E+04  0.51100000000E-03 0.  1.
          2   -1    0    0  501    0 -0.00000000000E+00 -0.00000000000E+00 -0.51570371283E+02  0.51570371346E+02  0.25500000000E-02 0.  1.
         11    1    1    2    0    0 -0.72706144883E+02 -0.12778428056E+03  0.13055350944E+03  0.19661949214E+03  0.51100000000E-03 0.  1.
         22    1    1    2    0    0 -0.14130953062E+02 -0.46002011215E+02  0.95886323676E+02  0.10728492876E+03  0.00000000000E+00 0.  1.
          2    1    1    2  501    0  0.86837097945E+02  0.17378629177E+03  0.72213094371E+03  0.74780709856E+03  0.25500000000E-02 0.  1.
<mgrwt>
<rscale>  0 0.19427392E+03</rscale>
<asrwt>0</asrwt>
<pdfrwt beam="1">  1       11 0.10000000E+01 0.20268917E+03</pdfrwt>
<pdfrwt beam="2">  1        2 0.79350229E-02 0.19427392E+03</pdfrwt>
<totfact> 0.10365995E+03</totfact>
</mgrwt>
</event>
<event>
 5    1  0.2804411E-003  0.3195435E+03  0.7818608E-02  0.1080304E+00
         11   -1    0    0    0    0  0.00000000000E+00  0.00000000000E+00  0.10003199422E+04  0.10003199422E+04  0.51100000000E-03 0. -1.
          2   -1    0    0  501    0 -0.00000000000E+00 -0.00000000000E+00 -0.16673516741E+03  0.16673516743E+03  0.25500000000E-02 0. -1.
         11    1    1    2    0    0 -0.65985546920E+02 -0.74073589785E+02  0.33718023588E+03  0.35147048322E+03  0.51100000000E-03 0. -1.
         22    1    1    2    0    0 -0.89868610465E+02 -0.19400003059E+03  0.45502015108E+03  0.50274816449E+03  0.00000000000E+00 0. -1.
          2    1    1    2  501    0  0.15585415739E+03  0.26807362037E+03  0.41384387783E+02  0.31283646187E+03  0.25500000000E-02 0. -1.
<mgrwt>
<rscale>  0 0.31008706E+03</rscale>
<asrwt>0</asrwt>
<pdfrwt beam="1">  1       11 0.10000000E+01 0.31954349E+03</pdfrwt>
<pdfrwt beam="2">  1        2 0.25659771E-01 0.31008706E+03</pdfrwt>
<totfact> 0.25895839E+02</totfact>
</mgrwt>
</event>
<event>
 5    1  0.2804411E-003  0.1342508E+03  0.7818608E-02  0.1328964E+00
         11   -1    0    0    0    0  0.00000000000E+00  0.00000000000E+00  0.10002275316E+04  0.10002275316E+04  0.51100000000E-03 0. -1.
          2   -1    0    0  501    0 -0.00000000000E+00 -0.00000000000E+00 -0.48240910640E+02  0.48240910708E+02  0.25500000000E-02 0. -1.
         11    1    1    2    0    0  0.41686670983E+02 -0.98629551907E+02  0.14458508266E+03  0.17991779560E+03  0.51100000000E-03 0. -1.
         22    1    1    2    0    0 -0.27238968884E+02  0.17734546656E+03  0.26346964092E+03  0.31876265092E+03  0.00000000000E+00 0. -1.
          2    1    1    2  501    0 -0.14447702100E+02 -0.78715914651E+02  0.54393189742E+03  0.54978799583E+03  0.25500000000E-02 0. -1.
<mgrwt>
<rscale>  0 0.80030815E+02</rscale>
<asrwt>0</asrwt>
<pdfrwt beam="1">  1       11 0.10000000E+01 0.13425083E+03</pdfrwt>
<pdfrwt beam="2">  1        2 0.74233670E-02 0.80030815E+02</pdfrwt>
<totfact> 0.10612408E+03</totfact>
</mgrwt>
</event>
<event>
 5    1  0.2804411E-003  0.7686612E+02  0.7818608E-02  0.1343667E+00
         11   -1    0    0    0    0  0.00000000000E+00  0.00000000000E+00  0.10001527626E+04  0.10001527626E+04  0.51100000000E-03 0.  1.
          2   -1    0    0  501    0 -0.00000000000E+00 -0.00000000000E+00 -0.67049599791E+01  0.67049604640E+01  0.25500000000E-02 0.  1.
         11    1    1    2    0    0 -0.11211422344E+02  0.44135967930E+02  0.21580902565E+03  0.22056113712E+03  0.51100000000E-03 0.  1.
         22    1    1    2    0    0 -0.14568065638E+02  0.26364503734E+02  0.97995844961E+02  0.10252073558E+03  0.00000000000E+00 0.  1.
          2    1    1    2  501    0  0.25779487982E+02 -0.70500471664E+02  0.67964293197E+03  0.68377585033E+03  0.25500000000E-02 0.  1.
<mgrwt>
<rscale>  0 0.75065961E+02</rscale>
<asrwt>0</asrwt>
<pdfrwt beam="1">  1       11 0.10000000E+01 0.76866115E+02</pdfrwt>
<pdfrwt beam="2">  1        2 0.10316899E-02 0.75065961E+02</pdfrwt>
<totfact> 0.14186787E+04</totfact>
</mgrwt>
</event>
<event>
 5    1  0.2804411E-003  0.1651202E+03  0.7818608E-02  0.1183034E+00
         11   -1    0    0    0    0  0.00000000000E+00  0.00000000000E+00  0.10001672339E+04  0.10001672339E+04  0.51100000000E-03 0. -1.
          2   -1    0    0  501    0 -0.00000000000E+00 -0.00000000000E+00 -0.66440255256E+02  0.66440255305E+02  0.25500000000E-02 0. -1.
         11    1    1    2    0    0 -0.22306036935E+02 -0.15949265457E+03  0.84783163237E+03  0.86299127631E+03  0.51100000000E-03 0. -1.
         22    1    1    2    0    0  0.10042158345E+02 -0.57833110279E+01  0.24097401101E+02  0.26739042064E+02  0.00000000000E+00 0. -1.
          2    1    1    2  501    0  0.12263878590E+02  0.16527596560E+03  0.61797945156E+02  0.17687717081E+03  0.25500000000E-02 0. -1.
<mgrwt>
<rscale>  0 0.16512017E+03</rscale>
<asrwt>0</asrwt>
<pdfrwt beam="1">  1       11 0.10000000E+01 0.11588427E+02</pdfrwt>
<pdfrwt beam="2">  1        2 0.10223287E-01 0.16512017E+03</pdfrwt>
<totfact> 0.74830831E+02</totfact>
</mgrwt>
</event>
<event>
 5    1  0.2804411E-003  0.1742493E+03  0.7818608E-02  0.1176330E+00
         11   -1    0    0    0    0  0.00000000000E+00  0.00000000000E+00  0.10001863413E+04  0.10001863413E+04  0.51100000000E-03 0. -1.
          2   -1    0    0  501    0 -0.00000000000E+00 -0.00000000000E+00 -0.68998565807E+02  0.68998565855E+02  0.25500000000E-02 0. -1.
         11    1    1    2    0    0  0.15436690685E+03 -0.17521238674E+02  0.82407105947E+03  0.83858765003E+03  0.51100000000E-03 0. -1.
         22    1    1    2    0    0  0.16122786261E+02 -0.73094463411E+00  0.45699304017E+02  0.48465502210E+02  0.00000000000E+00 0. -1.
          2    1    1    2  501    0 -0.17048969311E+03  0.18252183308E+02  0.61417412051E+02  0.18213175495E+03  0.25500000000E-02 0. -1.
<mgrwt>
<rscale>  0 0.17146393E+03</rscale>
<asrwt>0</asrwt>
<pdfrwt beam="1">  1       11 0.10000000E+01 0.17424927E+03</pdfrwt>
<pdfrwt beam="2">  1        2 0.10617142E-01 0.17146393E+03</pdfrwt>
<totfact> 0.71573410E+02</totfact>
</mgrwt>
</event>
<event>
 5    1  0.2804411E-003  0.1667609E+03  0.7818608E-02  0.1186653E+00
         11   -1    0    0    0    0  0.00000000000E+00  0.00000000000E+00  0.10000564479E+04  0.10000564479E+04  0.51100000000E-03 0. -1.
          2   -1    0    0  501    0 -0.00000000000E+00 -0.00000000000E+00 -0.75794397843E+02  0.75794397886E+02  0.25500000000E-02 0.  1.
         11    1    1    2    0    0 -0.12051850859E+03  0.73418096252E+02  0.77180335412E+03  0.78459884348E+03  0.51100000000E-03 0. -1.
         22    1    1    2    0    0 -0.25297659564E+02 -0.32436883173E+01  0.12443273270E+03  0.12701967588E+03  0.00000000000E+00 0. -1.
          2    1    1    2  501    0  0.14581616816E+03 -0.70174407935E+02  0.28025963257E+02  0.16423232644E+03  0.25500000000E-02 0.  1.
<mgrwt>
<rscale>  0 0.16182337E+03</rscale>
<asrwt>0</asrwt>
<pdfrwt beam="1">  1       11 0.10000000E+01 0.16676091E+03</pdfrwt>
<pdfrwt beam="2">  1        2 0.11661334E-01 0.16182337E+03</pdfrwt>
<totfact> 0.63654024E+02</totfact>
</mgrwt>
</event>
<event>
 5    1  0.2804411E-003  0.7679823E+02  0.7818608E-02  0.1343880E+00
         11   -1    0    0    0    0  0.00000000000E+00  0.00000000000E+00  0.10000703900E+04  0.10000703900E+04  0.51100000000E-03 0. -1.
         -2   -1    0    0    0  501 -0.00000000000E+00 -0.00000000000E+00 -0.13079981267E+02  0.13079981516E+02  0.25500000000E-02 0. -1.
         11    1    1    2    0    0  0.18307764227E+02 -0.29433454331E+02  0.48014222312E+02  0.59218814657E+02  0.51100000000E-03 0. -1.
         22    1    1    2    0    0  0.34547902702E+02 -0.23772064375E+02  0.69110889642E+02  0.80839245994E+02  0.00000000000E+00 0. -1.
         -2    1    1    2    0  501 -0.52855666929E+02  0.53205518705E+02  0.86986529677E+03  0.87309231086E+03  0.25500000000E-02 0. -1.
<mgrwt>
<rscale>  0 0.74996992E+02</rscale>
<asrwt>0</asrwt>
<pdfrwt beam="1">  1       11 0.10000000E+01 0.76798232E+02</pdfrwt>
<pdfrwt beam="2">  1       -2 0.20124464E-02 0.74996992E+02</pdfrwt>
<totfact> 0.52284974E+03</totfact>
</mgrwt>
</event>
<event>
 5    1  0.2804411E-003  0.2876405E+03  0.7818608E-02  0.1453582E+00
         11   -1    0    0    0    0  0.00000000000E+00  0.00000000000E+00  0.99986298369E+03  0.99986298369E+03  0.51100000000E-03 0.  1.
          2   -1    0    0  501    0 -0.00000000000E+00 -0.00000000000E+00 -0.64134068525E+03  0.64134068525E+03  0.25500000000E-02 0.  1.
         11    1    1    2    0    0  0.20629165114E+03 -0.13849631856E+03 -0.15653095522E+03  0.29366548236E+03  0.51100000000E-03 0.  1.
         22    1    1    2    0    0 -0.25464798008E+03  0.14227738353E+03  0.90692237579E+03  0.95267866740E+03  0.00000000000E+00 0.  1.
          2    1    1    2  501    0  0.48356328937E+02 -0.37810649654E+01 -0.39186912213E+03  0.39485951918E+03  0.25500000000E-02 0.  1.
<mgrwt>
<rscale>  0 0.48503928E+02</rscale>
<asrwt>0</asrwt>
<pdfrwt beam="1">  1       11 0.10000000E+01 0.28764053E+03</pdfrwt>
<pdfrwt beam="2">  1        2 0.98654276E-01 0.48503928E+02</pdfrwt>
<totfact> 0.60810110E+01</totfact>
</mgrwt>
</event>
<event>
 5    1  0.2804411E-003  0.1732025E+03  0.7818608E-02  0.1512248E+00
         11   -1    0    0    0    0  0.00000000000E+00  0.00000000000E+00  0.10001672107E+04  0.10001672107E+04  0.51100000000E-03 0. -1.
          2   -1    0    0  501    0 -0.00000000000E+00 -0.00000000000E+00 -0.13242518965E+03  0.13242518968E+03  0.25500000000E-02 0. -1.
         11    1    1    2    0    0  0.10272877916E+03 -0.13718490258E+03  0.57333757179E+03  0.59840527303E+03  0.51100000000E-03 0. -1.
         22    1    1    2    0    0 -0.72956434780E+02  0.16307769882E+03  0.39097953890E+03  0.42986274213E+03  0.00000000000E+00 0. -1.
          2    1    1    2  501    0 -0.29772344377E+02 -0.25892796243E+02 -0.96575089691E+02  0.10432438518E+03  0.25500000000E-02 0. -1.
<mgrwt>
<rscale>  0 0.39456677E+02</rscale>
<asrwt>0</asrwt>
<pdfrwt beam="1">  1       11 0.10000000E+01 0.17320255E+03</pdfrwt>
<pdfrwt beam="2">  1        2 0.20376512E-01 0.39456677E+02</pdfrwt>
<totfact> 0.31314925E+02</totfact>
</mgrwt>
</event>
<event>
 5    1  0.2804411E-003  0.2085337E+02  0.7818608E-02  0.1728872E+00
         11   -1    0    0    0    0  0.00000000000E+00  0.00000000000E+00  0.10000656614E+04  0.10000656614E+04  0.51100000000E-03 0. -1.
          2   -1    0    0  501    0 -0.00000000000E+00 -0.00000000000E+00 -0.31499455961E+01  0.31499466282E+01  0.25500000000E-02 0. -1.
         11    1    1    2    0    0 -0.13897786446E+02 -0.63298871342E+01  0.27207955733E+02  0.31200781956E+02  0.51100000000E-03 0. -1.
         22    1    1    2    0    0 -0.92964658036E+01 -0.17041002644E+02  0.11160751886E+03  0.11328308927E+03  0.00000000000E+00 0.  1.
          2    1    1    2  501    0  0.23194252249E+02  0.23370889778E+02  0.85810024125E+03  0.85873173685E+03  0.25500000000E-02 0. -1.
<mgrwt>
<rscale>  0 0.20853368E+02</rscale>
<asrwt>0</asrwt>
<pdfrwt beam="1">  1       11 0.10000000E+01 0.15271417E+02</pdfrwt>
<pdfrwt beam="2">  1        2 0.48463890E-03 0.20853368E+02</pdfrwt>
<totfact> 0.29588376E+04</totfact>
</mgrwt>
</event>
<event>
 5    1  0.2804411E-003  0.1374456E+03  0.7818608E-02  0.1216808E+00
         11   -1    0    0    0    0  0.00000000000E+00  0.00000000000E+00  0.10002168057E+04  0.10002168057E+04  0.51100000000E-03 0.  1.
         -2   -1    0    0    0  501 -0.00000000000E+00 -0.00000000000E+00 -0.62316983250E+02  0.62316983302E+02  0.25500000000E-02 0. -1.
         11    1    1    2    0    0  0.18944902343E+02  0.61227577708E+02  0.33141585830E+03  0.33755621270E+03  0.51100000000E-03 0.  1.
         22    1    1    2    0    0 -0.75016323662E+02  0.71798687499E+02  0.56544007485E+03  0.57489562408E+03  0.00000000000E+00 0.  1.
         -2    1    1    2    0  501  0.56071421319E+02 -0.13302626521E+03  0.41043889281E+02  0.15008195220E+03  0.25500000000E-02 0. -1.
<mgrwt>
<rscale>  0 0.13744557E+03</rscale>
<asrwt>0</asrwt>
<pdfrwt beam="1">  1       11 0.10000000E+01 0.64091541E+02</pdfrwt>
<pdfrwt beam="2">  1       -2 0.95893065E-02 0.13744557E+03</pdfrwt>
<totfact> 0.54557522E+02</totfact>
</mgrwt>
</event>
<event>
 5    1  0.2804411E-003  0.1809881E+03  0.7818608E-02  0.1166850E+00
         11   -1    0    0    0    0  0.00000000000E+00  0.00000000000E+00  0.10000874308E+04  0.10000874308E+04  0.51100000000E-03 0. -1.
          2   -1    0    0  501    0 -0.00000000000E+00 -0.00000000000E+00 -0.71324249421E+02  0.71324249466E+02  0.25500000000E-02 0. -1.
         11    1    1    2    0    0 -0.58490688739E+02  0.16919104752E+03  0.82407241625E+03  0.84329242761E+03  0.51100000000E-03 0. -1.
         22    1    1    2    0    0 -0.13080223399E+02 -0.25310215447E+01  0.28361419481E+02  0.31334779866E+02  0.00000000000E+00 0.  1.
          2    1    1    2  501    0  0.71570912138E+02 -0.16666002598E+03  0.76329345664E+02  0.19678447281E+03  0.25500000000E-02 0. -1.
<mgrwt>
<rscale>  0 0.18098810E+03</rscale>
<asrwt>0</asrwt>
<pdfrwt beam="1">  1       11 0.10000000E+01 0.13322849E+02</pdfrwt>
<pdfrwt beam="2">  1        2 0.10973921E-01 0.18098810E+03</pdfrwt>
<totfact> 0.68919109E+02</totfact>
</mgrwt>
</event>
<event>
 5    1  0.2804411E-003  0.3496627E+03  0.7818608E-02  0.1066557E+00
         11   -1    0    0    0    0  0.00000000000E+00  0.00000000000E+00  0.10002338009E+04  0.10002338009E+04  0.51100000000E-03 0. -1.
          2   -1    0    0  501    0 -0.00000000000E+00 -0.00000000000E+00 -0.14119074763E+03  0.14119074765E+03  0.25500000000E-02 0. -1.
         11    1    1    2    0    0 -0.21962657484E+03 -0.57693947680E+01  0.36506058876E+03  0.42607317653E+03  0.51100000000E-03 0. -1.
         22    1    1    2    0    0 -0.11659792004E+03 -0.48413146559E+02  0.29509489090E+03  0.32096713594E+03  0.00000000000E+00 0. -1.
          2    1    1    2  501    0  0.33622449488E+03  0.54182541327E+02  0.19888757364E+03  0.39438423612E+03  0.25500000000E-02 0. -1.
<mgrwt>
<rscale>  0 0.34056227E+03</rscale>
<asrwt>0</asrwt>
<pdfrwt beam="1">  1       11 0.10000000E+01 0.34966265E+03</pdfrwt>
<pdfrwt beam="2">  1        2 0.21726731E-01 0.34056227E+03</pdfrwt>
<totfact> 0.31346239E+02</totfact>
</mgrwt>
</event>
<event>
 5    1  0.2804411E-003  0.4847322E+03  0.7818608E-02  0.1023891E+00
         11   -1    0    0    0    0  0.00000000000E+00  0.00000000000E+00  0.10003031944E+04  0.10003031944E+04  0.51100000000E-03 0. -1.
          2   -1    0    0  501    0 -0.00000000000E+00 -0.00000000000E+00 -0.25511617332E+03  0.25511617333E+03  0.25500000000E-02 0. -1.
         11    1    1    2    0    0  0.35795895525E+03  0.16238223535E+03  0.41896701572E+03  0.57448756667E+03  0.51100000000E-03 0. -1.
         22    1    1    2    0    0  0.46713278824E+02  0.62755303785E+02  0.17844564320E+03  0.19484148981E+03  0.00000000000E+00 0.  1.
          2    1    1    2  501    0 -0.40467223407E+03 -0.22513753913E+03  0.14777436213E+03  0.48609031122E+03  0.25500000000E-02 0. -1.
<mgrwt>
<rscale>  0 0.46308372E+03</rscale>
<asrwt>0</asrwt>
<pdfrwt beam="1">  1       11 0.10000000E+01 0.48473221E+03</pdfrwt>
<pdfrwt beam="2">  1        2 0.39260541E-01 0.46308372E+03</pdfrwt>
<totfact> 0.16215309E+02</totfact>
</mgrwt>
</event>
<event>
 5    1  0.2804411E-003  0.1343095E+03  0.7818608E-02  0.1221198E+00
         11   -1    0    0    0    0  0.00000000000E+00  0.00000000000E+00  0.10001579437E+04  0.10001579437E+04  0.51100000000E-03 0.  1.
          2   -1    0    0  501    0 -0.00000000000E+00 -0.00000000000E+00 -0.21985489567E+02  0.21985489715E+02  0.25500000000E-02 0. -1.
         11    1    1    2    0    0 -0.69942337805E+02  0.11629667623E+03  0.46064875919E+03  0.48022299701E+03  0.51100000000E-03 0.  1.
         22    1    1    2    0    0  0.21601966442E+02  0.87175814922E+01  0.12475721410E+03  0.12691337066E+03  0.00000000000E+00 0. -1.
          2    1    1    2  501    0  0.48340371363E+02 -0.12501425772E+03  0.39276648084E+03  0.41500706574E+03  0.25500000000E-02 0. -1.
<mgrwt>
<rscale>  0 0.13430951E+03</rscale>
<asrwt>0</asrwt>
<pdfrwt beam="1">  1       11 0.10000000E+01 0.23294660E+02</pdfrwt>
<pdfrwt beam="2">  1        2 0.33829172E-02 0.13430951E+03</pdfrwt>
<totfact> 0.30682532E+03</totfact>
</mgrwt>
</event>
<event>
 5    1  0.2804411E-003  0.2016957E+03  0.7818608E-02  0.1151535E+00
         11   -1    0    0    0    0  0.00000000000E+00  0.00000000000E+00  0.10001204945E+04  0.10001204945E+04  0.51100000000E-03 0.  1.
          2   -1    0    0  501    0 -0.00000000000E+00 -0.00000000000E+00 -0.13795336510E+03  0.13795336513E+03  0.25500000000E-02 0.  1.
         11    1    1    2    0    0  0.17880954447E+03 -0.40628303874E+02  0.87759352542E+03  0.89654554158E+03  0.51100000000E-03 0.  1.
         22    1    1    2    0    0  0.13367708806E+02 -0.65584420789E+01  0.34384450728E+02  0.37469978023E+02  0.00000000000E+00 0. -1.
          2    1    1    2  501    0 -0.19217725327E+03  0.47186745953E+02 -0.49810846757E+02  0.20405834002E+03  0.25500000000E-02 0.  1.
<mgrwt>
<rscale>  0 0.19788554E+03</rscale>
<asrwt>0</asrwt>
<pdfrwt beam="1">  1       11 0.10000000E+01 0.20169572E+03</pdfrwt>
<pdfrwt beam="2">  1        2 0.21226151E-01 0.19788554E+03</pdfrwt>
<totfact> 0.31764343E+02</totfact>
</mgrwt>
</event>
<event>
 5    1  0.2804411E-003  0.6546747E+02  0.7818608E-02  0.1401781E+00
         11   -1    0    0    0    0  0.00000000000E+00  0.00000000000E+00  0.10004556362E+04  0.10004556362E+04  0.51100000000E-03 0.  1.
          2   -1    0    0  501    0 -0.00000000000E+00 -0.00000000000E+00 -0.51032472708E+01  0.51032479079E+01  0.25500000000E-02 0.  1.
         11    1    1    2    0    0 -0.14678105204E+01  0.44103875755E+02  0.20596954007E+03  0.21064367486E+03  0.51100000000E-03 0.  1.
         22    1    1    2    0    0 -0.16293628460E+02  0.12231353200E+02  0.64769773892E+02  0.67898541513E+02  0.00000000000E+00 0.  1.
          2    1    1    2  501    0  0.17761438981E+02 -0.56335228955E+02  0.72461307498E+03  0.72701666774E+03  0.25500000000E-02 0.  1.
<mgrwt>
<rscale>  0 0.59068831E+02</rscale>
<asrwt>0</asrwt>
<pdfrwt beam="1">  1       11 0.10000000E+01 0.65467474E+02</pdfrwt>
<pdfrwt beam="2">  1        2 0.78547272E-03 0.59068831E+02</pdfrwt>
<totfact> 0.19695610E+04</totfact>
</mgrwt>
</event>
<event>
 5    1  0.2804411E-003  0.6907579E+02  0.7818608E-02  0.1573087E+00
         11   -1    0    0    0    0  0.00000000000E+00  0.00000000000E+00  0.10004058544E+04  0.10004058544E+04  0.51100000000E-03 0.  1.
          2   -1    0    0  501    0 -0.00000000000E+00 -0.00000000000E+00 -0.10254549478E+02  0.10254549795E+02  0.25500000000E-02 0.  1.
         11    1    1    2    0    0 -0.19699173715E+02 -0.83921941006E+02  0.27423843668E+03  0.28746768476E+03  0.51100000000E-03 0.  1.
         22    1    1    2    0    0 -0.44294043834E+01  0.62314578285E+02  0.32564753273E+03  0.33158564786E+03  0.00000000000E+00 0.  1.
          2    1    1    2  501    0  0.24128578098E+02  0.21607362721E+02  0.39026533550E+03  0.39160707157E+03  0.25500000000E-02 0.  1.
<mgrwt>
<rscale>  0 0.32389295E+02</rscale>
<asrwt>0</asrwt>
<pdfrwt beam="1">  1       11 0.10000000E+01 0.69075793E+02</pdfrwt>
<pdfrwt beam="2">  1        2 0.15782633E-02 0.32389295E+02</pdfrwt>
<totfact> 0.69538901E+03</totfact>
</mgrwt>
</event>
<event>
 5    1  0.2804411E-003  0.6847936E+02  0.7818608E-02  0.1374420E+00
         11   -1    0    0    0    0  0.00000000000E+00  0.00000000000E+00  0.10002174655E+04  0.10002174655E+04  0.51100000000E-03 0. -1.
          2   -1    0    0  501    0 -0.00000000000E+00 -0.00000000000E+00 -0.49887431116E+01  0.49887437634E+01  0.25500000000E-02 0. -1.
         11    1    1    2    0    0 -0.16634390918E+02  0.48120085392E+02  0.30400450534E+03  0.30823851941E+03  0.51100000000E-03 0. -1.
         22    1    1    2    0    0 -0.73451202284E+01  0.13319811503E+02  0.47557009962E+02  0.49930325116E+02  0.00000000000E+00 0. -1.
          2    1    1    2  501    0  0.23979511147E+02 -0.61439896894E+02  0.64366720709E+03  0.64703736475E+03  0.25500000000E-02 0. -1.
<mgrwt>
<rscale>  0 0.65953604E+02</rscale>
<asrwt>0</asrwt>
<pdfrwt beam="1">  1       11 0.10000000E+01 0.68479356E+02</pdfrwt>
<pdfrwt beam="2">  1        2 0.76766587E-03 0.65953604E+02</pdfrwt>
<totfact> 0.20736387E+04</totfact>
</mgrwt>
</event>
<event>
 5    1  0.2804411E-003  0.5157872E+02  0.7818608E-02  0.1457156E+00
         11   -1    0    0    0    0  0.00000000000E+00  0.00000000000E+00  0.10002089120E+04  0.10002089120E+04  0.51100000000E-03 0.  1.
          2   -1    0    0  501    0 -0.00000000000E+00 -0.00000000000E+00 -0.12121698399E+02  0.12121698667E+02  0.25500000000E-02 0.  1.
         11    1    1    2    0    0  0.31469355720E+02 -0.21148413368E+02  0.27391854498E+02  0.46774880337E+02  0.51100000000E-03 0.  1.
         22    1    1    2    0    0  0.32167055978E+01 -0.11848974058E+02  0.18859521907E+02  0.22503931827E+02  0.00000000000E+00 0. -1.
          2    1    1    2  501    0 -0.34686061318E+02  0.32997387426E+02  0.94183583719E+03  0.94305179850E+03  0.25500000000E-02 0.  1.
<mgrwt>
<rscale>  0 0.47874319E+02</rscale>
<asrwt>0</asrwt>
<pdfrwt beam="1">  1       11 0.10000000E+01 0.51578716E+02</pdfrwt>
<pdfrwt beam="2">  1        2 0.18652662E-02 0.47874319E+02</pdfrwt>
<totfact> 0.59606683E+03</totfact>
</mgrwt>
</event>
<event>
 5    1  0.2804411E-003  0.9889504E+02  0.7818608E-02  0.1520394E+00
         11   -1    0    0    0    0  0.00000000000E+00  0.00000000000E+00  0.10002551299E+04  0.10002551299E+04  0.51100000000E-03 0. -1.
         -2   -1    0    0    0  501 -0.00000000000E+00 -0.00000000000E+00 -0.50575683631E+02  0.50575683695E+02  0.25500000000E-02 0. -1.
         11    1    1    2    0    0  0.43355859906E+02 -0.80422123065E+02  0.52531795410E+03  0.53320390224E+03  0.51100000000E-03 0. -1.
         22    1    1    2    0    0 -0.23388942130E+02  0.11321271594E+03  0.45440363247E+03  0.46887826017E+03  0.00000000000E+00 0. -1.
         -2    1    1    2    0  501 -0.19966917776E+02 -0.32790592871E+02 -0.30042140332E+02  0.48748651146E+02  0.25500000000E-02 0. -1.
<mgrwt>
<rscale>  0 0.38391416E+02</rscale>
<asrwt>0</asrwt>
<pdfrwt beam="1">  1       11 0.10000000E+01 0.98895040E+02</pdfrwt>
<pdfrwt beam="2">  1       -2 0.77828593E-02 0.38391416E+02</pdfrwt>
<totfact> 0.67739128E+02</totfact>
</mgrwt>
</event>
<event>
 5    1  0.2804411E-003  0.2261006E+03  0.7818608E-02  0.1305789E+00
         11   -1    0    0    0    0  0.00000000000E+00  0.00000000000E+00  0.10003622214E+04  0.10003622214E+04  0.51100000000E-03 0. -1.
          2   -1    0    0  501    0 -0.00000000000E+00 -0.00000000000E+00 -0.98767456364E+02  0.98767456397E+02  0.25500000000E-02 0. -1.
         11    1    1    2    0    0 -0.11174838942E+02 -0.22281723850E+03  0.73946871579E+03  0.77239004424E+03  0.51100000000E-03 0. -1.
         22    1    1    2    0    0 -0.31450145033E+02 -0.15069596989E+02  0.48367690717E+02  0.59629169718E+02  0.00000000000E+00 0. -1.
          2    1    1    2  501    0  0.42624983975E+02  0.23788683549E+03  0.11375835855E+03  0.26711046386E+03  0.25500000000E-02 0. -1.
<mgrwt>
<rscale>  0 0.88797866E+02</rscale>
<asrwt>0</asrwt>
<pdfrwt beam="1">  1       11 0.10000000E+01 0.22610063E+03</pdfrwt>
<pdfrwt beam="2">  1        2 0.15200497E-01 0.88797866E+02</pdfrwt>
<totfact> 0.45192844E+02</totfact>
</mgrwt>
</event>
<event>
 5    1  0.2804411E-003  0.4406391E+03  0.7818608E-02  0.1032047E+00
         11   -1    0    0    0    0  0.00000000000E+00  0.00000000000E+00  0.10004222901E+04  0.10004222901E+04  0.51100000000E-03 0.  1.
          2   -1    0    0  501    0 -0.00000000000E+00 -0.00000000000E+00 -0.20000465566E+03  0.20000465568E+03  0.25500000000E-02 0.  1.
         11    1    1    2    0    0  0.65693451210E+02 -0.41946834639E+03  0.50308158784E+03  0.65830115234E+03  0.51100000000E-03 0.  1.
         22    1    1    2    0    0  0.13212994130E+02 -0.91149647488E+01  0.19707204529E+02  0.25417311160E+02  0.00000000000E+00 0. -1.
          2    1    1    2  501    0 -0.78906445339E+02  0.42858331114E+03  0.27762884209E+03  0.51670848229E+03  0.25500000000E-02 0.  1.
<mgrwt>
<rscale>  0 0.43578651E+03</rscale>
<asrwt>0</asrwt>
<pdfrwt beam="1">  1       11 0.10000000E+01 0.44063910E+03</pdfrwt>
<pdfrwt beam="2">  1        2 0.30782940E-01 0.43578651E+03</pdfrwt>
<totfact> 0.21223660E+02</totfact>
</mgrwt>
</event>
<event>
 5    1  0.2804411E-003  0.1973427E+03  0.7818608E-02  0.1153281E+00
         11   -1    0    0    0    0  0.00000000000E+00  0.00000000000E+00  0.99990755192E+03  0.99990755192E+03  0.51100000000E-03 0. -1.
          2   -1    0    0  501    0 -0.00000000000E+00 -0.00000000000E+00 -0.70951221673E+02  0.70951221718E+02  0.25500000000E-02 0. -1.
         11    1    1    2    0    0 -0.66335334367E+02 -0.16776048918E+03  0.76279759905E+03  0.78383935563E+03  0.51100000000E-03 0. -1.
         22    1    1    2    0    0  0.86976267942E+00 -0.16833573696E+02  0.63873497658E+02  0.66060195228E+02  0.00000000000E+00 0.  1.
          2    1    1    2  501    0  0.65465571687E+02  0.18459406288E+03  0.10228523355E+03  0.22095922279E+03  0.25500000000E-02 0. -1.
<mgrwt>
<rscale>  0 0.19585890E+03</rscale>
<asrwt>0</asrwt>
<pdfrwt beam="1">  1       11 0.10000000E+01 0.19734271E+03</pdfrwt>
<pdfrwt beam="2">  1        2 0.10914563E-01 0.19585890E+03</pdfrwt>
<totfact> 0.69649323E+02</totfact>
</mgrwt>
</event>
<event>
 5    1  0.2804411E-003  0.2683870E+02  0.7818608E-02  0.1643424E+00
         11   -1    0    0    0    0  0.00000000000E+00  0.00000000000E+00  0.10001353520E+04  0.10001353520E+04  0.51100000000E-03 0.  1.
         -2   -1    0    0    0  501 -0.00000000000E+00 -0.00000000000E+00 -0.18709297058E+01  0.18709314435E+01  0.25500000000E-02 0.  1.
         11    1    1    2    0    0  0.46943622131E+01  0.15236732278E+02  0.53321859412E+02  0.55654431436E+02  0.51100000000E-03 0.  1.
         22    1    1    2    0    0  0.45308507682E+01  0.93585400859E+01  0.52336644823E+02  0.53359490932E+02  0.00000000000E+00 0. -1.
         -2    1    1    2    0  501 -0.92252129813E+01 -0.24595272364E+02  0.89260591801E+03  0.89299236103E+03  0.25500000000E-02 0.  1.
<mgrwt>
<rscale>  0 0.26268460E+02</rscale>
<asrwt>0</asrwt>
<pdfrwt beam="1">  1       11 0.10000000E+01 0.26838699E+02</pdfrwt>
<pdfrwt beam="2">  1       -2 0.28787442E-03 0.26268460E+02</pdfrwt>
<totfact> 0.61536700E+04</totfact>
</mgrwt>
</event>
<event>
 5    1  0.2804411E-003  0.1343256E+03  0.7818608E-02  0.1555353E+00
         11   -1    0    0    0    0  0.00000000000E+00  0.00000000000E+00  0.10000429952E+04  0.10000429952E+04  0.51100000000E-03 0.  1.
          2   -1    0    0  501    0 -0.00000000000E+00 -0.00000000000E+00 -0.37357804123E+02  0.37357804210E+02  0.25500000000E-02 0.  1.
         11    1    1    2    0    0  0.25065492904E+00 -0.12088244018E+03  0.12775473027E+03  0.17588035216E+03  0.51100000000E-03 0.  1.
         22    1    1    2    0    0 -0.31635554951E+02  0.13459846911E+03  0.80259285469E+03  0.81441564734E+03  0.00000000000E+00 0.  1.
          2    1    1    2  501    0  0.31384900022E+02 -0.13716028932E+02  0.32337606139E+02  0.47104799930E+02  0.25500000000E-02 0.  1.
<mgrwt>
<rscale>  0 0.34251152E+02</rscale>
<asrwt>0</asrwt>
<pdfrwt beam="1">  1       11 0.10000000E+01 0.13432564E+03</pdfrwt>
<pdfrwt beam="2">  1        2 0.57476014E-02 0.34251152E+02</pdfrwt>
<totfact> 0.13457635E+03</totfact>
</mgrwt>
</event>
<event>
 5    1  0.2804411E-003  0.2388352E+03  0.7818608E-02  0.1154913E+00
         11   -1    0    0    0    0  0.00000000000E+00  0.00000000000E+00  0.10001216272E+04  0.10001216272E+04  0.51100000000E-03 0.  1.
          2   -1    0    0  501    0 -0.00000000000E+00 -0.00000000000E+00 -0.50290745958E+03  0.50290745958E+03  0.25500000000E-02 0.  1.
         11    1    1    2    0    0  0.11317812079E+03 -0.18566188786E+03  0.23642063702E+03  0.32120762948E+03  0.51100000000E-03 0.  1.
         22    1    1    2    0    0 -0.27064407535E+03  0.72367515560E+02  0.67150532088E+03  0.72760199890E+03  0.00000000000E+00 0.  1.
          2    1    1    2  501    0  0.15746595456E+03  0.11329437230E+03 -0.41071179032E+03  0.45421945836E+03  0.25500000000E-02 0.  1.
<mgrwt>
<rscale>  0 0.19398748E+03</rscale>
<asrwt>0</asrwt>
<pdfrwt beam="1">  1       11 0.10000000E+01 0.23883522E+03</pdfrwt>
<pdfrwt beam="2">  1        2 0.77379787E-01 0.19398748E+03</pdfrwt>
<totfact> 0.77434580E+01</totfact>
</mgrwt>
</event>
<event>
 5    1  0.2804411E-003  0.7308645E+02  0.7818608E-02  0.1368687E+00
         11   -1    0    0    0    0  0.00000000000E+00  0.00000000000E+00  0.99976681800E+03  0.99976681800E+03  0.51100000000E-03 0.  1.
          2   -1    0    0  501    0 -0.00000000000E+00 -0.00000000000E+00 -0.59617975043E+01  0.59617980497E+01  0.25500000000E-02 0.  1.
         11    1    1    2    0    0 -0.14767368500E+02 -0.37340764658E+02  0.17611695341E+03  0.18063662186E+03  0.51100000000E-03 0.  1.
         22    1    1    2    0    0 -0.30089970008E+02 -0.13142947989E+02  0.12948578593E+03  0.13358410135E+03  0.00000000000E+00 0.  1.
          2    1    1    2  501    0  0.44857338508E+02  0.50483712648E+02  0.68820228116E+03  0.69150789284E+03  0.25500000000E-02 0.  1.
<mgrwt>
<rscale>  0 0.67533592E+02</rscale>
<asrwt>0</asrwt>
<pdfrwt beam="1">  1       11 0.10000000E+01 0.73086446E+02</pdfrwt>
<pdfrwt beam="2">  1        2 0.91698576E-03 0.67533592E+02</pdfrwt>
<totfact> 0.16355597E+04</totfact>
</mgrwt>
</event>
<event>
 5    1  0.2804411E-003  0.2935221E+03  0.7818608E-02  0.1088524E+00
         11   -1    0    0    0    0  0.00000000000E+00  0.00000000000E+00  0.10001318073E+04  0.10001318073E+04  0.51100000000E-03 0. -1.
          2   -1    0    0  501    0 -0.00000000000E+00 -0.00000000000E+00 -0.88835237005E+03  0.88835237005E+03  0.25500000000E-02 0. -1.
         11    1    1    2    0    0  0.41830334926E+02  0.72069200805E+02  0.74787543864E+02  0.11196840332E+03  0.51100000000E-03 0. -1.
         22    1    1    2    0    0  0.11785511503E+03 -0.31708313138E+03  0.84875184429E+03  0.91368004987E+03  0.00000000000E+00 0. -1.
          2    1    1    2  501    0 -0.15968544995E+03  0.24501393058E+03 -0.81175995087E+03  0.86283572419E+03  0.25500000000E-02 0. -1.
<mgrwt>
<rscale>  0 0.29352207E+03</rscale>
<asrwt>0</asrwt>
<pdfrwt beam="1">  1       11 0.10000000E+01 0.83329146E+02</pdfrwt>
<pdfrwt beam="2">  1        2 0.13668761E+00 0.29352207E+03</pdfrwt>
<totfact> 0.38516928E+01</totfact>
</mgrwt>
</event>
<event>
 5    1  0.2804411E-003  0.8560825E+02  0.7818608E-02  0.1313850E+00
         11   -1    0    0    0    0  0.00000000000E+00  0.00000000000E+00  0.10004349078E+04  0.10004349078E+04  0.51100000000E-03 0. -1.
          2   -1    0    0  501    0 -0.00000000000E+00 -0.00000000000E+00 -0.10019587622E+02  0.10019587946E+02  0.25500000000E-02 0. -1.
         11    1    1    2    0    0  0.99186797599E+01  0.16917950442E+02  0.41782711944E+02  0.46156172642E+02  0.51100000000E-03 0. -1.
         22    1    1    2    0    0  0.22582114021E+02 -0.90158890601E+02  0.51960701092E+03  0.52785416852E+03  0.00000000000E+00 0. -1.
          2    1    1    2  501    0 -0.32500793781E+02  0.73240940159E+02  0.42902559730E+03  0.43644415457E+03  0.25500000000E-02 0. -1.
<mgrwt>
<rscale>  0 0.85608250E+02</rscale>
<asrwt>0</asrwt>
<pdfrwt beam="1">  1       11 0.10000000E+01 0.19611161E+02</pdfrwt>
<pdfrwt beam="2">  1        2 0.15421454E-02 0.85608250E+02</pdfrwt>
<totfact> 0.83847730E+03</totfact>
</mgrwt>
</event>
<event>
 5    1  0.2804411E-003  0.2676078E+02  0.7818608E-02  0.1747195E+00
         11   -1    0    0    0    0  0.00000000000E+00  0.00000000000E+00  0.10001376811E+04  0.10001376811E+04  0.51100000000E-03 0. -1.
          2   -1    0    0  501    0 -0.00000000000E+00 -0.00000000000E+00 -0.32388366360E+01  0.32388376399E+01  0.25500000000E-02 0. -1.
         11    1    1    2    0    0  0.25282446046E-01  0.20824849663E+02  0.54948361915E+02  0.58762211328E+02  0.51100000000E-03 0. -1.
         22    1    1    2    0    0  0.14540617694E+02  0.27998004610E+01  0.47978429799E+02  0.50211534248E+02  0.00000000000E+00 0. -1.
          2    1    1    2  501    0 -0.14565900140E+02 -0.23624650124E+02  0.89397205271E+03  0.89440277313E+03  0.25500000000E-02 0. -1.
<mgrwt>
<rscale>  0 0.19906428E+02</rscale>
<asrwt>0</asrwt>
<pdfrwt beam="1">  1       11 0.10000000E+01 0.26760784E+02</pdfrwt>
<pdfrwt beam="2">  1        2 0.49835123E-03 0.19906428E+02</pdfrwt>
<totfact> 0.28168640E+04</totfact>
</mgrwt>
</event>
<event>
 5    1  0.2804411E-003  0.2418558E+03  0.7818608E-02  0.1120149E+00
         11   -1    0    0    0    0  0.00000000000E+00  0.00000000000E+00  0.10004360451E+04  0.10004360451E+04  0.51100000000E-03 0. -1.
          2   -1    0    0  501    0 -0.00000000000E+00 -0.00000000000E+00 -0.95169796900E+03  0.95169796900E+03  0.25500000000E-02 0.  1.
         11    1    1    2    0    0  0.50989603425E+02  0.20394746763E+03  0.85551445495E+03  0.88096509116E+03  0.51100000000E-03 0. -1.
         22    1    1    2    0    0 -0.50421429729E+01  0.31069788367E+02  0.11477499643E+03  0.11901283444E+03  0.00000000000E+00 0.  1.
          2    1    1    2  501    0 -0.45947460452E+02 -0.23501725600E+03 -0.92155137524E+03  0.95215608854E+03  0.25500000000E-02 0.  1.
<mgrwt>
<rscale>  0 0.23946666E+03</rscale>
<asrwt>0</asrwt>
<pdfrwt beam="1">  1       11 0.10000000E+01 0.24185581E+03</pdfrwt>
<pdfrwt beam="2">  1        2 0.14647891E+00 0.23946666E+03</pdfrwt>
<totfact> 0.35375370E+01</totfact>
</mgrwt>
</event>
<event>
 5    1  0.2804411E-003  0.1788059E+03  0.7818608E-02  0.1168964E+00
         11   -1    0    0    0    0  0.00000000000E+00  0.00000000000E+00  0.99987195094E+03  0.99987195094E+03  0.51100000000E-03 0.  1.
          2   -1    0    0  501    0 -0.00000000000E+00 -0.00000000000E+00 -0.10357353637E+03  0.10357353640E+03  0.25500000000E-02 0.  1.
         11    1    1    2    0    0 -0.37187684546E+01  0.53823550789E+02  0.20780202001E+03  0.21469160062E+03  0.51100000000E-03 0.  1.
         22    1    1    2    0    0  0.16382883483E+03 -0.12633773955E+03  0.68219513731E+03  0.71287538668E+03  0.00000000000E+00 0.  1.
          2    1    1    2  501    0 -0.16011006637E+03  0.72514188757E+02  0.63012572491E+01  0.17587850004E+03  0.25500000000E-02 0.  1.
<mgrwt>
<rscale>  0 0.17880593E+03</rscale>
<asrwt>0</asrwt>
<pdfrwt beam="1">  1       11 0.10000000E+01 0.53951866E+02</pdfrwt>
<pdfrwt beam="2">  1        2 0.15932349E-01 0.17880593E+03</pdfrwt>
<totfact> 0.44071287E+02</totfact>
</mgrwt>
</event>
<event>
 5    1  0.2804411E-003  0.2031769E+03  0.7818608E-02  0.1149813E+00
         11   -1    0    0    0    0  0.00000000000E+00  0.00000000000E+00  0.10003047708E+04  0.10003047708E+04  0.51100000000E-03 0. -1.
          2   -1    0    0  501    0 -0.00000000000E+00 -0.00000000000E+00 -0.28840204598E+03  0.28840204599E+03  0.25500000000E-02 0. -1.
         11    1    1    2    0    0 -0.17354263907E+03  0.68086156354E+02  0.91933503765E+03  0.93804567250E+03  0.51100000000E-03 0. -1.
         22    1    1    2    0    0 -0.13726804591E+02  0.18798210310E+01  0.34289102015E+02  0.36982447301E+02  0.00000000000E+00 0.  1.
          2    1    1    2  501    0  0.18726944366E+03 -0.69965977385E+02 -0.24172141486E+03  0.31367869696E+03  0.25500000000E-02 0. -1.
<mgrwt>
<rscale>  0 0.19991269E+03</rscale>
<asrwt>0</asrwt>
<pdfrwt beam="1">  1       11 0.10000000E+01 0.20317686E+03</pdfrwt>
<pdfrwt beam="2">  1        2 0.44383067E-01 0.19991269E+03</pdfrwt>
<totfact> 0.14143843E+02</totfact>
</mgrwt>
</event>
<event>
 5    1  0.2804411E-003  0.1399361E+03  0.7818608E-02  0.1214759E+00
         11   -1    0    0    0    0  0.00000000000E+00  0.00000000000E+00  0.10001502415E+04  0.10001502415E+04  0.51100000000E-03 0. -1.
         -2   -1    0    0    0  501 -0.00000000000E+00 -0.00000000000E+00 -0.21069080831E+02  0.21069080985E+02  0.25500000000E-02 0.  1.
         11    1    1    2    0    0 -0.77933816758E+02 -0.99767929410E+02  0.58454381613E+03  0.59809597266E+03  0.51100000000E-03 0. -1.
         22    1    1    2    0    0 -0.40011321275E+01 -0.12444780241E+02  0.48571082498E+02  0.50299420161E+02  0.00000000000E+00 0. -1.
         -2    1    1    2    0  501  0.81934948886E+02  0.11221270965E+03  0.34596626208E+03  0.37282392970E+03  0.25500000000E-02 0.  1.
<mgrwt>
<rscale>  0 0.13894254E+03</rscale>
<asrwt>0</asrwt>
<pdfrwt beam="1">  1       11 0.10000000E+01 0.13993609E+03</pdfrwt>
<pdfrwt beam="2">  1       -2 0.32418840E-02 0.13894254E+03</pdfrwt>
<totfact> 0.28202227E+03</totfact>
</mgrwt>
</event>
<event>
 5    1  0.2804411E-003  0.7976761E+02  0.7818608E-02  0.1350451E+00
         11   -1    0    0    0    0  0.00000000000E+00  0.00000000000E+00  0.10003973080E+04  0.10003973080E+04  0.51100000000E-03 0. -1.
         -2   -1    0    0    0  501 -0.00000000000E+00 -0.00000000000E+00 -0.10809160180E+03  0.10809160183E+03  0.25500000000E-02 0. -1.
         11    1    1    2    0    0 -0.78607955113E+02 -0.47953879850E+01  0.42718708758E+03  0.43438578954E+03  0.51100000000E-03 0. -1.
         22    1    1    2    0    0  0.60980795417E+02  0.75547923525E+02  0.55211760526E+03  0.56058897259E+03  0.00000000000E+00 0. -1.
         -2    1    1    2    0  501  0.17627159696E+02 -0.70752535540E+02 -0.86998986646E+02  0.11351414770E+03  0.25500000000E-02 0. -1.
<mgrwt>
<rscale>  0 0.72915280E+02</rscale>
<asrwt>0</asrwt>
<pdfrwt beam="1">  1       11 0.10000000E+01 0.79767613E+02</pdfrwt>
<pdfrwt beam="2">  1       -2 0.16636084E-01 0.72915280E+02</pdfrwt>
<totfact> 0.21868551E+02</totfact>
</mgrwt>
</event>
<event>
 5    1  0.2804411E-003  0.6189701E+03  0.7818608E-02  0.9910202E-01
         11   -1    0    0    0    0  0.00000000000E+00  0.00000000000E+00  0.10002528805E+04  0.10002528805E+04  0.51100000000E-03 0. -1.
          2   -1    0    0  501    0 -0.00000000000E+00 -0.00000000000E+00 -0.51501020312E+03  0.51501020313E+03  0.25500000000E-02 0. -1.
         11    1    1    2    0    0  0.28903894456E+03 -0.37004924932E+03  0.49799399228E+03  0.68445450889E+03  0.51100000000E-03 0. -1.
         22    1    1    2    0    0  0.70372630555E+01 -0.14915845801E+03  0.14968864469E+03  0.21143429007E+03  0.00000000000E+00 0. -1.
          2    1    1    2  501    0 -0.29607620761E+03  0.51920770734E+03 -0.16243995956E+03  0.61937428469E+03  0.25500000000E-02 0. -1.
<mgrwt>
<rscale>  0 0.59769370E+03</rscale>
<asrwt>0</asrwt>
<pdfrwt beam="1">  1       11 0.10000000E+01 0.61897007E+03</pdfrwt>
<pdfrwt beam="2">  1        2 0.79252373E-01 0.59769370E+03</pdfrwt>
<totfact> 0.73927772E+01</totfact>
</mgrwt>
</event>
<event>
 5    1  0.2804411E-003  0.5440725E+02  0.7818608E-02  0.1448017E+00
         11   -1    0    0    0    0  0.00000000000E+00  0.00000000000E+00  0.99975243653E+03  0.99975243653E+03  0.51100000000E-03 0. -1.
          2   -1    0    0  501    0 -0.00000000000E+00 -0.00000000000E+00 -0.93525434756E+01  0.93525438232E+01  0.25500000000E-02 0. -1.
         11    1    1    2    0    0  0.15894146227E+02  0.18501293260E+02  0.42645794199E+02  0.49128255615E+02  0.51100000000E-03 0. -1.
         22    1    1    2    0    0  0.29200012832E+02  0.19313372707E+01  0.33904609738E+02  0.44787201013E+02  0.00000000000E+00 0.  1.
          2    1    1    2  501    0 -0.45094159060E+02 -0.20432630531E+02  0.91384948912E+03  0.91518952373E+03  0.25500000000E-02 0. -1.
<mgrwt>
<rscale>  0 0.49507329E+02</rscale>
<asrwt>0</asrwt>
<pdfrwt beam="1">  1       11 0.10000000E+01 0.54407248E+02</pdfrwt>
<pdfrwt beam="2">  1        2 0.14384966E-02 0.49507329E+02</pdfrwt>
<totfact> 0.84619356E+03</totfact>
</mgrwt>
</event>
<event>
 5    1  0.2804411E-003  0.3611454E+03  0.7818608E-02  0.1058131E+00
         11   -1    0    0    0    0  0.00000000000E+00  0.00000000000E+00  0.10005495439E+04  0.10005495439E+04  0.51100000000E-03 0. -1.
          2   -1    0    0  501    0 -0.00000000000E+00 -0.00000000000E+00 -0.42177189808E+03  0.42177189809E+03  0.25500000000E-02 0. -1.
         11    1    1    2    0    0  0.31389700483E+03 -0.15793005186E+03  0.81363594494E+03  0.88627122362E+03  0.51100000000E-03 0. -1.
         22    1    1    2    0    0 -0.42834517529E+01 -0.30093642760E+02  0.61126776401E+02  0.68267547830E+02  0.00000000000E+00 0. -1.
          2    1    1    2  501    0 -0.30961355308E+03  0.18802369462E+03 -0.29598507548E+03  0.46778267059E+03  0.25500000000E-02 0. -1.
<mgrwt>
<rscale>  0 0.36114538E+03</rscale>
<asrwt>0</asrwt>
<pdfrwt beam="1">  1       11 0.10000000E+01 0.30396962E+02</pdfrwt>
<pdfrwt beam="2">  1        2 0.64923641E-01 0.36114538E+03</pdfrwt>
<totfact> 0.93344977E+01</totfact>
</mgrwt>
</event>
<event>
 5    1  0.2804411E-003  0.6405409E+02  0.7818608E-02  0.1381565E+00
         11   -1    0    0    0    0  0.00000000000E+00  0.00000000000E+00  0.10001837729E+04  0.10001837729E+04  0.51100000000E-03 0. -1.
          2   -1    0    0  501    0 -0.00000000000E+00 -0.00000000000E+00 -0.98454171159E+01  0.98454174462E+01  0.25500000000E-02 0. -1.
         11    1    1    2    0    0  0.61778362571E+01  0.33848142226E+02  0.93315274211E+02  0.99456537213E+02  0.51100000000E-03 0. -1.
         22    1    1    2    0    0  0.62112730462E+02 -0.15961646016E+02  0.20109780882E+03  0.21107603877E+03  0.00000000000E+00 0. -1.
          2    1    1    2  501    0 -0.68290566719E+02 -0.17886496210E+02  0.69592527278E+03  0.69949661440E+03  0.25500000000E-02 0. -1.
<mgrwt>
<rscale>  0 0.64054086E+02</rscale>
<asrwt>0</asrwt>
<pdfrwt beam="1">  1       11 0.10000000E+01 0.34407319E+02</pdfrwt>
<pdfrwt beam="2">  1        2 0.15149579E-02 0.64054086E+02</pdfrwt>
<totfact> 0.82278907E+03</totfact>
</mgrwt>
</event>
<event>
 5    1  0.2804411E-003  0.1353101E+03  0.7818608E-02  0.1219783E+00
         11   -1    0    0    0    0  0.00000000000E+00  0.00000000000E+00  0.99992349404E+03  0.99992349404E+03  0.51100000000E-03 0. -1.
          2   -1    0    0  501    0 -0.00000000000E+00 -0.00000000000E+00 -0.27279677019E+02  0.27279677138E+02  0.25500000000E-02 0. -1.
         11    1    1    2    0    0  0.85279965520E+02  0.10087532889E+03  0.23722284295E+03  0.27152013133E+03  0.51100000000E-03 0. -1.
         22    1    1    2    0    0  0.27142991525E+02 -0.97476282498E+01  0.13835789992E+03  0.14133176117E+03  0.00000000000E+00 0. -1.
          2    1    1    2  501    0 -0.11242295705E+03 -0.91127700642E+02  0.59706307415E+03  0.61435127868E+03  0.25500000000E-02 0. -1.
<mgrwt>
<rscale>  0 0.13531011E+03</rscale>
<asrwt>0</asrwt>
<pdfrwt beam="1">  1       11 0.10000000E+01 0.28840219E+02</pdfrwt>
<pdfrwt beam="2">  1        2 0.41965522E-02 0.13531011E+03</pdfrwt>
<totfact> 0.23059592E+03</totfact>
</mgrwt>
</event>
<event>
 5    1  0.2804411E-003  0.1737953E+03  0.7818608E-02  0.1176793E+00
         11   -1    0    0    0    0  0.00000000000E+00  0.00000000000E+00  0.10002114046E+04  0.10002114046E+04  0.51100000000E-03 0.  1.
          2   -1    0    0  501    0 -0.00000000000E+00 -0.00000000000E+00 -0.65129118549E+02  0.65129118599E+02  0.25500000000E-02 0.  1.
         11    1    1    2    0    0 -0.11181945234E+03  0.77560538838E+02  0.72197847220E+03  0.73469186835E+03  0.51100000000E-03 0.  1.
         22    1    1    2    0    0 -0.22060486365E+02  0.28846824178E+02  0.14005218588E+03  0.14468385913E+03  0.00000000000E+00 0.  1.
          2    1    1    2  501    0  0.13387993871E+03 -0.10640736302E+03  0.73051627992E+02  0.18596479573E+03  0.25500000000E-02 0.  1.
<mgrwt>
<rscale>  0 0.17101569E+03</rscale>
<asrwt>0</asrwt>
<pdfrwt beam="1">  1       11 0.10000000E+01 0.17379532E+03</pdfrwt>
<pdfrwt beam="2">  1        2 0.10021982E-01 0.17101569E+03</pdfrwt>
<totfact> 0.76829397E+02</totfact>
</mgrwt>
</event>
<event>
 5    1  0.2804411E-003  0.5307472E+02  0.7818608E-02  0.1439182E+00
         11   -1    0    0    0    0  0.00000000000E+00  0.00000000000E+00  0.10003057059E+04  0.10003057059E+04  0.51100000000E-03 0.  1.
          2   -1    0    0  501    0 -0.00000000000E+00 -0.00000000000E+00 -0.66170320465E+01  0.66170325378E+01  0.25500000000E-02 0.  1.
         11    1    1    2    0    0 -0.91369338003E+01  0.94835796459E+01  0.23759551356E+02  0.27165016530E+02  0.51100000000E-03 0.  1.
         22    1    1    2    0    0 -0.38791116517E+02  0.84123932027E+01  0.90260076075E+02  0.98602233307E+02  0.00000000000E+00 0.  1.
          2    1    1    2  501    0  0.47928050318E+02 -0.17895972849E+02  0.87966904647E+03  0.88115548865E+03  0.25500000000E-02 0.  1.
<mgrwt>
<rscale>  0 0.51160178E+02</rscale>
<asrwt>0</asrwt>
<pdfrwt beam="1">  1       11 0.10000000E+01 0.53074718E+02</pdfrwt>
<pdfrwt beam="2">  1        2 0.10183161E-02 0.51160178E+02</pdfrwt>
<totfact> 0.13513475E+04</totfact>
</mgrwt>
</event>
<event>
 5    1  0.2804411E-003  0.2375187E+03  0.7818608E-02  0.1128273E+00
         11   -1    0    0    0    0  0.00000000000E+00  0.00000000000E+00  0.99962991324E+03  0.99962991324E+03  0.51100000000E-03 0. -1.
          2   -1    0    0  501    0 -0.00000000000E+00 -0.00000000000E+00 -0.23170769456E+04  0.23170769456E+04  0.25500000000E-02 0. -1.
         11    1    1    2    0    0  0.10485678662E+03 -0.97772005244E+01  0.41816638730E+03  0.43122345347E+03  0.51100000000E-03 0. -1.
         22    1    1    2    0    0  0.10350036223E+03 -0.82049145524E+02  0.56164639430E+03  0.57696712167E+03  0.00000000000E+00 0.  1.
          2    1    1    2  501    0 -0.20835714884E+03  0.91826346048E+02 -0.22972598140E+04  0.23085162837E+04  0.25500000000E-02 0. -1.
<mgrwt>
<rscale>  0 0.22769449E+03</rscale>
<asrwt>0</asrwt>
<pdfrwt beam="1">  1       11 0.10000000E+01 0.23751873E+03</pdfrwt>
<pdfrwt beam="2">  1        2 0.35634144E+00 0.22769449E+03</pdfrwt>
<totfact> 0.64535475E+00</totfact>
</mgrwt>
</event>
<event>
 5    1  0.2804411E-003  0.3227904E+03  0.7818608E-02  0.1077604E+00
         11   -1    0    0    0    0  0.00000000000E+00  0.00000000000E+00  0.10000816762E+04  0.10000816762E+04  0.51100000000E-03 0.  1.
          2   -1    0    0  501    0 -0.00000000000E+00 -0.00000000000E+00 -0.22971961578E+03  0.22971961579E+03  0.25500000000E-02 0.  1.
         11    1    1    2    0    0 -0.91498126503E+02  0.16694198660E+01  0.20180547575E+03  0.22158552335E+03  0.51100000000E-03 0.  1.
         22    1    1    2    0    0 -0.20924249928E+03  0.94647008888E+02  0.64384567623E+03  0.68357716067E+03  0.00000000000E+00 0.  1.
          2    1    1    2  501    0  0.30074062578E+03 -0.96316428754E+02 -0.75289091593E+02  0.32463860794E+03  0.25500000000E-02 0.  1.
<mgrwt>
<rscale>  0 0.31578755E+03</rscale>
<asrwt>0</asrwt>
<pdfrwt beam="1">  1       11 0.10000000E+01 0.32279036E+03</pdfrwt>
<pdfrwt beam="2">  1        2 0.35344365E-01 0.31578755E+03</pdfrwt>
<totfact> 0.18157341E+02</totfact>
</mgrwt>
</event>
<event>
 5    1  0.2804411E-003  0.3122093E+03  0.7818608E-02  0.1090047E+00
         11   -1    0    0    0    0  0.00000000000E+00  0.00000000000E+00  0.10004237401E+04  0.10004237401E+04  0.51100000000E-03 0.  1.
          2   -1    0    0  501    0 -0.00000000000E+00 -0.00000000000E+00 -0.10898182947E+03  0.10898182950E+03  0.25500000000E-02 0.  1.
         11    1    1    2    0    0  0.14299089579E+03  0.11307735072E+03  0.52432513997E+03  0.55511236333E+03  0.51100000000E-03 0.  1.
         22    1    1    2    0    0  0.50806720199E+02  0.10343815757E+03  0.16116876622E+03  0.19813163923E+03  0.00000000000E+00 0.  1.
          2    1    1    2  501    0 -0.19379761599E+03 -0.21651550829E+03  0.20594800445E+03  0.35616156704E+03  0.25500000000E-02 0.  1.
<mgrwt>
<rscale>  0 0.29057956E+03</rscale>
<asrwt>0</asrwt>
<pdfrwt beam="1">  1       11 0.10000000E+01 0.31220928E+03</pdfrwt>
<pdfrwt beam="2">  1        2 0.16773539E-01 0.29057956E+03</pdfrwt>
<totfact> 0.42175557E+02</totfact>
</mgrwt>
</event>
<event>
 5    1  0.2804411E-003  0.7669434E+02  0.7818608E-02  0.1372630E+00
         11   -1    0    0    0    0  0.00000000000E+00  0.00000000000E+00  0.10002051293E+04  0.10002051293E+04  0.51100000000E-03 0. -1.
         -2   -1    0    0    0  501 -0.00000000000E+00 -0.00000000000E+00 -0.60483895677E+02  0.60483895731E+02  0.25500000000E-02 0.  1.
         11    1    1    2    0    0 -0.23759220377E+01  0.10150387831E+03  0.47337515813E+03  0.48414122180E+03  0.51100000000E-03 0. -1.
         22    1    1    2    0    0 -0.37384223030E+02 -0.43766533759E+02 -0.36946160618E+02  0.68396698702E+02  0.00000000000E+00 0.  1.
         -2    1    1    2    0  501  0.39760145068E+02 -0.57737344549E+02  0.50329223610E+03  0.50815110452E+03  0.25500000000E-02 0.  1.
<mgrwt>
<rscale>  0 0.66441564E+02</rscale>
<asrwt>0</asrwt>
<pdfrwt beam="1">  1       11 0.10000000E+01 0.76694340E+02</pdfrwt>
<pdfrwt beam="2">  1       -2 0.93071232E-02 0.66441564E+02</pdfrwt>
<totfact> 0.54313569E+02</totfact>
</mgrwt>
</event>
<event>
 5    1  0.2804411E-003  0.2744872E+03  0.7818608E-02  0.1102133E+00
         11   -1    0    0    0    0  0.00000000000E+00  0.00000000000E+00  0.10005227160E+04  0.10005227160E+04  0.51100000000E-03 0. -1.
          2   -1    0    0  501    0 -0.00000000000E+00 -0.00000000000E+00 -0.47087023782E+03  0.47087023782E+03  0.25500000000E-02 0. -1.
         11    1    1    2    0    0  0.30320378979E+02 -0.16937121058E+03  0.53688947617E+03  0.56378740850E+03  0.51100000000E-03 0. -1.
         22    1    1    2    0    0  0.51405712214E+02 -0.86403183100E+02  0.40408102636E+03  0.41640068824E+03  0.00000000000E+00 0. -1.
          2    1    1    2  501    0 -0.81726091193E+02  0.25577439368E+03 -0.41131802436E+03  0.49120485708E+03  0.25500000000E-02 0. -1.
<mgrwt>
<rscale>  0 0.26851386E+03</rscale>
<asrwt>0</asrwt>
<pdfrwt beam="1">  1       11 0.10000000E+01 0.27448719E+03</pdfrwt>
<pdfrwt beam="2">  1        2 0.72479439E-01 0.26851386E+03</pdfrwt>
<totfact> 0.82890294E+01</totfact>
</mgrwt>
</event>
<event>
 5    1  0.2804411E-003  0.1340038E+03  0.7818608E-02  0.1221633E+00
         11   -1    0    0    0    0  0.00000000000E+00  0.00000000000E+00  0.10002267352E+04  0.10002267352E+04  0.51100000000E-03 0. -1.
          2   -1    0    0  501    0 -0.00000000000E+00 -0.00000000000E+00 -0.22454478652E+02  0.22454478796E+02  0.25500000000E-02 0. -1.
         11    1    1    2    0    0  0.88499535119E+01  0.12663138246E+03  0.43388802056E+03  0.45207592624E+03  0.51100000000E-03 0. -1.
         22    1    1    2    0    0 -0.23817562742E+02  0.14275279053E+02  0.13608229369E+03  0.13888646637E+03  0.00000000000E+00 0. -1.
          2    1    1    2  501    0  0.14967609230E+02 -0.14090666151E+03  0.40780194233E+03  0.43171882141E+03  0.25500000000E-02 0. -1.
<mgrwt>
<rscale>  0 0.13400376E+03</rscale>
<asrwt>0</asrwt>
<pdfrwt beam="1">  1       11 0.10000000E+01 0.27767965E+02</pdfrwt>
<pdfrwt beam="2">  1        2 0.34553184E-02 0.13400376E+03</pdfrwt>
<totfact> 0.29820608E+03</totfact>
</mgrwt>
</event>
<event>
 5    1  0.2804411E-003  0.7061956E+02  0.7818608E-02  0.1357999E+00
         11   -1    0    0    0    0  0.00000000000E+00  0.00000000000E+00  0.99993530366E+03  0.99993530366E+03  0.51100000000E-03 0. -1.
          2   -1    0    0  501    0 -0.00000000000E+00 -0.00000000000E+00 -0.26949129980E+02  0.26949130101E+02  0.25500000000E-02 0. -1.
         11    1    1    2    0    0  0.65916807871E+01 -0.63991023325E+02  0.68064383187E+02  0.93653945889E+02  0.51100000000E-03 0. -1.
         22    1    1    2    0    0 -0.61194137794E+02 -0.29010814203E+02  0.97937921806E+02  0.11907218974E+03  0.00000000000E+00 0. -1.
          2    1    1    2  501    0  0.54602457007E+02  0.93001837528E+02  0.80698386869E+03  0.81415829813E+03  0.25500000000E-02 0. -1.
<mgrwt>
<rscale>  0 0.70619558E+02</rscale>
<asrwt>0</asrwt>
<pdfrwt beam="1">  1       11 0.10000000E+01 0.64329662E+02</pdfrwt>
<pdfrwt beam="2">  1        2 0.41457517E-02 0.70619558E+02</pdfrwt>
<totfact> 0.21998848E+03</totfact>
</mgrwt>
</event>
<event>
 5    1  0.2804411E-003  0.8276590E+02  0.7818608E-02  0.1321381E+00
         11   -1    0    0    0    0  0.00000000000E+00  0.00000000000E+00  0.99987309900E+03  0.99987309900E+03  0.51100000000E-03 0. -1.
          2   -1    0    0  501    0 -0.00000000000E+00 -0.00000000000E+00 -0.14058155409E+02  0.14058155640E+02  0.25500000000E-02 0. -1.
         11    1    1    2    0    0  0.18058819471E+02 -0.89071392333E+02  0.36999477757E+03  0.38099339801E+03  0.51100000000E-03 0. -1.
         22    1    1    2    0    0 -0.57840506644E+02  0.13649698897E+02  0.29863159017E+03  0.30448754512E+03  0.00000000000E+00 0. -1.
          2    1    1    2  501    0  0.39781687172E+02  0.75421693436E+02  0.31718857585E+03  0.32845031151E+03  0.25500000000E-02 0. -1.
<mgrwt>
<rscale>  0 0.82765902E+02</rscale>
<asrwt>0</asrwt>
<pdfrwt beam="1">  1       11 0.10000000E+01 0.59429273E+02</pdfrwt>
<pdfrwt beam="2">  1        2 0.21625186E-02 0.82765902E+02</pdfrwt>
<totfact> 0.52902355E+03</totfact>
</mgrwt>
</event>
<event>
 5    1  0.2804411E-003  0.1191375E+03  0.7818608E-02  0.1244527E+00
         11   -1    0    0    0    0  0.00000000000E+00  0.00000000000E+00  0.10004355347E+04  0.10004355347E+04  0.51100000000E-03 0. -1.
          2   -1    0    0  501    0 -0.00000000000E+00 -0.00000000000E+00 -0.22771980188E+02  0.22771980331E+02  0.25500000000E-02 0. -1.
         11    1    1    2    0    0  0.15719195623E+02 -0.21194842834E+02  0.15896399662E+03  0.16113927732E+03  0.51100000000E-03 0. -1.
         22    1    1    2    0    0  0.90126590275E+02  0.77683578382E+02  0.60863235251E+03  0.62015391730E+03  0.00000000000E+00 0. -1.
          2    1    1    2  501    0 -0.10584578590E+03 -0.56488735547E+02  0.21006720541E+03  0.24191432044E+03  0.25500000000E-02 0. -1.
<mgrwt>
<rscale>  0 0.11913753E+03</rscale>
<asrwt>0</asrwt>
<pdfrwt beam="1">  1       11 0.10000000E+01 0.26387771E+02</pdfrwt>
<pdfrwt beam="2">  1        2 0.35049073E-02 0.11913753E+03</pdfrwt>
<totfact> 0.28924152E+03</totfact>
</mgrwt>
</event>
<event>
 5    1  0.2804411E-003  0.4738155E+03  0.7818608E-02  0.1022056E+00
         11   -1    0    0    0    0  0.00000000000E+00  0.00000000000E+00  0.10000242356E+04  0.10000242356E+04  0.51100000000E-03 0. -1.
          2   -1    0    0  501    0 -0.00000000000E+00 -0.00000000000E+00 -0.30290375717E+03  0.30290375718E+03  0.25500000000E-02 0. -1.
         11    1    1    2    0    0  0.13923187606E+03  0.40415368063E+03  0.65151338282E+03  0.77922743848E+03  0.51100000000E-03 0. -1.
         22    1    1    2    0    0  0.14123621411E+02  0.39615960827E+02  0.33924359384E+02  0.54034833151E+02  0.00000000000E+00 0.  1.
          2    1    1    2  501    0 -0.15335549747E+03 -0.44376964146E+03  0.11682736214E+02  0.46966572114E+03  0.25500000000E-02 0. -1.
<mgrwt>
<rscale>  0 0.46952040E+03</rscale>
<asrwt>0</asrwt>
<pdfrwt beam="1">  1       11 0.10000000E+01 0.47381549E+03</pdfrwt>
<pdfrwt beam="2">  1        2 0.46601706E-01 0.46952040E+03</pdfrwt>
<totfact> 0.13430343E+02</totfact>
</mgrwt>
</event>
<event>
 5    1  0.2804411E-003  0.2789959E+03  0.7818608E-02  0.1099251E+00
         11   -1    0    0    0    0  0.00000000000E+00  0.00000000000E+00  0.10004432807E+04  0.10004432807E+04  0.51100000000E-03 0. -1.
          2   -1    0    0  501    0 -0.00000000000E+00 -0.00000000000E+00 -0.14960060785E+03  0.14960060787E+03  0.25500000000E-02 0. -1.
         11    1    1    2    0    0  0.16284861522E+03  0.21469872778E+02  0.41116613302E+03  0.44276203073E+03  0.51100000000E-03 0. -1.
         22    1    1    2    0    0  0.10881249174E+03  0.10828844136E+02  0.41888028838E+03  0.43291814263E+03  0.00000000000E+00 0. -1.
          2    1    1    2  501    0 -0.27166110695E+03 -0.32298716915E+02  0.20796251454E+02  0.27436371522E+03  0.25500000000E-02 0. -1.
<mgrwt>
<rscale>  0 0.27357442E+03</rscale>
<asrwt>0</asrwt>
<pdfrwt beam="1">  1       11 0.10000000E+01 0.27899589E+03</pdfrwt>
<pdfrwt beam="2">  1        2 0.23025680E-01 0.27357442E+03</pdfrwt>
<totfact> 0.29194227E+02</totfact>
</mgrwt>
</event>
<event>
 5    1  0.2804411E-003  0.7816307E+02  0.7818608E-02  0.1392131E+00
         11   -1    0    0    0    0  0.00000000000E+00  0.00000000000E+00  0.10002503606E+04  0.10002503606E+04  0.51100000000E-03 0. -1.
          2   -1    0    0  501    0 -0.00000000000E+00 -0.00000000000E+00 -0.13304433769E+02  0.13304434014E+02  0.25500000000E-02 0. -1.
         11    1    1    2    0    0  0.43336209570E+00 -0.74320209211E+02  0.27217552086E+03  0.28214038253E+03  0.51100000000E-03 0. -1.
         22    1    1    2    0    0  0.48053670169E+02  0.37562570714E+01  0.10345201108E+03  0.11412967747E+03  0.00000000000E+00 0. -1.
          2    1    1    2  501    0 -0.48487032265E+02  0.70563952140E+02  0.61131839485E+03  0.61728473456E+03  0.25500000000E-02 0. -1.
<mgrwt>
<rscale>  0 0.61379784E+02</rscale>
<asrwt>0</asrwt>
<pdfrwt beam="1">  1       11 0.10000000E+01 0.78163065E+02</pdfrwt>
<pdfrwt beam="2">  1        2 0.20473484E-02 0.61379784E+02</pdfrwt>
<totfact> 0.54662310E+03</totfact>
</mgrwt>
</event>
<event>
 5    1  0.2804411E-003  0.1230782E+03  0.7818608E-02  0.1420600E+00
         11   -1    0    0    0    0  0.00000000000E+00  0.00000000000E+00  0.99986946974E+03  0.99986946974E+03  0.51100000000E-03 0. -1.
          2   -1    0    0  501    0 -0.00000000000E+00 -0.00000000000E+00 -0.24270193335E+02  0.24270193469E+02  0.25500000000E-02 0. -1.
         11    1    1    2    0    0 -0.22289713635E+02 -0.11234577336E+03  0.53626545976E+03  0.54836032630E+03  0.51100000000E-03 0. -1.
         22    1    1    2    0    0 -0.91280128428E+01 -0.22718130661E+02  0.13548668378E+02  0.27982145987E+02  0.00000000000E+00 0. -1.
          2    1    1    2  501    0  0.31417726477E+02  0.13506390403E+03  0.42578514826E+03  0.44779719092E+03  0.25500000000E-02 0. -1.
<mgrwt>
<rscale>  0 0.54894139E+02</rscale>
<asrwt>0</asrwt>
<pdfrwt beam="1">  1       11 0.10000000E+01 0.12307823E+03</pdfrwt>
<pdfrwt beam="2">  1        2 0.37333884E-02 0.54894139E+02</pdfrwt>
<totfact> 0.24493239E+03</totfact>
</mgrwt>
</event>
<event>
 5    1  0.2804411E-003  0.2146699E+02  0.7818608E-02  0.1717636E+00
         11   -1    0    0    0    0  0.00000000000E+00  0.00000000000E+00  0.10003291276E+04  0.10003291276E+04  0.51100000000E-03 0.  1.
          2   -1    0    0  501    0 -0.00000000000E+00 -0.00000000000E+00 -0.26916495065E+01  0.26916507144E+01  0.25500000000E-02 0.  1.
         11    1    1    2    0    0  0.20087919158E+01  0.98919921768E+01  0.16529048637E+02  0.19367400530E+02  0.51100000000E-03 0.  1.
         22    1    1    2    0    0  0.16587192419E+02  0.12325891700E+02  0.10224602746E+03  0.10431353072E+03  0.00000000000E+00 0.  1.
          2    1    1    2  501    0 -0.18595984334E+02 -0.22217883877E+02  0.87886240204E+03  0.87933984711E+03  0.25500000000E-02 0.  1.
<mgrwt>
<rscale>  0 0.21466992E+02</rscale>
<asrwt>0</asrwt>
<pdfrwt beam="1">  1       11 0.10000000E+01 0.10093902E+02</pdfrwt>
<pdfrwt beam="2">  1        2 0.41423630E-03 0.21466992E+02</pdfrwt>
<totfact> 0.36629364E+04</totfact>
</mgrwt>
</event>
<event>
 5    1  0.2804411E-003  0.3963846E+02  0.7818608E-02  0.1521330E+00
         11   -1    0    0    0    0  0.00000000000E+00  0.00000000000E+00  0.10004034612E+04  0.10004034612E+04  0.51100000000E-03 0.  1.
          2   -1    0    0  501    0 -0.00000000000E+00 -0.00000000000E+00 -0.54261033609E+01  0.54261039601E+01  0.25500000000E-02 0.  1.
         11    1    1    2    0    0  0.67897931620E+01 -0.74838432791E+01  0.17114668311E+02  0.19875137058E+02  0.51100000000E-03 0.  1.
         22    1    1    2    0    0  0.28681338245E+02 -0.68868956002E+01  0.55962482864E+02  0.63260161104E+02  0.00000000000E+00 0. -1.
          2    1    1    2  501    0 -0.35471131407E+02  0.14370738879E+02  0.92190020666E+03  0.92269426700E+03  0.25500000000E-02 0.  1.
<mgrwt>
<rscale>  0 0.38271651E+02</rscale>
<asrwt>0</asrwt>
<pdfrwt beam="1">  1       11 0.10000000E+01 0.39638463E+02</pdfrwt>
<pdfrwt beam="2">  1        2 0.83512196E-03 0.38271651E+02</pdfrwt>
<totfact> 0.16659304E+04</totfact>
</mgrwt>
</event>
<event>
 5    1  0.2804411E-003  0.2124768E+02  0.7818608E-02  0.1823026E+00
         11   -1    0    0    0    0  0.00000000000E+00  0.00000000000E+00  0.10001700728E+04  0.10001700728E+04  0.51100000000E-03 0.  1.
          2   -1    0    0  501    0 -0.00000000000E+00 -0.00000000000E+00 -0.23249261077E+01  0.23249275062E+01  0.25500000000E-02 0.  1.
         11    1    1    2    0    0  0.12377706174E+02 -0.17409747696E+02  0.94782636662E+02  0.97159946160E+02  0.51100000000E-03 0.  1.
         22    1    1    2    0    0 -0.12249304066E+02 -0.42258979874E+01  0.40952473388E+02  0.42953564933E+02  0.00000000000E+00 0.  1.
          2    1    1    2  501    0 -0.12840210880E+00  0.21635645683E+02  0.86211003664E+03  0.86238148921E+03  0.25500000000E-02 0.  1.
<mgrwt>
<rscale>  0 0.16592839E+02</rscale>
<asrwt>0</asrwt>
<pdfrwt beam="1">  1       11 0.10000000E+01 0.21247680E+02</pdfrwt>
<pdfrwt beam="2">  1        2 0.35774187E-03 0.16592839E+02</pdfrwt>
<totfact> 0.41106190E+04</totfact>
</mgrwt>
</event>
<event>
 5    1  0.2804411E-003  0.3403287E+02  0.7818608E-02  0.1557361E+00
         11   -1    0    0    0    0  0.00000000000E+00  0.00000000000E+00  0.10002841650E+04  0.10002841650E+04  0.51100000000E-03 0.  1.
          2   -1    0    0  501    0 -0.00000000000E+00 -0.00000000000E+00 -0.71060130669E+01  0.71060135244E+01  0.25500000000E-02 0.  1.
         11    1    1    2    0    0 -0.83854843761E+01 -0.60340760192E+01  0.24961200187E+01  0.10628124813E+02  0.51100000000E-03 0.  1.
         22    1    1    2    0    0  0.27487257111E+02 -0.20602556868E+02  0.10505341888E+03  0.11052708027E+03  0.00000000000E+00 0. -1.
          2    1    1    2  501    0 -0.19101772735E+02  0.26636632887E+02  0.88562861303E+03  0.88623497345E+03  0.25500000000E-02 0.  1.
<mgrwt>
<rscale>  0 0.34032869E+02</rscale>
<asrwt>0</asrwt>
<pdfrwt beam="1">  1       11 0.10000000E+01 0.10330853E+02</pdfrwt>
<pdfrwt beam="2">  1        2 0.10935434E-02 0.34032869E+02</pdfrwt>
<totfact> 0.11374446E+04</totfact>
</mgrwt>
</event>
<event>
 5    1  0.2804411E-003  0.9159492E+02  0.7818608E-02  0.1299035E+00
         11   -1    0    0    0    0  0.00000000000E+00  0.00000000000E+00  0.10003044182E+04  0.10003044182E+04  0.51100000000E-03 0.  1.
          2   -1    0    0  501    0 -0.00000000000E+00 -0.00000000000E+00 -0.11363988686E+02  0.11363988972E+02  0.25500000000E-02 0.  1.
         11    1    1    2    0    0 -0.12957867803E+02 -0.10900493992E+02  0.25265002678E+02  0.30414593008E+02  0.51100000000E-03 0.  1.
         22    1    1    2    0    0 -0.36128004655E+02  0.86734693102E+02  0.53105142652E+03  0.53929932071E+03  0.00000000000E+00 0.  1.
          2    1    1    2  501    0  0.49085872458E+02 -0.75834199110E+02  0.43262400032E+03  0.44195449346E+03  0.25500000000E-02 0.  1.
<mgrwt>
<rscale>  0 0.91594916E+02</rscale>
<asrwt>0</asrwt>
<pdfrwt beam="1">  1       11 0.10000000E+01 0.16933027E+02</pdfrwt>
<pdfrwt beam="2">  1        2 0.17488381E-02 0.91594916E+02</pdfrwt>
<totfact> 0.71379954E+03</totfact>
</mgrwt>
</event>
<event>
 5    1  0.2804411E-003  0.1797375E+03  0.7818608E-02  0.1170433E+00
         11   -1    0    0    0    0  0.00000000000E+00  0.00000000000E+00  0.10001520183E+04  0.10001520183E+04  0.51100000000E-03 0.  1.
          2   -1    0    0  501    0 -0.00000000000E+00 -0.00000000000E+00 -0.60539631485E+02  0.60539631539E+02  0.25500000000E-02 0.  1.
         11    1    1    2    0    0 -0.72485498294E+02 -0.12455051742E+03  0.72407233134E+03  0.73827347227E+03  0.51100000000E-03 0.  1.
         22    1    1    2    0    0 -0.12243686628E+02 -0.31203517110E+02  0.11240360635E+03  0.11729508968E+03  0.00000000000E+00 0.  1.
          2    1    1    2  501    0  0.84729184922E+02  0.15575403453E+03  0.10313644918E+03  0.20512308794E+03  0.25500000000E-02 0.  1.
<mgrwt>
<rscale>  0 0.17730864E+03</rscale>
<asrwt>0</asrwt>
<pdfrwt beam="1">  1       11 0.10000000E+01 0.17973750E+03</pdfrwt>
<pdfrwt beam="2">  1        2 0.93152051E-02 0.17730864E+03</pdfrwt>
<totfact> 0.84286691E+02</totfact>
</mgrwt>
</event>
<event>
 5    1  0.2804411E-003  0.1276539E+03  0.7818608E-02  0.1245905E+00
         11   -1    0    0    0    0  0.00000000000E+00  0.00000000000E+00  0.10000684422E+04  0.10000684422E+04  0.51100000000E-03 0.  1.
          2   -1    0    0  501    0 -0.00000000000E+00 -0.00000000000E+00 -0.18373167644E+02  0.18373167821E+02  0.25500000000E-02 0.  1.
         11    1    1    2    0    0  0.83471850960E+02  0.30936225018E+02  0.50285820638E+03  0.51067697779E+03  0.51100000000E-03 0.  1.
         22    1    1    2    0    0  0.14111481964E+02  0.35964066719E+02  0.21734633808E+03  0.22075320767E+03  0.00000000000E+00 0.  1.
          2    1    1    2  501    0 -0.97583332924E+02 -0.66900291737E+02  0.26149073013E+03  0.28701142460E+03  0.25500000000E-02 0.  1.
<mgrwt>
<rscale>  0 0.11831380E+03</rscale>
<asrwt>0</asrwt>
<pdfrwt beam="1">  1       11 0.10000000E+01 0.12765395E+03</pdfrwt>
<pdfrwt beam="2">  1        2 0.28268346E-02 0.11831380E+03</pdfrwt>
<totfact> 0.38519311E+03</totfact>
</mgrwt>
</event>
<event>
 5    1  0.2804411E-003  0.4032485E+03  0.7818608E-02  0.1043586E+00
         11   -1    0    0    0    0  0.00000000000E+00  0.00000000000E+00  0.10001958562E+04  0.10001958562E+04  0.51100000000E-03 0.  1.
          2   -1    0    0  501    0 -0.00000000000E+00 -0.00000000000E+00 -0.36820842851E+03  0.36820842852E+03  0.25500000000E-02 0. -1.
         11    1    1    2    0    0  0.34345288469E+03  0.12714990738E+03  0.74860017814E+03  0.83338419091E+03  0.51100000000E-03 0.  1.
         22    1    1    2    0    0  0.36924669636E+02 -0.16050652449E+01  0.80506246063E+02  0.88584779264E+02  0.00000000000E+00 0. -1.
          2    1    1    2  501    0 -0.38037755433E+03 -0.12554484214E+03 -0.19711899656E+03  0.44643531450E+03  0.25500000000E-02 0. -1.
<mgrwt>
<rscale>  0 0.40056035E+03</rscale>
<asrwt>0</asrwt>
<pdfrwt beam="1">  1       11 0.10000000E+01 0.40324846E+03</pdfrwt>
<pdfrwt beam="2">  1        2 0.56658544E-01 0.40056035E+03</pdfrwt>
<totfact> 0.10839809E+02</totfact>
</mgrwt>
</event>
<event>
 5    1  0.2804411E-003  0.1817383E+03  0.7818608E-02  0.1169964E+00
         11   -1    0    0    0    0  0.00000000000E+00  0.00000000000E+00  0.10006066416E+04  0.10006066416E+04  0.51100000000E-03 0. -1.
         -2   -1    0    0    0  501 -0.00000000000E+00 -0.00000000000E+00 -0.28028329640E+03  0.28028329641E+03  0.25500000000E-02 0.  1.
         11    1    1    2    0    0  0.21724235131E+02  0.12821354987E+03  0.67204171256E+03  0.68450764801E+03  0.51100000000E-03 0. -1.
         22    1    1    2    0    0  0.30123595989E+02  0.41843506270E+02  0.29099159627E+03  0.29552397390E+03  0.00000000000E+00 0.  1.
         -2    1    1    2    0  501 -0.51847831120E+02 -0.17005705614E+03 -0.24270996360E+03  0.30085831611E+03  0.25500000000E-02 0.  1.
<mgrwt>
<rscale>  0 0.17778526E+03</rscale>
<asrwt>0</asrwt>
<pdfrwt beam="1">  1       11 0.10000000E+01 0.18173834E+03</pdfrwt>
<pdfrwt beam="2">  1       -2 0.43146665E-01 0.17778526E+03</pdfrwt>
<totfact> 0.41586958E+01</totfact>
</mgrwt>
</event>
<event>
 5    1  0.2804411E-003  0.1157063E+03  0.7818608E-02  0.1272513E+00
         11   -1    0    0    0    0  0.00000000000E+00  0.00000000000E+00  0.10001375787E+04  0.10001375787E+04  0.51100000000E-03 0. -1.
          2   -1    0    0  501    0 -0.00000000000E+00 -0.00000000000E+00 -0.12023300616E+03  0.12023300619E+03  0.25500000000E-02 0. -1.
         11    1    1    2    0    0 -0.15389697719E+03 -0.12561190787E+03  0.16025086704E+02  0.19929735169E+03  0.51100000000E-03 0. -1.
         22    1    1    2    0    0  0.52699263727E+02  0.76760025844E+02  0.63166736925E+02  0.11251377968E+03  0.00000000000E+00 0. -1.
          2    1    1    2  501    0  0.10119771346E+03  0.48851882030E+02  0.80071274889E+03  0.80855945349E+03  0.25500000000E-02 0. -1.
<mgrwt>
<rscale>  0 0.10379454E+03</rscale>
<asrwt>0</asrwt>
<pdfrwt beam="1">  1       11 0.10000000E+01 0.11570626E+03</pdfrwt>
<pdfrwt beam="2">  1        2 0.18499930E-01 0.10379454E+03</pdfrwt>
<totfact> 0.36346531E+02</totfact>
</mgrwt>
</event>
<event>
 5    1  0.2804411E-003  0.1637634E+03  0.7818608E-02  0.1375629E+00
         11   -1    0    0    0    0  0.00000000000E+00  0.00000000000E+00  0.10002262014E+04  0.10002262014E+04  0.51100000000E-03 0.  1.
          2   -1    0    0  501    0 -0.00000000000E+00 -0.00000000000E+00 -0.31825198260E+02  0.31825198362E+02  0.25500000000E-02 0.  1.
         11    1    1    2    0    0 -0.13992036886E+03 -0.79335166615E+02  0.45404416250E+03  0.48169272341E+03  0.51100000000E-03 0.  1.
         22    1    1    2    0    0 -0.17099250258E+02  0.19981946287E+02  0.48343541539E+02  0.55034176157E+02  0.00000000000E+00 0. -1.
          2    1    1    2  501    0  0.15701961911E+03  0.59353220328E+02  0.46601329907E+03  0.49532450017E+03  0.25500000000E-02 0.  1.
<mgrwt>
<rscale>  0 0.65626911E+02</rscale>
<asrwt>0</asrwt>
<pdfrwt beam="1">  1       11 0.10000000E+01 0.16376338E+03</pdfrwt>
<pdfrwt beam="2">  1        2 0.48972917E-02 0.65626911E+02</pdfrwt>
<totfact> 0.17622642E+03</totfact>
</mgrwt>
</event>
<event>
 5    1  0.2804411E-003  0.1612988E+03  0.7818608E-02  0.1347877E+00
         11   -1    0    0    0    0  0.00000000000E+00  0.00000000000E+00  0.10001682461E+04  0.10001682461E+04  0.51100000000E-03 0.  1.
          2   -1    0    0  501    0 -0.00000000000E+00 -0.00000000000E+00 -0.75962145254E+02  0.75962145297E+02  0.25500000000E-02 0.  1.
         11    1    1    2    0    0 -0.97192572892E+02 -0.13064149817E+03  0.85845316880E+03  0.87375937208E+03  0.51100000000E-03 0.  1.
         22    1    1    2    0    0  0.32967865046E+02 -0.69578198640E+01  0.32725848047E+02  0.46970975222E+02  0.00000000000E+00 0.  1.
          2    1    1    2  501    0  0.64224707846E+02  0.13759931804E+03  0.33027084001E+02  0.15540004410E+03  0.25500000000E-02 0.  1.
<mgrwt>
<rscale>  0 0.73721191E+02</rscale>
<asrwt>0</asrwt>
<pdfrwt beam="1">  1       11 0.10000000E+01 0.16129876E+03</pdfrwt>
<pdfrwt beam="2">  1        2 0.11688450E-01 0.73721191E+02</pdfrwt>
<totfact> 0.60814399E+02</totfact>
</mgrwt>
</event>
<event>
 5    1  0.2804411E-003  0.1126898E+03  0.7818608E-02  0.1268584E+00
         11   -1    0    0    0    0  0.00000000000E+00  0.00000000000E+00  0.10003640170E+04  0.10003640170E+04  0.51100000000E-03 0. -1.
         -2   -1    0    0    0  501 -0.00000000000E+00 -0.00000000000E+00 -0.14505425877E+02  0.14505426101E+02  0.25500000000E-02 0. -1.
         11    1    1    2    0    0  0.33404322878E+02 -0.49931886385E+02  0.17596166121E+03  0.18593425795E+03  0.51100000000E-03 0. -1.
         22    1    1    2    0    0 -0.37613421360E+01 -0.51613372287E+02  0.11598307252E+03  0.12700457081E+03  0.00000000000E+00 0. -1.
         -2    1    1    2    0  501 -0.29642980742E+02  0.10154525867E+03  0.69391385741E+03  0.70193061436E+03  0.25500000000E-02 0. -1.
<mgrwt>
<rscale>  0 0.10578349E+03</rscale>
<asrwt>0</asrwt>
<pdfrwt beam="1">  1       11 0.10000000E+01 0.11268976E+03</pdfrwt>
<pdfrwt beam="2">  1       -2 0.22324163E-02 0.10578349E+03</pdfrwt>
<totfact> 0.47140834E+03</totfact>
</mgrwt>
</event>
<event>
 5    1  0.2804411E-003  0.7961196E+03  0.7818608E-02  0.9581333E-01
         11   -1    0    0    0    0  0.00000000000E+00  0.00000000000E+00  0.99987368589E+03  0.99987368589E+03  0.51100000000E-03 0. -1.
          2   -1    0    0  501    0 -0.00000000000E+00 -0.00000000000E+00 -0.10361832160E+04  0.10361832160E+04  0.25500000000E-02 0. -1.
         11    1    1    2    0    0  0.66567380943E+03  0.18489769728E+03  0.53218445592E+03  0.87208318075E+03  0.51100000000E-03 0. -1.
         22    1    1    2    0    0  0.76638309733E+02  0.71792821480E+02  0.90553531279E+02  0.13866355600E+03  0.00000000000E+00 0. -1.
          2    1    1    2  501    0 -0.74231211916E+03 -0.25669051876E+03 -0.65904751733E+03  0.10253101652E+04  0.25500000000E-02 0. -1.
<mgrwt>
<rscale>  0 0.78544083E+03</rscale>
<asrwt>0</asrwt>
<pdfrwt beam="1">  1       11 0.10000000E+01 0.79611957E+03</pdfrwt>
<pdfrwt beam="2">  1        2 0.15939266E+00 0.78544083E+03</pdfrwt>
<totfact> 0.29658631E+01</totfact>
</mgrwt>
</event>
<event>
 5    1  0.2804411E-003  0.4022476E+02  0.7818608E-02  0.1524782E+00
         11   -1    0    0    0    0  0.00000000000E+00  0.00000000000E+00  0.10002877305E+04  0.10002877305E+04  0.51100000000E-03 0.  1.
          2   -1    0    0  501    0 -0.00000000000E+00 -0.00000000000E+00 -0.23554192614E+01  0.23554206418E+01  0.25500000000E-02 0.  1.
         11    1    1    2    0    0  0.11256817889E+02 -0.27105843309E+02  0.17280551451E+03  0.17528031417E+03  0.51100000000E-03 0.  1.
         22    1    1    2    0    0  0.88572699978E+01 -0.49387495539E+01  0.38080706460E+02  0.39407901283E+02  0.00000000000E+00 0.  1.
          2    1    1    2  501    0 -0.20114087887E+02  0.32044592863E+02  0.78704609030E+03  0.78795493572E+03  0.25500000000E-02 0.  1.
<mgrwt>
<rscale>  0 0.37834276E+02</rscale>
<asrwt>0</asrwt>
<pdfrwt beam="1">  1       11 0.10000000E+01 0.40224764E+02</pdfrwt>
<pdfrwt beam="2">  1        2 0.36247656E-03 0.37834276E+02</pdfrwt>
<totfact> 0.50743542E+04</totfact>
</mgrwt>
</event>
<event>
 5    1  0.2804411E-003  0.1491356E+03  0.7818608E-02  0.1201539E+00
         11   -1    0    0    0    0  0.00000000000E+00  0.00000000000E+00  0.10002029849E+04  0.10002029849E+04  0.51100000000E-03 0. -1.
         -2   -1    0    0    0  501 -0.00000000000E+00 -0.00000000000E+00 -0.17500287256E+03  0.17500287258E+03  0.25500000000E-02 0.  1.
         11    1    1    2    0    0 -0.16342592227E+03 -0.59221101823E+01  0.88045765235E+03  0.89551593009E+03  0.51100000000E-03 0. -1.
         22    1    1    2    0    0  0.14865821096E+02  0.97403444254E+01  0.78052055727E+02  0.80049924107E+02  0.00000000000E+00 0.  1.
         -2    1    1    2    0  501  0.14856010117E+03 -0.38182342431E+01 -0.13330959576E+03  0.19964000326E+03  0.25500000000E-02 0.  1.
<mgrwt>
<rscale>  0 0.14913565E+03</rscale>
<asrwt>0</asrwt>
<pdfrwt beam="1">  1       11 0.10000000E+01 0.17772646E+02</pdfrwt>
<pdfrwt beam="2">  1       -2 0.26928983E-01 0.14913565E+03</pdfrwt>
<totfact> 0.99107025E+01</totfact>
</mgrwt>
</event>
<event>
 5    1  0.2804411E-003  0.1900597E+03  0.7818608E-02  0.1158407E+00
         11   -1    0    0    0    0  0.00000000000E+00  0.00000000000E+00  0.10001509969E+04  0.10001509969E+04  0.51100000000E-03 0. -1.
          2   -1    0    0  501    0 -0.00000000000E+00 -0.00000000000E+00 -0.41804023126E+02  0.41804023204E+02  0.25500000000E-02 0. -1.
         11    1    1    2    0    0 -0.17741570342E+03  0.60579750730E+02  0.58306661238E+03  0.61246462142E+03  0.51100000000E-03 0. -1.
         22    1    1    2    0    0 -0.69371860277E+01 -0.82072569154E+01  0.56687218379E+02  0.57696831314E+02  0.00000000000E+00 0. -1.
          2    1    1    2  501    0  0.18435288945E+03 -0.52372493815E+02  0.31859314304E+03  0.37179356739E+03  0.25500000000E-02 0. -1.
<mgrwt>
<rscale>  0 0.19005974E+03</rscale>
<asrwt>0</asrwt>
<pdfrwt beam="1">  1       11 0.10000000E+01 0.10746330E+02</pdfrwt>
<pdfrwt beam="2">  1        2 0.64323591E-02 0.19005974E+03</pdfrwt>
<totfact> 0.13545490E+03</totfact>
</mgrwt>
</event>
<event>
 5    1  0.2804411E-003  0.5601888E+02  0.7818608E-02  0.1420696E+00
         11   -1    0    0    0    0  0.00000000000E+00  0.00000000000E+00  0.10002664526E+04  0.10002664526E+04  0.51100000000E-03 0.  1.
         -2   -1    0    0    0  501 -0.00000000000E+00 -0.00000000000E+00 -0.37643025249E+01  0.37643033886E+01  0.25500000000E-02 0. -1.
         11    1    1    2    0    0 -0.21291432975E+02  0.15742780322E+02  0.12755012571E+03  0.13026970032E+03  0.51100000000E-03 0.  1.
         22    1    1    2    0    0 -0.28541214837E+02  0.72324471157E+01  0.15985234111E+03  0.16254131842E+03  0.00000000000E+00 0.  1.
         -2    1    1    2    0  501  0.49832647812E+02 -0.22975227438E+02  0.70909968322E+03  0.71121973722E+03  0.25500000000E-02 0. -1.
<mgrwt>
<rscale>  0 0.54873982E+02</rscale>
<asrwt>0</asrwt>
<pdfrwt beam="1">  1       11 0.10000000E+01 0.56018879E+02</pdfrwt>
<pdfrwt beam="2">  1       -2 0.57927782E-03 0.54873982E+02</pdfrwt>
<totfact> 0.28459360E+04</totfact>
</mgrwt>
</event>
<event>
 5    1  0.2804411E-003  0.2234797E+03  0.7818608E-02  0.1137690E+00
         11   -1    0    0    0    0  0.00000000000E+00  0.00000000000E+00  0.10004890475E+04  0.10004890475E+04  0.51100000000E-03 0. -1.
          2   -1    0    0  501    0 -0.00000000000E+00 -0.00000000000E+00 -0.43356483681E+03  0.43356483681E+03  0.25500000000E-02 0. -1.
         11    1    1    2    0    0  0.97830025946E+02  0.17310203158E+03  0.91292139485E+03  0.93432355235E+03  0.51100000000E-03 0. -1.
         22    1    1    2    0    0  0.19212157718E+02  0.72111681862E+01  0.47276727786E+02  0.51538305569E+02  0.00000000000E+00 0.  1.
          2    1    1    2  501    0 -0.11704218366E+03 -0.18031319976E+03 -0.39327391190E+03  0.44819202643E+03  0.25500000000E-02 0. -1.
<mgrwt>
<rscale>  0 0.21496912E+03</rscale>
<asrwt>0</asrwt>
<pdfrwt beam="1">  1       11 0.10000000E+01 0.22347968E+03</pdfrwt>
<pdfrwt beam="2">  1        2 0.66734901E-01 0.21496912E+03</pdfrwt>
<totfact> 0.91048735E+01</totfact>
</mgrwt>
</event>
<event>
 5    1  0.2804411E-003  0.1781583E+03  0.7818608E-02  0.1173841E+00
         11   -1    0    0    0    0  0.00000000000E+00  0.00000000000E+00  0.10002079016E+04  0.10002079016E+04  0.51100000000E-03 0. -1.
          2   -1    0    0  501    0 -0.00000000000E+00 -0.00000000000E+00 -0.16305486630E+03  0.16305486632E+03  0.25500000000E-02 0. -1.
         11    1    1    2    0    0 -0.84053215364E+01 -0.15688693608E+03  0.89151992112E+03  0.90525793556E+03  0.51100000000E-03 0. -1.
         22    1    1    2    0    0 -0.66421000290E+01 -0.16360262250E+02  0.51480999875E+02  0.54424893402E+02  0.00000000000E+00 0.  1.
          2    1    1    2  501    0  0.15047421565E+02  0.17324719833E+03 -0.10584788570E+03  0.20357993894E+03  0.25500000000E-02 0. -1.
<mgrwt>
<rscale>  0 0.17389944E+03</rscale>
<asrwt>0</asrwt>
<pdfrwt beam="1">  1       11 0.10000000E+01 0.17815834E+03</pdfrwt>
<pdfrwt beam="2">  1        2 0.25090579E-01 0.17389944E+03</pdfrwt>
<totfact> 0.26240530E+02</totfact>
</mgrwt>
</event>
<event>
 5    1  0.2804411E-003  0.1000516E+03  0.7818608E-02  0.1615065E+00
         11   -1    0    0    0    0  0.00000000000E+00  0.00000000000E+00  0.10002396119E+04  0.10002396119E+04  0.51100000000E-03 0. -1.
         -2   -1    0    0    0  501 -0.00000000000E+00 -0.00000000000E+00 -0.19862111796E+02  0.19862111960E+02  0.25500000000E-02 0. -1.
         11    1    1    2    0    0  0.16870858873E+02 -0.88905737680E+02  0.51371058712E+03  0.52161999904E+03  0.51100000000E-03 0. -1.
         22    1    1    2    0    0 -0.17455352474E+02  0.11741835867E+03  0.45012025803E+03  0.46551047998E+03  0.00000000000E+00 0. -1.
         -2    1    1    2    0  501  0.58449360101E+00 -0.28512620991E+02  0.16546654907E+02  0.32971244800E+02  0.25500000000E-02 0. -1.
<mgrwt>
<rscale>  0 0.28518611E+02</rscale>
<asrwt>0</asrwt>
<pdfrwt beam="1">  1       11 0.10000000E+01 0.10005163E+03</pdfrwt>
<pdfrwt beam="2">  1       -2 0.30564416E-02 0.28518611E+02</pdfrwt>
<totfact> 0.25032018E+03</totfact>
</mgrwt>
</event>
<event>
 5    1  0.2804411E-003  0.1086353E+03  0.7818608E-02  0.1408789E+00
         11   -1    0    0    0    0  0.00000000000E+00  0.00000000000E+00  0.10002183286E+04  0.10002183286E+04  0.51100000000E-03 0.  1.
          2   -1    0    0  501    0 -0.00000000000E+00 -0.00000000000E+00 -0.18623999461E+02  0.18623999635E+02  0.25500000000E-02 0.  1.
         11    1    1    2    0    0 -0.36264184354E+02  0.89795096973E+02  0.19138996075E+03  0.21449561203E+03  0.51100000000E-03 0.  1.
         22    1    1    2    0    0  0.19657318742E+02  0.23185886081E+02  0.92710271385E+02  0.97566335966E+02  0.00000000000E+00 0.  1.
          2    1    1    2  501    0  0.16606865612E+02 -0.11298098305E+03  0.69749409699E+03  0.70678038022E+03  0.25500000000E-02 0.  1.
<mgrwt>
<rscale>  0 0.57464937E+02</rscale>
<asrwt>0</asrwt>
<pdfrwt beam="1">  1       11 0.10000000E+01 0.10863535E+03</pdfrwt>
<pdfrwt beam="2">  1        2 0.28658562E-02 0.57464937E+02</pdfrwt>
<totfact> 0.34746129E+03</totfact>
</mgrwt>
</event>
<event>
 5    1  0.2804411E-003  0.1734484E+03  0.7818608E-02  0.1174299E+00
         11   -1    0    0    0    0  0.00000000000E+00  0.00000000000E+00  0.10000043276E+04  0.10000043276E+04  0.51100000000E-03 0. -1.
          2   -1    0    0  501    0 -0.00000000000E+00 -0.00000000000E+00 -0.27815779909E+03  0.27815779910E+03  0.25500000000E-02 0. -1.
         11    1    1    2    0    0  0.10126308014E+03  0.15495658894E+03  0.76384205784E+03  0.78595193567E+03  0.51100000000E-03 0. -1.
         22    1    1    2    0    0  0.31487928222E+02 -0.43555586944E+02  0.19293235059E+03  0.20027848283E+03  0.00000000000E+00 0.  1.
          2    1    1    2  501    0 -0.13275100836E+03 -0.11140100200E+03 -0.23492787993E+03  0.29193170819E+03  0.25500000000E-02 0. -1.
<mgrwt>
<rscale>  0 0.17344837E+03</rscale>
<asrwt>0</asrwt>
<pdfrwt beam="1">  1       11 0.10000000E+01 0.53745500E+02</pdfrwt>
<pdfrwt beam="2">  1        2 0.42793692E-01 0.17344837E+03</pdfrwt>
<totfact> 0.14696409E+02</totfact>
</mgrwt>
</event>
<event>
 5    1  0.2804411E-003  0.1384890E+03  0.7818608E-02  0.1218499E+00
         11   -1    0    0    0    0  0.00000000000E+00  0.00000000000E+00  0.10003249935E+04  0.10003249935E+04  0.51100000000E-03 0.  1.
          2   -1    0    0  501    0 -0.00000000000E+00 -0.00000000000E+00 -0.19181183792E+02  0.19181183962E+02  0.25500000000E-02 0.  1.
         11    1    1    2    0    0  0.11716087338E+03 -0.70550315142E+01  0.47476372373E+03  0.48905729429E+03  0.51100000000E-03 0.  1.
         22    1    1    2    0    0  0.19049558754E+02  0.91099990970E+01  0.85645857528E+02  0.88210490782E+02  0.00000000000E+00 0. -1.
          2    1    1    2  501    0 -0.13621043214E+03 -0.20549675828E+01  0.42073422849E+03  0.44223839244E+03  0.25500000000E-02 0.  1.
<mgrwt>
<rscale>  0 0.13622593E+03</rscale>
<asrwt>0</asrwt>
<pdfrwt beam="1">  1       11 0.10000000E+01 0.13848898E+03</pdfrwt>
<pdfrwt beam="2">  1        2 0.29519103E-02 0.13622593E+03</pdfrwt>
<totfact> 0.36885461E+03</totfact>
</mgrwt>
</event>
<event>
 5    1  0.2804411E-003  0.1683115E+03  0.7818608E-02  0.1179620E+00
         11   -1    0    0    0    0  0.00000000000E+00  0.00000000000E+00  0.10007332363E+04  0.10007332363E+04  0.51100000000E-03 0.  1.
          2   -1    0    0  501    0 -0.00000000000E+00 -0.00000000000E+00 -0.10680016767E+04  0.10680016767E+04  0.25500000000E-02 0.  1.
         11    1    1    2    0    0  0.25814469051E+01 -0.99907620418E+02  0.49180911764E+03  0.50186094158E+03  0.51100000000E-03 0.  1.
         22    1    1    2    0    0  0.16573636538E+03  0.10165622377E+03  0.47810199544E+03  0.51612406326E+03  0.00000000000E+00 0.  1.
          2    1    1    2  501    0 -0.16831781228E+03 -0.17486033503E+01 -0.10371795535E+04  0.10507499082E+04  0.25500000000E-02 0.  1.
<mgrwt>
<rscale>  0 0.16831153E+03</rscale>
<asrwt>0</asrwt>
<pdfrwt beam="1">  1       11 0.10000000E+01 0.99940965E+02</pdfrwt>
<pdfrwt beam="2">  1        2 0.16442842E+00 0.16831153E+03</pdfrwt>
<totfact> 0.30595219E+01</totfact>
</mgrwt>
</event>
<event>
 5    1  0.2804411E-003  0.7952524E+02  0.7818608E-02  0.1519103E+00
         11   -1    0    0    0    0  0.00000000000E+00  0.00000000000E+00  0.10003849027E+04  0.10003849027E+04  0.51100000000E-03 0.  1.
          2   -1    0    0  501    0 -0.00000000000E+00 -0.00000000000E+00 -0.11130159898E+02  0.11130160190E+02  0.25500000000E-02 0.  1.
         11    1    1    2    0    0 -0.75680906996E+02  0.52454659306E+02  0.53122503731E+03  0.53914666950E+03  0.51100000000E-03 0.  1.
         22    1    1    2    0    0  0.70043476729E+02 -0.14311473400E+02  0.35997197116E+03  0.36700235275E+03  0.00000000000E+00 0. -1.
          2    1    1    2  501    0  0.56374302671E+01 -0.38143185907E+02  0.98057734301E+02  0.10536604061E+03  0.25500000000E-02 0.  1.
<mgrwt>
<rscale>  0 0.38557532E+02</rscale>
<asrwt>0</asrwt>
<pdfrwt beam="1">  1       11 0.10000000E+01 0.79525243E+02</pdfrwt>
<pdfrwt beam="2">  1        2 0.17129913E-02 0.38557532E+02</pdfrwt>
<totfact> 0.64390302E+03</totfact>
</mgrwt>
</event>
<event>
 5    1  0.2804411E-003  0.4670305E+03  0.7818608E-02  0.1023984E+00
         11   -1    0    0    0    0  0.00000000000E+00  0.00000000000E+00  0.10000540826E+04  0.10000540826E+04  0.51100000000E-03 0. -1.
          2   -1    0    0  501    0 -0.00000000000E+00 -0.00000000000E+00 -0.22256146811E+03  0.22256146813E+03  0.25500000000E-02 0. -1.
         11    1    1    2    0    0 -0.30471646326E+03  0.33956368309E+03  0.48779135860E+03  0.66790420524E+03  0.51100000000E-03 0. -1.
         22    1    1    2    0    0  0.16568384801E+01  0.10151798931E+02  0.67225746024E+01  0.12288089541E+02  0.00000000000E+00 0.  1.
          2    1    1    2  501    0  0.30305962478E+03 -0.34971548202E+03  0.28297868133E+03  0.54242325598E+03  0.25500000000E-02 0. -1.
<mgrwt>
<rscale>  0 0.46275918E+03</rscale>
<asrwt>0</asrwt>
<pdfrwt beam="1">  1       11 0.10000000E+01 0.46703054E+03</pdfrwt>
<pdfrwt beam="2">  1        2 0.34242077E-01 0.46275918E+03</pdfrwt>
<totfact> 0.18862895E+02</totfact>
</mgrwt>
</event>
<event>
 5    1  0.2804411E-003  0.5198761E+02  0.7818608E-02  0.1513669E+00
         11   -1    0    0    0    0  0.00000000000E+00  0.00000000000E+00  0.10001168904E+04  0.10001168904E+04  0.51100000000E-03 0.  1.
          2   -1    0    0  501    0 -0.00000000000E+00 -0.00000000000E+00 -0.81937917639E+01  0.81937921607E+01  0.25500000000E-02 0.  1.
         11    1    1    2    0    0 -0.76499012207E+02 -0.39029160831E+01  0.27974092762E+03  0.29003847712E+03  0.51100000000E-03 0.  1.
         22    1    1    2    0    0  0.28952255776E+02  0.64418107896E+01  0.10172332937E+03  0.10595926471E+03  0.00000000000E+00 0. -1.
          2    1    1    2  501    0  0.47546756431E+02 -0.25388947065E+01  0.61045884167E+03  0.61231294075E+03  0.25500000000E-02 0.  1.
<mgrwt>
<rscale>  0 0.39267854E+02</rscale>
<asrwt>0</asrwt>
<pdfrwt beam="1">  1       11 0.10000000E+01 0.51987610E+02</pdfrwt>
<pdfrwt beam="2">  1        2 0.12607307E-02 0.39267854E+02</pdfrwt>
<totfact> 0.96827462E+03</totfact>
</mgrwt>
</event>
<event>
 5    1  0.2804411E-003  0.2531038E+03  0.7818608E-02  0.1114338E+00
         11   -1    0    0    0    0  0.00000000000E+00  0.00000000000E+00  0.10002837675E+04  0.10002837675E+04  0.51100000000E-03 0. -1.
          2   -1    0    0  501    0 -0.00000000000E+00 -0.00000000000E+00 -0.22019219991E+03  0.22019219993E+03  0.25500000000E-02 0. -1.
         11    1    1    2    0    0 -0.10751768900E+03 -0.15106479402E+03  0.59104169205E+03  0.61944403071E+03  0.51100000000E-03 0. -1.
         22    1    1    2    0    0 -0.41345366438E+02 -0.47752725624E+02  0.31589235278E+03  0.32214552717E+03  0.00000000000E+00 0. -1.
          2    1    1    2  501    0  0.14886305543E+03  0.19881751965E+03 -0.12684247724E+03  0.27888640955E+03  0.25500000000E-02 0. -1.
<mgrwt>
<rscale>  0 0.24837193E+03</rscale>
<asrwt>0</asrwt>
<pdfrwt beam="1">  1       11 0.10000000E+01 0.25310380E+03</pdfrwt>
<pdfrwt beam="2">  1        2 0.33885335E-01 0.24837193E+03</pdfrwt>
<totfact> 0.18969154E+02</totfact>
</mgrwt>
</event>
<event>
 5    1  0.2804411E-003  0.5971684E+02  0.7818608E-02  0.1461366E+00
         11   -1    0    0    0    0  0.00000000000E+00  0.00000000000E+00  0.10001403840E+04  0.10001403840E+04  0.51100000000E-03 0. -1.
          2   -1    0    0  501    0 -0.00000000000E+00 -0.00000000000E+00 -0.71406970820E+01  0.71406975373E+01  0.25500000000E-02 0. -1.
         11    1    1    2    0    0  0.28578370506E+02 -0.41277210164E+02  0.23639924857E+03  0.24167154583E+03  0.51100000000E-03 0. -1.
         22    1    1    2    0    0 -0.23488794294E+02 -0.28876349699E+02  0.13485055430E+03  0.13989367042E+03  0.00000000000E+00 0. -1.
          2    1    1    2  501    0 -0.50895762124E+01  0.70153559863E+02  0.62174988410E+03  0.62571586533E+03  0.25500000000E-02 0. -1.
<mgrwt>
<rscale>  0 0.47147121E+02</rscale>
<asrwt>0</asrwt>
<pdfrwt beam="1">  1       11 0.10000000E+01 0.59716839E+02</pdfrwt>
<pdfrwt beam="2">  1        2 0.10987230E-02 0.47147121E+02</pdfrwt>
<totfact> 0.12024163E+04</totfact>
</mgrwt>
</event>
<event>
 5    1  0.2804411E-003  0.4536686E+02  0.7818608E-02  0.1478289E+00
         11   -1    0    0    0    0  0.00000000000E+00  0.00000000000E+00  0.10002921696E+04  0.10002921696E+04  0.51100000000E-03 0. -1.
          2   -1    0    0  501    0 -0.00000000000E+00 -0.00000000000E+00 -0.35455338633E+01  0.35455347803E+01  0.25500000000E-02 0. -1.
         11    1    1    2    0    0 -0.19404741620E+02 -0.47383660783E+01  0.60789276781E+02  0.63986969629E+02  0.51100000000E-03 0. -1.
         22    1    1    2    0    0 -0.22333964564E+02 -0.10325323753E+02  0.11071254832E+03  0.11341378505E+03  0.00000000000E+00 0.  1.
          2    1    1    2  501    0  0.41738706184E+02  0.15063689832E+02  0.82524481060E+03  0.82643694967E+03  0.25500000000E-02 0. -1.
<mgrwt>
<rscale>  0 0.44373803E+02</rscale>
<asrwt>0</asrwt>
<pdfrwt beam="1">  1       11 0.10000000E+01 0.45366857E+02</pdfrwt>
<pdfrwt beam="2">  1        2 0.54562617E-03 0.44373803E+02</pdfrwt>
<totfact> 0.30404007E+04</totfact>
</mgrwt>
</event>
<event>
 5    1  0.2804411E-003  0.3981413E+02  0.7818608E-02  0.1509584E+00
         11   -1    0    0    0    0  0.00000000000E+00  0.00000000000E+00  0.10000919799E+04  0.10000919799E+04  0.51100000000E-03 0.  1.
          2   -1    0    0  501    0 -0.00000000000E+00 -0.00000000000E+00 -0.10222385888E+02  0.10222386206E+02  0.25500000000E-02 0.  1.
         11    1    1    2    0    0 -0.86889879985E+00 -0.31107765360E+02  0.30440719003E+02  0.43532578887E+02  0.51100000000E-03 0.  1.
         22    1    1    2    0    0 -0.15805230037E+02 -0.32146196279E+02  0.13209570246E+03  0.13686656947E+03  0.00000000000E+00 0. -1.
          2    1    1    2  501    0  0.16674128837E+02  0.63253961639E+02  0.82733317253E+03  0.82991521773E+03  0.25500000000E-02 0.  1.
<mgrwt>
<rscale>  0 0.39814134E+02</rscale>
<asrwt>0</asrwt>
<pdfrwt beam="1">  1       11 0.10000000E+01 0.31119914E+02</pdfrwt>
<pdfrwt beam="2">  1        2 0.15728194E-02 0.39814134E+02</pdfrwt>
<totfact> 0.72448367E+03</totfact>
</mgrwt>
</event>
<event>
 5    1  0.2804411E-003  0.4257505E+02  0.7818608E-02  0.1617382E+00
         11   -1    0    0    0    0  0.00000000000E+00  0.00000000000E+00  0.10003954740E+04  0.10003954740E+04  0.51100000000E-03 0. -1.
          2   -1    0    0  501    0 -0.00000000000E+00 -0.00000000000E+00 -0.25434084633E+02  0.25434084761E+02  0.25500000000E-02 0. -1.
         11    1    1    2    0    0  0.10333185572E+02  0.23636383813E+02 -0.16184712731E+02  0.30453214777E+02  0.51100000000E-03 0. -1.
         22    1    1    2    0    0 -0.27811820060E+01  0.18637607939E+02  0.53042177918E+02  0.56290035009E+02  0.00000000000E+00 0. -1.
          2    1    1    2  501    0 -0.75520035660E+01 -0.42273991752E+02  0.93810392417E+03  0.93908630896E+03  0.25500000000E-02 0. -1.
<mgrwt>
<rscale>  0 0.28324598E+02</rscale>
<asrwt>0</asrwt>
<pdfrwt beam="1">  1       11 0.10000000E+01 0.42575054E+02</pdfrwt>
<pdfrwt beam="2">  1        2 0.39144835E-02 0.28324598E+02</pdfrwt>
<totfact> 0.21192716E+03</totfact>
</mgrwt>
</event>
<event>
 5    1  0.2804411E-003  0.1864850E+03  0.7818608E-02  0.1163350E+00
         11   -1    0    0    0    0  0.00000000000E+00  0.00000000000E+00  0.10001681489E+04  0.10001681489E+04  0.51100000000E-03 0. -1.
         -2   -1    0    0    0  501 -0.00000000000E+00 -0.00000000000E+00 -0.15255916740E+03  0.15255916742E+03  0.25500000000E-02 0.  1.
         11    1    1    2    0    0  0.40967344427E+02  0.15959650067E+03  0.80361097645E+03  0.82032918259E+03  0.51100000000E-03 0. -1.
         22    1    1    2    0    0  0.12743614972E+02  0.17099160286E+02  0.12782016704E+03  0.12958694420E+03  0.00000000000E+00 0.  1.
         -2    1    1    2    0  501 -0.53710959398E+02 -0.17669566096E+03 -0.83822161978E+02  0.20281118955E+03  0.25500000000E-02 0.  1.
<mgrwt>
<rscale>  0 0.18467870E+03</rscale>
<asrwt>0</asrwt>
<pdfrwt beam="1">  1       11 0.10000000E+01 0.18648505E+03</pdfrwt>
<pdfrwt beam="2">  1       -2 0.23474587E-01 0.18467870E+03</pdfrwt>
<totfact> 0.12673603E+02</totfact>
</mgrwt>
</event>
<event>
 5    1  0.2804411E-003  0.4410236E+02  0.7818608E-02  0.1488902E+00
         11   -1    0    0    0    0  0.00000000000E+00  0.00000000000E+00  0.10002578782E+04  0.10002578782E+04  0.51100000000E-03 0. -1.
          2   -1    0    0  501    0 -0.00000000000E+00 -0.00000000000E+00 -0.34136154829E+01  0.34136164354E+01  0.25500000000E-02 0. -1.
         11    1    1    2    0    0  0.10579664434E+02  0.84947311104E+01  0.38488169283E+02  0.40809667130E+02  0.51100000000E-03 0. -1.
         22    1    1    2    0    0  0.15225980665E+02  0.25587125074E+02  0.12846219769E+03  0.13186761426E+03  0.00000000000E+00 0. -1.
          2    1    1    2  501    0 -0.25805645099E+02 -0.34081856184E+02  0.82989389573E+03  0.83099421323E+03  0.25500000000E-02 0. -1.
<mgrwt>
<rscale>  0 0.42749319E+02</rscale>
<asrwt>0</asrwt>
<pdfrwt beam="1">  1       11 0.10000000E+01 0.44102364E+02</pdfrwt>
<pdfrwt beam="2">  1        2 0.52530710E-03 0.42749319E+02</pdfrwt>
<totfact> 0.31735110E+04</totfact>
</mgrwt>
</event>
<event>
 5    1  0.2804411E-003  0.2674653E+03  0.7818608E-02  0.1102739E+00
         11   -1    0    0    0    0  0.00000000000E+00  0.00000000000E+00  0.10001410401E+04  0.10001410401E+04  0.51100000000E-03 0.  1.
          2   -1    0    0  501    0 -0.00000000000E+00 -0.00000000000E+00 -0.26956700409E+03  0.26956700411E+03  0.25500000000E-02 0.  1.
         11    1    1    2    0    0  0.23294927289E+03 -0.70710391131E+02  0.80190155691E+03  0.83804023180E+03  0.51100000000E-03 0.  1.
         22    1    1    2    0    0  0.34514022279E+02  0.34555566538E+02  0.10048488089E+03  0.11172518159E+03  0.00000000000E+00 0.  1.
          2    1    1    2  501    0 -0.26746329517E+03  0.36154824593E+02 -0.17181240178E+03  0.31994263082E+03  0.25500000000E-02 0.  1.
<mgrwt>
<rscale>  0 0.26746525E+03</rscale>
<asrwt>0</asrwt>
<pdfrwt beam="1">  1       11 0.10000000E+01 0.48839583E+02</pdfrwt>
<pdfrwt beam="2">  1        2 0.41477695E-01 0.26746525E+03</pdfrwt>
<totfact> 0.15234109E+02</totfact>
</mgrwt>
</event>
<event>
 5    1  0.2804411E-003  0.1702003E+03  0.7818608E-02  0.1183095E+00
         11   -1    0    0    0    0  0.00000000000E+00  0.00000000000E+00  0.10001419103E+04  0.10001419103E+04  0.51100000000E-03 0. -1.
         -2   -1    0    0    0  501 -0.00000000000E+00 -0.00000000000E+00 -0.28638009146E+02  0.28638009260E+02  0.25500000000E-02 0. -1.
         11    1    1    2    0    0  0.10678108246E+03  0.10910370039E+03  0.47910164306E+03  0.50283615761E+03  0.51100000000E-03 0. -1.
         22    1    1    2    0    0  0.15315580957E+02  0.19755441043E+01  0.84670642431E+02  0.86067342728E+02  0.00000000000E+00 0.  1.
         -2    1    1    2    0  501 -0.12209666342E+03 -0.11107924449E+03  0.40773161564E+03  0.43987641921E+03  0.25500000000E-02 0. -1.
<mgrwt>
<rscale>  0 0.16506421E+03</rscale>
<asrwt>0</asrwt>
<pdfrwt beam="1">  1       11 0.10000000E+01 0.17020030E+03</pdfrwt>
<pdfrwt beam="2">  1       -2 0.44064727E-02 0.16506421E+03</pdfrwt>
<totfact> 0.18165320E+03</totfact>
</mgrwt>
</event>
<event>
 5    1  0.2804411E-003  0.1738316E+03  0.7818608E-02  0.1179316E+00
         11   -1    0    0    0    0  0.00000000000E+00  0.00000000000E+00  0.10004000167E+04  0.10004000167E+04  0.51100000000E-03 0. -1.
          2   -1    0    0  501    0 -0.00000000000E+00 -0.00000000000E+00 -0.68696745910E+02  0.68696745957E+02  0.25500000000E-02 0. -1.
         11    1    1    2    0    0 -0.12609004093E+02 -0.32623513194E+01  0.34558133895E+02  0.36930942838E+02  0.51100000000E-03 0. -1.
         22    1    1    2    0    0 -0.97989620291E+02 -0.12399232183E+03  0.83910184194E+03  0.85385476675E+03  0.00000000000E+00 0. -1.
          2    1    1    2  501    0  0.11059862438E+03  0.12725467315E+03  0.58043294967E+02  0.17831105308E+03  0.25500000000E-02 0. -1.
<mgrwt>
<rscale>  0 0.16859955E+03</rscale>
<asrwt>0</asrwt>
<pdfrwt beam="1">  1       11 0.10000000E+01 0.17383161E+03</pdfrwt>
<pdfrwt beam="2">  1        2 0.10572958E-01 0.16859955E+03</pdfrwt>
<totfact> 0.71878794E+02</totfact>
</mgrwt>
</event>
<event>
 5    1  0.2804411E-003  0.2462095E+03  0.7818608E-02  0.1575537E+00
         11   -1    0    0    0    0  0.00000000000E+00  0.00000000000E+00  0.10001634006E+04  0.10001634006E+04  0.51100000000E-03 0.  1.
          2   -1    0    0  501    0 -0.00000000000E+00 -0.00000000000E+00 -0.32878582134E+03  0.32878582135E+03  0.25500000000E-02 0.  1.
         11    1    1    2    0    0  0.17881900378E+03 -0.16129970954E+03  0.45998973816E+03  0.51921516891E+03  0.51100000000E-03 0.  1.
         22    1    1    2    0    0 -0.20680021012E+03  0.14548039643E+03  0.47823297751E+03  0.54095993699E+03  0.00000000000E+00 0.  1.
          2    1    1    2  501    0  0.27981206336E+02  0.15819313119E+02 -0.26684513646E+03  0.26877411601E+03  0.25500000000E-02 0.  1.
<mgrwt>
<rscale>  0 0.32143407E+02</rscale>
<asrwt>0</asrwt>
<pdfrwt beam="1">  1       11 0.10000000E+01 0.24620945E+03</pdfrwt>
<pdfrwt beam="2">  1        2 0.50590698E-01 0.32143407E+02</pdfrwt>
<totfact> 0.12183772E+02</totfact>
</mgrwt>
</event>
<event>
 5    1  0.2804411E-003  0.2389363E+03  0.7818608E-02  0.1134434E+00
         11   -1    0    0    0    0  0.00000000000E+00  0.00000000000E+00  0.10000024315E+04  0.10000024315E+04  0.51100000000E-03 0.  1.
          2   -1    0    0  501    0 -0.00000000000E+00 -0.00000000000E+00 -0.12272757114E+04  0.12272757114E+04  0.25500000000E-02 0.  1.
         11    1    1    2    0    0  0.26902579023E+01  0.17485296853E+03  0.75006378529E+03  0.77017951160E+03  0.51100000000E-03 0.  1.
         22    1    1    2    0    0 -0.49615447549E+02  0.39329248313E+02  0.22561355838E+03  0.23432874372E+03  0.00000000000E+00 0.  1.
          2    1    1    2  501    0  0.46925189646E+02 -0.21418221684E+03 -0.12029506236E+04  0.12227698877E+04  0.25500000000E-02 0.  1.
<mgrwt>
<rscale>  0 0.21926239E+03</rscale>
<asrwt>0</asrwt>
<pdfrwt beam="1">  1       11 0.10000000E+01 0.23893630E+03</pdfrwt>
<pdfrwt beam="2">  1        2 0.18881210E+00 0.21926239E+03</pdfrwt>
<totfact> 0.24461148E+01</totfact>
</mgrwt>
</event>
<event>
 5    1  0.2804411E-003  0.5141026E+02  0.7818608E-02  0.1452701E+00
         11   -1    0    0    0    0  0.00000000000E+00  0.00000000000E+00  0.99975902299E+03  0.99975902299E+03  0.51100000000E-03 0. -1.
          2   -1    0    0  501    0 -0.00000000000E+00 -0.00000000000E+00 -0.44987732558E+01  0.44987739785E+01  0.25500000000E-02 0. -1.
         11    1    1    2    0    0 -0.51920689257E+01  0.39415975283E+02  0.13856298654E+03  0.14415366082E+03  0.51100000000E-03 0. -1.
         22    1    1    2    0    0  0.68342203340E+01  0.92172887965E+01  0.32400898742E+02  0.34372710391E+02  0.00000000000E+00 0.  1.
          2    1    1    2  501    0 -0.16421514083E+01 -0.48633264080E+02  0.82429636445E+03  0.82573142576E+03  0.25500000000E-02 0. -1.
<mgrwt>
<rscale>  0 0.48660981E+02</rscale>
<asrwt>0</asrwt>
<pdfrwt beam="1">  1       11 0.10000000E+01 0.51410263E+02</pdfrwt>
<pdfrwt beam="2">  1        2 0.69195221E-03 0.48660981E+02</pdfrwt>
<totfact> 0.22510987E+04</totfact>
</mgrwt>
</event>
<event>
 5    1  0.2804411E-003  0.2456081E+03  0.7818608E-02  0.1123065E+00
         11   -1    0    0    0    0  0.00000000000E+00  0.00000000000E+00  0.10002296234E+04  0.10002296234E+04  0.51100000000E-03 0. -1.
          2   -1    0    0  501    0 -0.00000000000E+00 -0.00000000000E+00 -0.27234551067E+03  0.27234551068E+03  0.25500000000E-02 0. -1.
         11    1    1    2    0    0 -0.17099362079E+03 -0.71430844048E+02  0.74845424506E+03  0.77105443438E+03  0.51100000000E-03 0. -1.
         22    1    1    2    0    0 -0.57083859964E+02  0.14185490439E+02  0.18192481375E+03  0.19119736679E+03  0.00000000000E+00 0. -1.
          2    1    1    2  501    0  0.22807748075E+03  0.57245353609E+02 -0.20249494610E+03  0.31032333289E+03  0.25500000000E-02 0. -1.
<mgrwt>
<rscale>  0 0.23515180E+03</rscale>
<asrwt>0</asrwt>
<pdfrwt beam="1">  1       11 0.10000000E+01 0.24560809E+03</pdfrwt>
<pdfrwt beam="2">  1        2 0.41908929E-01 0.23515180E+03</pdfrwt>
<totfact> 0.15055341E+02</totfact>
</mgrwt>
</event>
<event>
 5    1  0.2804411E-003  0.1858968E+03  0.7818608E-02  0.1172117E+00
         11   -1    0    0    0    0  0.00000000000E+00  0.00000000000E+00  0.10001980225E+04  0.10001980225E+04  0.51100000000E-03 0.  1.
          2   -1    0    0  501    0 -0.00000000000E+00 -0.00000000000E+00 -0.24918697812E+03  0.24918697813E+03  0.25500000000E-02 0.  1.
         11    1    1    2    0    0 -0.79451965755E+02 -0.93140527855E+02  0.65703162624E+03  0.66833998135E+03  0.51100000000E-03 0.  1.
         22    1    1    2    0    0 -0.62327844790E+02 -0.10486147719E+02  0.30215254487E+03  0.30869220901E+03  0.00000000000E+00 0. -1.
          2    1    1    2  501    0  0.14177981054E+03  0.10362667557E+03 -0.20817312673E+03  0.27235281028E+03  0.25500000000E-02 0.  1.
<mgrwt>
<rscale>  0 0.17561322E+03</rscale>
<asrwt>0</asrwt>
<pdfrwt beam="1">  1       11 0.10000000E+01 0.18589682E+03</pdfrwt>
<pdfrwt beam="2">  1        2 0.38344049E-01 0.17561322E+03</pdfrwt>
<totfact> 0.16531497E+02</totfact>
</mgrwt>
</event>
<event>
 5    1  0.2804411E-003  0.5209267E+02  0.7818608E-02  0.1578409E+00
         11   -1    0    0    0    0  0.00000000000E+00  0.00000000000E+00  0.10005091647E+04  0.10005091647E+04  0.51100000000E-03 0. -1.
          2   -1    0    0  501    0 -0.00000000000E+00 -0.00000000000E+00 -0.18426726308E+02  0.18426726484E+02  0.25500000000E-02 0. -1.
         11    1    1    2    0    0  0.81982533848E+01 -0.34803504555E+02  0.82083788895E+01  0.36686138692E+02  0.51100000000E-03 0. -1.
         22    1    1    2    0    0 -0.70520402823E+01 -0.18162932586E+02  0.24062049377E+02  0.30961356762E+02  0.00000000000E+00 0. -1.
          2    1    1    2  501    0 -0.11462131025E+01  0.52966437141E+02  0.94981201012E+03  0.95128839572E+03  0.25500000000E-02 0. -1.
<mgrwt>
<rscale>  0 0.31858581E+02</rscale>
<asrwt>0</asrwt>
<pdfrwt beam="1">  1       11 0.10000000E+01 0.52092667E+02</pdfrwt>
<pdfrwt beam="2">  1        2 0.28363243E-02 0.31858581E+02</pdfrwt>
<totfact> 0.32438155E+03</totfact>
</mgrwt>
</event>
<event>
 5    1  0.2804411E-003  0.1867538E+03  0.7818608E-02  0.1161422E+00
         11   -1    0    0    0    0  0.00000000000E+00  0.00000000000E+00  0.10002316105E+04  0.10002316105E+04  0.51100000000E-03 0. -1.
          2   -1    0    0  501    0 -0.00000000000E+00 -0.00000000000E+00 -0.83115548292E+03  0.83115548292E+03  0.25500000000E-02 0. -1.
         11    1    1    2    0    0 -0.68995243933E+02 -0.15544045232E+03  0.67609743660E+03  0.69715839067E+03  0.51100000000E-03 0. -1.
         22    1    1    2    0    0  0.44556225931E+02 -0.30077251038E+02  0.30052056113E+03  0.30529085470E+03  0.00000000000E+00 0. -1.
          2    1    1    2  501    0  0.24439018001E+02  0.18551770336E+03 -0.80754187016E+03  0.82893784805E+03  0.25500000000E-02 0. -1.
<mgrwt>
<rscale>  0 0.18675376E+03</rscale>
<asrwt>0</asrwt>
<pdfrwt beam="1">  1       11 0.10000000E+01 0.53757774E+02</pdfrwt>
<pdfrwt beam="2">  1        2 0.12789969E+00 0.18675376E+03</pdfrwt>
<totfact> 0.42785174E+01</totfact>
</mgrwt>
</event>
<event>
 5    1  0.2804411E-003  0.1252945E+03  0.7818608E-02  0.1234610E+00
         11   -1    0    0    0    0  0.00000000000E+00  0.00000000000E+00  0.10001964870E+04  0.10001964870E+04  0.51100000000E-03 0.  1.
          2   -1    0    0  501    0 -0.00000000000E+00 -0.00000000000E+00 -0.28605057555E+02  0.28605057669E+02  0.25500000000E-02 0.  1.
         11    1    1    2    0    0  0.32837859151E+02  0.14123663810E+02  0.46008788507E+02  0.58263294562E+02  0.51100000000E-03 0.  1.
         22    1    1    2    0    0  0.21850309550E+02 -0.12694860048E+03  0.70622088546E+03  0.71787277581E+03  0.00000000000E+00 0.  1.
          2    1    1    2  501    0 -0.54688168701E+02  0.11282493667E+03  0.21936175552E+03  0.25266547434E+03  0.25500000000E-02 0.  1.
<mgrwt>
<rscale>  0 0.12529452E+03</rscale>
<asrwt>0</asrwt>
<pdfrwt beam="1">  1       11 0.10000000E+01 0.35746387E+02</pdfrwt>
<pdfrwt beam="2">  1        2 0.44016427E-02 0.12529452E+03</pdfrwt>
<totfact> 0.21507017E+03</totfact>
</mgrwt>
</event>
<event>
 5    1  0.2804411E-003  0.2122883E+03  0.7818608E-02  0.1185147E+00
         11   -1    0    0    0    0  0.00000000000E+00  0.00000000000E+00  0.10003011176E+04  0.10003011176E+04  0.51100000000E-03 0. -1.
          2   -1    0    0  501    0 -0.00000000000E+00 -0.00000000000E+00 -0.33429351428E+03  0.33429351429E+03  0.25500000000E-02 0. -1.
         11    1    1    2    0    0 -0.12153320374E+03 -0.16708296118E+03  0.59267840708E+03  0.62765813127E+03  0.51100000000E-03 0. -1.
         22    1    1    2    0    0 -0.75398347207E+01  0.26693107898E+03  0.31648920676E+03  0.41409475731E+03  0.00000000000E+00 0.  1.
          2    1    1    2  501    0  0.12907303846E+03 -0.99848117804E+02 -0.24316001053E+03  0.29284174330E+03  0.25500000000E-02 0. -1.
<mgrwt>
<rscale>  0 0.16318546E+03</rscale>
<asrwt>0</asrwt>
<pdfrwt beam="1">  1       11 0.10000000E+01 0.21228829E+03</pdfrwt>
<pdfrwt beam="2">  1        2 0.51445256E-01 0.16318546E+03</pdfrwt>
<totfact> 0.12072535E+02</totfact>
</mgrwt>
</event>
<event>
 5    1  0.2804411E-003  0.4637521E+02  0.7818608E-02  0.1693085E+00
         11   -1    0    0    0    0  0.00000000000E+00  0.00000000000E+00  0.10001537687E+04  0.10001537687E+04  0.51100000000E-03 0. -1.
          2   -1    0    0  501    0 -0.00000000000E+00 -0.00000000000E+00 -0.43336409062E+01  0.43336416564E+01  0.25500000000E-02 0. -1.
         11    1    1    2    0    0 -0.92592882374E+01  0.41289676012E+02  0.23959568690E+03  0.24330364762E+03  0.51100000000E-03 0. -1.
         22    1    1    2    0    0 -0.10990910297E+02  0.26721633208E+01  0.17261261151E+02  0.20637143759E+02  0.00000000000E+00 0. -1.
          2    1    1    2  501    0  0.20250198535E+02 -0.43961839333E+02  0.73896317976E+03  0.74054661900E+03  0.25500000000E-02 0. -1.
<mgrwt>
<rscale>  0 0.22903133E+02</rscale>
<asrwt>0</asrwt>
<pdfrwt beam="1">  1       11 0.10000000E+01 0.46375207E+02</pdfrwt>
<pdfrwt beam="2">  1        2 0.66681654E-03 0.22903133E+02</pdfrwt>
<totfact> 0.19969966E+04</totfact>
</mgrwt>
</event>
<event>
 5    1  0.2804411E-003  0.8230762E+02  0.7818608E-02  0.1322627E+00
         11   -1    0    0    0    0  0.00000000000E+00  0.00000000000E+00  0.99992349223E+03  0.99992349223E+03  0.51100000000E-03 0. -1.
          2   -1    0    0  501    0 -0.00000000000E+00 -0.00000000000E+00 -0.16084256960E+02  0.16084257162E+02  0.25500000000E-02 0. -1.
         11    1    1    2    0    0  0.33979871456E+02  0.39120582004E+02  0.92877401934E+02  0.10635442347E+03  0.51100000000E-03 0. -1.
         22    1    1    2    0    0 -0.73943373771E+01 -0.10729232164E+03  0.60459416020E+03  0.61408502429E+03  0.00000000000E+00 0. -1.
          2    1    1    2  501    0 -0.26585534079E+02  0.68171739641E+02  0.28636767313E+03  0.29556830163E+03  0.25500000000E-02 0. -1.
<mgrwt>
<rscale>  0 0.82307622E+02</rscale>
<asrwt>0</asrwt>
<pdfrwt beam="1">  1       11 0.10000000E+01 0.51817509E+02</pdfrwt>
<pdfrwt beam="2">  1        2 0.24743117E-02 0.82307622E+02</pdfrwt>
<totfact> 0.44148631E+03</totfact>
</mgrwt>
</event>
<event>
 5    1  0.2804411E-003  0.4571341E+03  0.7818608E-02  0.1300213E+00
         11   -1    0    0    0    0  0.00000000000E+00  0.00000000000E+00  0.10002403892E+04  0.10002403892E+04  0.51100000000E-03 0. -1.
          2   -1    0    0  501    0 -0.00000000000E+00 -0.00000000000E+00 -0.22203045933E+03  0.22203045934E+03  0.25500000000E-02 0. -1.
         11    1    1    2    0    0 -0.42593109234E+03 -0.16473443504E+03  0.45426284392E+03  0.64413466052E+03  0.51100000000E-03 0. -1.
         22    1    1    2    0    0  0.57320411908E+01 -0.17225601894E+02  0.17540145357E+01  0.18238810922E+02  0.00000000000E+00 0.  1.
          2    1    1    2  501    0  0.42019905115E+03  0.18196003693E+03  0.32219307143E+03  0.55989737712E+03  0.25500000000E-02 0. -1.
<mgrwt>
<rscale>  0 0.91098506E+02</rscale>
<asrwt>0</asrwt>
<pdfrwt beam="1">  1       11 0.10000000E+01 0.45713411E+03</pdfrwt>
<pdfrwt beam="2">  1        2 0.34166743E-01 0.91098506E+02</pdfrwt>
<totfact> 0.18529890E+02</totfact>
</mgrwt>
</event>
<event>
 5    1  0.2804411E-003  0.1919573E+03  0.7818608E-02  0.1156708E+00
         11   -1    0    0    0    0  0.00000000000E+00  0.00000000000E+00  0.10003198350E+04  0.10003198350E+04  0.51100000000E-03 0.  1.
          2   -1    0    0  501    0 -0.00000000000E+00 -0.00000000000E+00 -0.60077135267E+02  0.60077135321E+02  0.25500000000E-02 0.  1.
         11    1    1    2    0    0 -0.16691604527E+03  0.58474172240E+02  0.19949095496E+03  0.26660239328E+03  0.51100000000E-03 0.  1.
         22    1    1    2    0    0 -0.50909288572E+02  0.97702731075E+01  0.20477483612E+03  0.21123434240E+03  0.00000000000E+00 0.  1.
          2    1    1    2  501    0  0.21782533385E+03 -0.68244445347E+02  0.53597690870E+03  0.58256023470E+03  0.25500000000E-02 0.  1.
<mgrwt>
<rscale>  0 0.19195731E+03</rscale>
<asrwt>0</asrwt>
<pdfrwt beam="1">  1       11 0.10000000E+01 0.51838344E+02</pdfrwt>
<pdfrwt beam="2">  1        2 0.92455921E-02 0.19195731E+03</pdfrwt>
<totfact> 0.85452902E+02</totfact>
</mgrwt>
</event>
<event>
 5    1  0.2804411E-003  0.1690274E+03  0.7818608E-02  0.1435508E+00
         11   -1    0    0    0    0  0.00000000000E+00  0.00000000000E+00  0.10003096238E+04  0.10003096238E+04  0.51100000000E-03 0. -1.
          2   -1    0    0  501    0 -0.00000000000E+00 -0.00000000000E+00 -0.41548875045E+02  0.41548875123E+02  0.25500000000E-02 0. -1.
         11    1    1    2    0    0  0.12275948092E+02 -0.16576268584E+03  0.69269504589E+03  0.71235833224E+03  0.51100000000E-03 0. -1.
         22    1    1    2    0    0  0.12088653196E+02 -0.10355424379E+02  0.30099161296E+02  0.34048933330E+02  0.00000000000E+00 0. -1.
          2    1    1    2  501    0 -0.24364601288E+02  0.17611811022E+03  0.23596654160E+03  0.29545123338E+03  0.25500000000E-02 0. -1.
<mgrwt>
<rscale>  0 0.51870143E+02</rscale>
<asrwt>0</asrwt>
<pdfrwt beam="1">  1       11 0.10000000E+01 0.16902735E+03</pdfrwt>
<pdfrwt beam="2">  1        2 0.63941136E-02 0.51870143E+02</pdfrwt>
<totfact> 0.12309853E+03</totfact>
</mgrwt>
</event>
<event>
 5    1  0.2804411E-003  0.1519645E+03  0.7818608E-02  0.1200290E+00
         11   -1    0    0    0    0  0.00000000000E+00  0.00000000000E+00  0.99998198441E+03  0.99998198441E+03  0.51100000000E-03 0.  1.
          2   -1    0    0  501    0 -0.00000000000E+00 -0.00000000000E+00 -0.25902737095E+02  0.25902737220E+02  0.25500000000E-02 0.  1.
         11    1    1    2    0    0  0.13553687940E+03  0.26867495270E+02  0.60839526022E+03  0.62388853222E+03  0.51100000000E-03 0.  1.
         22    1    1    2    0    0  0.10198933526E+02  0.92668806261E+01  0.58218698612E+02  0.59827336475E+02  0.00000000000E+00 0.  1.
          2    1    1    2  501    0 -0.14573581292E+03 -0.36134375896E+02  0.30746528848E+03  0.34216885293E+03  0.25500000000E-02 0.  1.
<mgrwt>
<rscale>  0 0.15014866E+03</rscale>
<asrwt>0</asrwt>
<pdfrwt beam="1">  1       11 0.10000000E+01 0.15196453E+03</pdfrwt>
<pdfrwt beam="2">  1        2 0.39849646E-02 0.15014866E+03</pdfrwt>
<totfact> 0.24923425E+03</totfact>
</mgrwt>
</event>
<event>
 5    1  0.2804411E-003  0.1563617E+03  0.7818608E-02  0.1192867E+00
         11   -1    0    0    0    0  0.00000000000E+00  0.00000000000E+00  0.10004101794E+04  0.10004101794E+04  0.51100000000E-03 0.  1.
          2   -1    0    0  501    0 -0.00000000000E+00 -0.00000000000E+00 -0.43308402776E+02  0.43308402851E+02  0.25500000000E-02 0.  1.
         11    1    1    2    0    0  0.12656207276E+02  0.13088995552E+02  0.72874020589E+02  0.75114075008E+02  0.51100000000E-03 0.  1.
         22    1    1    2    0    0 -0.15554775469E+03  0.47087159676E+02  0.73730286731E+03  0.75500186936E+03  0.00000000000E+00 0.  1.
          2    1    1    2  501    0  0.14289154742E+03 -0.60176155228E+02  0.14692488876E+03  0.21360263791E+03  0.25500000000E-02 0.  1.
<mgrwt>
<rscale>  0 0.15636174E+03</rscale>
<asrwt>0</asrwt>
<pdfrwt beam="1">  1       11 0.10000000E+01 0.18207180E+02</pdfrwt>
<pdfrwt beam="2">  1        2 0.66655640E-02 0.15636174E+03</pdfrwt>
<totfact> 0.12768300E+03</totfact>
</mgrwt>
</event>
<event>
 5    1  0.2804411E-003  0.4240542E+03  0.7818608E-02  0.1042539E+00
         11   -1    0    0    0    0  0.00000000000E+00  0.00000000000E+00  0.10001069500E+04  0.10001069500E+04  0.51100000000E-03 0. -1.
          2   -1    0    0  501    0 -0.00000000000E+00 -0.00000000000E+00 -0.40755638939E+03  0.40755638940E+03  0.25500000000E-02 0. -1.
         11    1    1    2    0    0  0.25312817692E+03 -0.27863586166E+02  0.40360464832E+03  0.47722842071E+03  0.51100000000E-03 0. -1.
         22    1    1    2    0    0  0.14995604437E+03  0.48359542894E+02  0.43162835587E+03  0.45948721225E+03  0.00000000000E+00 0. -1.
          2    1    1    2  501    0 -0.40308422129E+03 -0.20495956728E+02 -0.24268244364E+03  0.47094770639E+03  0.25500000000E-02 0. -1.
<mgrwt>
<rscale>  0 0.40360497E+03</rscale>
<asrwt>0</asrwt>
<pdfrwt beam="1">  1       11 0.10000000E+01 0.42405425E+03</pdfrwt>
<pdfrwt beam="2">  1        2 0.62707687E-01 0.40360497E+03</pdfrwt>
<totfact> 0.96902773E+01</totfact>
</mgrwt>
</event>
<event>
 5    1  0.2804411E-003  0.5733636E+02  0.7818608E-02  0.1602047E+00
         11   -1    0    0    0    0  0.00000000000E+00  0.00000000000E+00  0.10001662733E+04  0.10001662733E+04  0.51100000000E-03 0. -1.
          2   -1    0    0  501    0 -0.00000000000E+00 -0.00000000000E+00 -0.56628378302E+01  0.56628384044E+01  0.25500000000E-02 0. -1.
         11    1    1    2    0    0 -0.55253260488E+01  0.65025367829E+02  0.30674959926E+03  0.31361464305E+03  0.51100000000E-03 0. -1.
         22    1    1    2    0    0 -0.92961175827E+01 -0.12186651436E+02  0.55320052658E+02  0.57404185399E+02  0.00000000000E+00 0.  1.
          2    1    1    2  501    0  0.14821443631E+02 -0.52838716393E+02  0.63243378355E+03  0.63481028325E+03  0.25500000000E-02 0. -1.
<mgrwt>
<rscale>  0 0.29644944E+02</rscale>
<asrwt>0</asrwt>
<pdfrwt beam="1">  1       11 0.10000000E+01 0.57336363E+02</pdfrwt>
<pdfrwt beam="2">  1        2 0.87135070E-03 0.29644944E+02</pdfrwt>
<totfact> 0.14919378E+04</totfact>
</mgrwt>
</event>
<event>
 5    1  0.2804411E-003  0.5110607E+02  0.7818608E-02  0.1452235E+00
         11   -1    0    0    0    0  0.00000000000E+00  0.00000000000E+00  0.10000935066E+04  0.10000935066E+04  0.51100000000E-03 0.  1.
          2   -1    0    0  501    0 -0.00000000000E+00 -0.00000000000E+00 -0.35037051485E+01  0.35037060764E+01  0.25500000000E-02 0.  1.
         11    1    1    2    0    0 -0.27606686937E+02 -0.27106359291E+02  0.17045772574E+03  0.17479336412E+03  0.51100000000E-03 0.  1.
         22    1    1    2    0    0 -0.12993355253E+01 -0.12141986050E+02  0.66667777213E+02  0.67776903268E+02  0.00000000000E+00 0.  1.
          2    1    1    2  501    0  0.28906022462E+02  0.39248345341E+02  0.75946429854E+03  0.76102694533E+03  0.25500000000E-02 0.  1.
<mgrwt>
<rscale>  0 0.48744136E+02</rscale>
<asrwt>0</asrwt>
<pdfrwt beam="1">  1       11 0.10000000E+01 0.51106071E+02</pdfrwt>
<pdfrwt beam="2">  1        2 0.53908202E-03 0.48744136E+02</pdfrwt>
<totfact> 0.31535092E+04</totfact>
</mgrwt>
</event>
<event>
 5    1  0.2804411E-003  0.6846307E+02  0.7818608E-02  0.1374253E+00
         11   -1    0    0    0    0  0.00000000000E+00  0.00000000000E+00  0.10001049265E+04  0.10001049265E+04  0.51100000000E-03 0. -1.
         -2   -1    0    0    0  501 -0.00000000000E+00 -0.00000000000E+00 -0.80328908465E+01  0.80328912512E+01  0.25500000000E-02 0.  1.
         11    1    1    2    0    0  0.98764785121E+01  0.54675369068E+02  0.12238894189E+03  0.13440979841E+03  0.51100000000E-03 0. -1.
         22    1    1    2    0    0  0.67157903465E+01  0.92036985339E+01  0.45431599702E+02  0.46838447435E+02  0.00000000000E+00 0.  1.
         -2    1    1    2    0  501 -0.16592268859E+02 -0.63879067602E+02  0.82425149411E+03  0.82688957195E+03  0.25500000000E-02 0.  1.
<mgrwt>
<rscale>  0 0.65998778E+02</rscale>
<asrwt>0</asrwt>
<pdfrwt beam="1">  1       11 0.10000000E+01 0.68463074E+02</pdfrwt>
<pdfrwt beam="2">  1       -2 0.12359590E-02 0.65998778E+02</pdfrwt>
<totfact> 0.10233577E+04</totfact>
</mgrwt>
</event>
<event>
 5    1  0.2804411E-003  0.1249233E+03  0.7818608E-02  0.1249729E+00
         11   -1    0    0    0    0  0.00000000000E+00  0.00000000000E+00  0.10003126831E+04  0.10003126831E+04  0.51100000000E-03 0.  1.
          2   -1    0    0  501    0 -0.00000000000E+00 -0.00000000000E+00 -0.15569664432E+02  0.15569664641E+02  0.25500000000E-02 0.  1.
         11    1    1    2    0    0  0.38405005798E+02  0.55687377117E+02  0.34429572957E+03  0.35087829491E+03  0.51100000000E-03 0.  1.
         22    1    1    2    0    0 -0.89201963715E+01  0.56572621350E+02  0.29708469550E+03  0.30255470198E+03  0.00000000000E+00 0. -1.
          2    1    1    2  501    0 -0.29484809426E+02 -0.11225999847E+03  0.34336259362E+03  0.36244935087E+03  0.25500000000E-02 0.  1.
<mgrwt>
<rscale>  0 0.11606749E+03</rscale>
<asrwt>0</asrwt>
<pdfrwt beam="1">  1       11 0.10000000E+01 0.12492330E+03</pdfrwt>
<pdfrwt beam="2">  1        2 0.23960819E-02 0.11606749E+03</pdfrwt>
<totfact> 0.48019483E+03</totfact>
</mgrwt>
</event>
<event>
 5    1  0.2804411E-003  0.1764653E+03  0.7818608E-02  0.1171268E+00
         11   -1    0    0    0    0  0.00000000000E+00  0.00000000000E+00  0.99982043373E+03  0.99982043373E+03  0.51100000000E-03 0. -1.
         -2   -1    0    0    0  501 -0.00000000000E+00 -0.00000000000E+00 -0.12716317121E+03  0.12716317124E+03  0.25500000000E-02 0.  1.
         11    1    1    2    0    0  0.91806609712E+02 -0.52374547606E+02  0.19267048096E+03  0.21975773264E+03  0.51100000000E-03 0. -1.
         22    1    1    2    0    0  0.62605378058E+02  0.14728498399E+03  0.70618629945E+03  0.72409349494E+03  0.00000000000E+00 0. -1.
         -2    1    1    2    0  501 -0.15441198777E+03 -0.94910436387E+02 -0.26199517895E+02  0.18313237738E+03  0.25500000000E-02 0.  1.
<mgrwt>
<rscale>  0 0.17646528E+03</rscale>
<asrwt>0</asrwt>
<pdfrwt beam="1">  1       11 0.10000000E+01 0.10569554E+03</pdfrwt>
<pdfrwt beam="2">  1       -2 0.19560051E-01 0.17646528E+03</pdfrwt>
<totfact> 0.17319666E+02</totfact>
</mgrwt>
</event>
<event>
 5    1  0.2804411E-003  0.1303104E+03  0.7818608E-02  0.1240064E+00
         11   -1    0    0    0    0  0.00000000000E+00  0.00000000000E+00  0.10001089772E+04  0.10001089772E+04  0.51100000000E-03 0. -1.
          2   -1    0    0  501    0 -0.00000000000E+00 -0.00000000000E+00 -0.15895939263E+02  0.15895939467E+02  0.25500000000E-02 0. -1.
         11    1    1    2    0    0 -0.10502008416E+03  0.22851042229E+02  0.41606642800E+03  0.42972393547E+03  0.51100000000E-03 0. -1.
         22    1    1    2    0    0 -0.16624563928E+02 -0.15648589682E+02  0.89731494162E+02  0.92590472130E+02  0.00000000000E+00 0.  1.
          2    1    1    2  501    0  0.12164464809E+03 -0.72024525478E+01  0.47841511579E+03  0.49369050908E+03  0.25500000000E-02 0. -1.
<mgrwt>
<rscale>  0 0.12185769E+03</rscale>
<asrwt>0</asrwt>
<pdfrwt beam="1">  1       11 0.10000000E+01 0.13031041E+03</pdfrwt>
<pdfrwt beam="2">  1        2 0.24457956E-02 0.12185769E+03</pdfrwt>
<totfact> 0.46964599E+03</totfact>
</mgrwt>
</event>
<event>
 5    1  0.2804411E-003  0.1726221E+03  0.7818608E-02  0.1178819E+00
         11   -1    0    0    0    0  0.00000000000E+00  0.00000000000E+00  0.10005105610E+04  0.10005105610E+04  0.51100000000E-03 0. -1.
          2   -1    0    0  501    0 -0.00000000000E+00 -0.00000000000E+00 -0.34414632165E+03  0.34414632166E+03  0.25500000000E-02 0.  1.
         11    1    1    2    0    0  0.45036983973E+01 -0.12436172114E+03  0.71251590840E+03  0.72330148673E+03  0.51100000000E-03 0. -1.
         22    1    1    2    0    0 -0.19340133201E+02 -0.44057985388E+02  0.25915263588E+03  0.26358155381E+03  0.00000000000E+00 0. -1.
          2    1    1    2  501    0  0.14836434803E+02  0.16841970653E+03 -0.31530430496E+03  0.35777384208E+03  0.25500000000E-02 0.  1.
<mgrwt>
<rscale>  0 0.16907193E+03</rscale>
<asrwt>0</asrwt>
<pdfrwt beam="1">  1       11 0.10000000E+01 0.17262206E+03</pdfrwt>
<pdfrwt beam="2">  1        2 0.52972618E-01 0.16907193E+03</pdfrwt>
<totfact> 0.11700612E+02</totfact>
</mgrwt>
</event>
<event>
 5    1  0.2804411E-003  0.1370225E+03  0.7818608E-02  0.1432922E+00
         11   -1    0    0    0    0  0.00000000000E+00  0.00000000000E+00  0.99996734990E+03  0.99996734990E+03  0.51100000000E-03 0. -1.
          2   -1    0    0  501    0 -0.00000000000E+00 -0.00000000000E+00 -0.58491809486E+02  0.58491809542E+02  0.25500000000E-02 0. -1.
         11    1    1    2    0    0  0.62668834853E+02  0.76400679941E+02  0.11550239797E+03  0.15200411407E+03  0.51100000000E-03 0. -1.
         22    1    1    2    0    0 -0.97468435711E+02 -0.11554710317E+03  0.83897717693E+03  0.85248691041E+03  0.00000000000E+00 0. -1.
          2    1    1    2  501    0  0.34799600857E+02  0.39146423231E+02 -0.13004034486E+02  0.53968134960E+02  0.25500000000E-02 0. -1.
<mgrwt>
<rscale>  0 0.52377998E+02</rscale>
<asrwt>0</asrwt>
<pdfrwt beam="1">  1       11 0.10000000E+01 0.13702247E+03</pdfrwt>
<pdfrwt beam="2">  1        2 0.89984459E-02 0.52377998E+02</pdfrwt>
<totfact> 0.81135242E+02</totfact>
</mgrwt>
</event>
<event>
 5    1  0.2804411E-003  0.3573802E+03  0.7818608E-02  0.1066683E+00
         11   -1    0    0    0    0  0.00000000000E+00  0.00000000000E+00  0.99967998717E+03  0.99967998717E+03  0.51100000000E-03 0. -1.
          2   -1    0    0  501    0 -0.00000000000E+00 -0.00000000000E+00 -0.10359989694E+04  0.10359989695E+04  0.25500000000E-02 0. -1.
         11    1    1    2    0    0 -0.12087462528E+03 -0.24669812840E+03  0.61728422198E+03  0.67565557224E+03  0.51100000000E-03 0. -1.
         22    1    1    2    0    0 -0.58915190089E+01 -0.69072393115E+02  0.32065058750E+03  0.32805869101E+03  0.00000000000E+00 0. -1.
          2    1    1    2  501    0  0.12676614429E+03  0.31577052151E+03 -0.97425379176E+03  0.10319646934E+04  0.25500000000E-02 0. -1.
<mgrwt>
<rscale>  0 0.34026560E+03</rscale>
<asrwt>0</asrwt>
<pdfrwt beam="1">  1       11 0.10000000E+01 0.35738021E+03</pdfrwt>
<pdfrwt beam="2">  1        2 0.15933345E+00 0.34026560E+03</pdfrwt>
<totfact> 0.30890684E+01</totfact>
</mgrwt>
</event>
<event>
 5    1  0.2804411E-003  0.2034711E+03  0.7818608E-02  0.1153250E+00
         11   -1    0    0    0    0  0.00000000000E+00  0.00000000000E+00  0.10000633786E+04  0.10000633786E+04  0.51100000000E-03 0. -1.
         -2   -1    0    0    0  501 -0.00000000000E+00 -0.00000000000E+00 -0.24625454432E+03  0.24625454433E+03  0.25500000000E-02 0.  1.
         11    1    1    2    0    0 -0.10807084089E+03  0.28547757166E+02  0.42601198836E+03  0.44043216880E+03  0.51100000000E-03 0. -1.
         22    1    1    2    0    0 -0.86555574562E+02 -0.62937233337E+01  0.52251894456E+03  0.52967681266E+03  0.00000000000E+00 0. -1.
         -2    1    1    2    0  501  0.19462641545E+03 -0.22254033833E+02 -0.19472209867E+03  0.27620894144E+03  0.25500000000E-02 0.  1.
<mgrwt>
<rscale>  0 0.19589457E+03</rscale>
<asrwt>0</asrwt>
<pdfrwt beam="1">  1       11 0.10000000E+01 0.20347114E+03</pdfrwt>
<pdfrwt beam="2">  1       -2 0.37887715E-01 0.19589457E+03</pdfrwt>
<totfact> 0.53317191E+01</totfact>
</mgrwt>
</event>
<event>
 5    1  0.2804411E-003  0.3764166E+03  0.7818608E-02  0.1052266E+00
         11   -1    0    0    0    0  0.00000000000E+00  0.00000000000E+00  0.10004898017E+04  0.10004898017E+04  0.51100000000E-03 0. -1.
          2   -1    0    0  501    0 -0.00000000000E+00 -0.00000000000E+00 -0.34467135575E+03  0.34467135576E+03  0.25500000000E-02 0. -1.
         11    1    1    2    0    0  0.26337324746E+03  0.13287471976E+03  0.33666810193E+03  0.44762324502E+03  0.51100000000E-03 0. -1.
         22    1    1    2    0    0 -0.16271983774E+02  0.21006427039E+03  0.41382685625E+03  0.46437532461E+03  0.00000000000E+00 0. -1.
          2    1    1    2  501    0 -0.24710126368E+03 -0.34293899015E+03 -0.94676512271E+02  0.43316258779E+03  0.25500000000E-02 0. -1.
<mgrwt>
<rscale>  0 0.37641659E+03</rscale>
<asrwt>0</asrwt>
<pdfrwt beam="1">  1       11 0.10000000E+01 0.21069356E+03</pdfrwt>
<pdfrwt beam="2">  1        2 0.53052333E-01 0.37641659E+03</pdfrwt>
<totfact> 0.11655918E+02</totfact>
</mgrwt>
</event>
<event>
 5    1  0.2804411E-003  0.3684079E+03  0.7818608E-02  0.1055303E+00
         11   -1    0    0    0    0  0.00000000000E+00  0.00000000000E+00  0.99994203748E+03  0.99994203748E+03  0.51100000000E-03 0.  1.
          2   -1    0    0  501    0 -0.00000000000E+00 -0.00000000000E+00 -0.92778127188E+03  0.92778127189E+03  0.25500000000E-02 0.  1.
         11    1    1    2    0    0 -0.23230491900E+03  0.10304787805E+03  0.65027114478E+03  0.69816688713E+03  0.51100000000E-03 0.  1.
         22    1    1    2    0    0 -0.14358025397E+03 -0.13387052924E+03  0.25102825571E+03  0.31867192078E+03  0.00000000000E+00 0.  1.
          2    1    1    2  501    0  0.37588517298E+03  0.30822651188E+02 -0.82913863490E+03  0.91088450145E+03  0.25500000000E-02 0.  1.
<mgrwt>
<rscale>  0 0.36840786E+03</rscale>
<asrwt>0</asrwt>
<pdfrwt beam="1">  1       11 0.10000000E+01 0.19630743E+03</pdfrwt>
<pdfrwt beam="2">  1        2 0.14272730E+00 0.36840786E+03</pdfrwt>
<totfact> 0.35970916E+01</totfact>
</mgrwt>
</event>
<event>
 5    1  0.2804411E-003  0.1782012E+03  0.7818608E-02  0.1169555E+00
         11   -1    0    0    0    0  0.00000000000E+00  0.00000000000E+00  0.10001915044E+04  0.10001915044E+04  0.51100000000E-03 0. -1.
          2   -1    0    0  501    0 -0.00000000000E+00 -0.00000000000E+00 -0.10437720487E+03  0.10437720490E+03  0.25500000000E-02 0. -1.
         11    1    1    2    0    0  0.64337266572E+02  0.18311936513E+02  0.26484237007E+03  0.27315946235E+03  0.51100000000E-03 0. -1.
         22    1    1    2    0    0  0.33391106107E+02 -0.17002654288E+03  0.62742090683E+03  0.65090781650E+03  0.00000000000E+00 0. -1.
          2    1    1    2  501    0 -0.97728372680E+02  0.15171460636E+03  0.35510225854E+01  0.18050143040E+03  0.25500000000E-02 0. -1.
<mgrwt>
<rscale>  0 0.17820124E+03</rscale>
<asrwt>0</asrwt>
<pdfrwt beam="1">  1       11 0.10000000E+01 0.66892532E+02</pdfrwt>
<pdfrwt beam="2">  1        2 0.16061106E-01 0.17820124E+03</pdfrwt>
<totfact> 0.43652436E+02</totfact>
</mgrwt>
</event>
<event>
 5    1  0.2804411E-003  0.1155162E+03  0.7818608E-02  0.1255687E+00
         11   -1    0    0    0    0  0.00000000000E+00  0.00000000000E+00  0.10003393295E+04  0.10003393295E+04  0.51100000000E-03 0.  1.
          2   -1    0    0  501    0 -0.00000000000E+00 -0.00000000000E+00 -0.20887410039E+02  0.20887410195E+02  0.25500000000E-02 0.  1.
         11    1    1    2    0    0  0.12850525101E+02  0.17755204496E+02  0.45803155787E+02  0.50777085012E+02  0.51100000000E-03 0.  1.
         22    1    1    2    0    0  0.14439251052E+02  0.91569656514E+02  0.13423352491E+03  0.16313225670E+03  0.00000000000E+00 0.  1.
          2    1    1    2  501    0 -0.27289776153E+02 -0.10932486101E+03  0.79941523876E+03  0.80731739798E+03  0.25500000000E-02 0.  1.
<mgrwt>
<rscale>  0 0.11267944E+03</rscale>
<asrwt>0</asrwt>
<pdfrwt beam="1">  1       11 0.10000000E+01 0.11551623E+03</pdfrwt>
<pdfrwt beam="2">  1        2 0.32145380E-02 0.11267944E+03</pdfrwt>
<totfact> 0.32270139E+03</totfact>
</mgrwt>
</event>
<event>
 5    1  0.2804411E-003  0.6825574E+03  0.7818608E-02  0.9754916E-01
         11   -1    0    0    0    0  0.00000000000E+00  0.00000000000E+00  0.10000148669E+04  0.10000148669E+04  0.51100000000E-03 0. -1.
          2   -1    0    0  501    0 -0.00000000000E+00 -0.00000000000E+00 -0.62553821362E+03  0.62553821362E+03  0.25500000000E-02 0. -1.
         11    1    1    2    0    0 -0.19045195346E+02 -0.30420790019E+02 -0.30700319997E+01  0.36021785462E+02  0.51100000000E-03 0. -1.
         22    1    1    2    0    0 -0.85095837500E+02 -0.63992972073E+03 -0.22352335886E+03  0.68316472464E+03  0.00000000000E+00 0. -1.
          2    1    1    2  501    0  0.10414103285E+03  0.67035051075E+03  0.60107004410E+03  0.90636657039E+03  0.25500000000E-02 0. -1.
<mgrwt>
<rscale>  0 0.67839160E+03</rscale>
<asrwt>0</asrwt>
<pdfrwt beam="1">  1       11 0.10000000E+01 0.68255745E+03</pdfrwt>
<pdfrwt beam="2">  1        2 0.96238076E-01 0.67839160E+03</pdfrwt>
<totfact> 0.58553000E+01</totfact>
</mgrwt>
</event>
<event>
 5    1  0.2804411E-003  0.1115536E+03  0.7818608E-02  0.1261652E+00
         11   -1    0    0    0    0  0.00000000000E+00  0.00000000000E+00  0.10002332780E+04  0.10002332780E+04  0.51100000000E-03 0. -1.
          2   -1    0    0  501    0 -0.00000000000E+00 -0.00000000000E+00 -0.12393918254E+02  0.12393918516E+02  0.25500000000E-02 0. -1.
         11    1    1    2    0    0 -0.11742365242E+02 -0.37308946570E+02  0.13772123407E+03  0.14316766028E+03  0.51100000000E-03 0. -1.
         22    1    1    2    0    0  0.54517737852E+01 -0.71927672198E+02  0.29826426311E+03  0.30686297025E+03  0.00000000000E+00 0. -1.
          2    1    1    2  501    0  0.62905914566E+01  0.10923661877E+03  0.55185386262E+03  0.56259656603E+03  0.25500000000E-02 0. -1.
<mgrwt>
<rscale>  0 0.10941760E+03</rscale>
<asrwt>0</asrwt>
<pdfrwt beam="1">  1       11 0.10000000E+01 0.11155364E+03</pdfrwt>
<pdfrwt beam="2">  1        2 0.19072014E-02 0.10941760E+03</pdfrwt>
<totfact> 0.64950144E+03</totfact>
</mgrwt>
</event>
<event>
 5    1  0.2804411E-003  0.1219907E+03  0.7818608E-02  0.1717467E+00
         11   -1    0    0    0    0  0.00000000000E+00  0.00000000000E+00  0.10004531453E+04  0.10004531454E+04  0.51100000000E-03 0.  1.
          2   -1    0    0  501    0 -0.00000000000E+00 -0.00000000000E+00 -0.91502392072E+02  0.91502392107E+02  0.25500000000E-02 0.  1.
         11    1    1    2    0    0 -0.10872794761E+03 -0.15287767981E+02  0.33579001369E+03  0.35328517621E+03  0.51100000000E-03 0.  1.
         22    1    1    2    0    0  0.13019650454E+03  0.15869108900E+02  0.64782994914E+03  0.66097397938E+03  0.00000000000E+00 0.  1.
          2    1    1    2  501    0 -0.21468556929E+02 -0.58134091973E+00 -0.74669209548E+02  0.77696381865E+02  0.25500000000E-02 0.  1.
<mgrwt>
<rscale>  0 0.21476427E+02</rscale>
<asrwt>0</asrwt>
<pdfrwt beam="1">  1       11 0.10000000E+01 0.12199073E+03</pdfrwt>
<pdfrwt beam="2">  1        2 0.14083670E-01 0.21476427E+02</pdfrwt>
<totfact> 0.45088892E+02</totfact>
</mgrwt>
</event>
<event>
 5    1  0.2804411E-003  0.8401107E+02  0.7818608E-02  0.1350567E+00
         11   -1    0    0    0    0  0.00000000000E+00  0.00000000000E+00  0.10002841021E+04  0.10002841021E+04  0.51100000000E-03 0. -1.
          2   -1    0    0  501    0 -0.00000000000E+00 -0.00000000000E+00 -0.16364676777E+03  0.16364676779E+03  0.25500000000E-02 0.  1.
         11    1    1    2    0    0  0.54872015065E+01  0.81558205785E+02  0.38612075094E+03  0.39467845725E+03  0.51100000000E-03 0. -1.
         22    1    1    2    0    0  0.67051442556E+02 -0.74518937440E+02  0.59715038567E+03  0.60550602895E+03  0.00000000000E+00 0. -1.
          2    1    1    2  501    0 -0.72538644062E+02 -0.70392683448E+01 -0.14663380231E+03  0.16374638367E+03  0.25500000000E-02 0.  1.
<mgrwt>
<rscale>  0 0.72879395E+02</rscale>
<asrwt>0</asrwt>
<pdfrwt beam="1">  1       11 0.10000000E+01 0.84011074E+02</pdfrwt>
<pdfrwt beam="2">  1        2 0.25183578E-01 0.72879395E+02</pdfrwt>
<totfact> 0.25526008E+02</totfact>
</mgrwt>
</event>
<event>
 5    1  0.2804411E-003  0.1194983E+03  0.7818608E-02  0.1331693E+00
         11   -1    0    0    0    0  0.00000000000E+00  0.00000000000E+00  0.99996165847E+03  0.99996165847E+03  0.51100000000E-03 0.  1.
          2   -1    0    0  501    0 -0.00000000000E+00 -0.00000000000E+00 -0.39225003097E+02  0.39225003180E+02  0.25500000000E-02 0. -1.
         11    1    1    2    0    0 -0.61696642541E+02 -0.11659414348E+03  0.58334063293E+03  0.59806936389E+03  0.51100000000E-03 0.  1.
         22    1    1    2    0    0 -0.17370689568E+02  0.11539968687E+03  0.32736279870E+03  0.34754169614E+03  0.00000000000E+00 0. -1.
          2    1    1    2  501    0  0.79067332108E+02  0.11944566080E+01  0.50033223738E+02  0.93575601614E+02  0.25500000000E-02 0. -1.
<mgrwt>
<rscale>  0 0.79076354E+02</rscale>
<asrwt>0</asrwt>
<pdfrwt beam="1">  1       11 0.10000000E+01 0.11949826E+03</pdfrwt>
<pdfrwt beam="2">  1        2 0.60343843E-02 0.79076354E+02</pdfrwt>
<totfact> 0.13749441E+03</totfact>
</mgrwt>
</event>
<event>
 5    1  0.2804411E-003  0.3215667E+03  0.7818608E-02  0.1272284E+00
         11   -1    0    0    0    0  0.00000000000E+00  0.00000000000E+00  0.10000389410E+04  0.10000389410E+04  0.51100000000E-03 0.  1.
          2   -1    0    0  501    0 -0.00000000000E+00 -0.00000000000E+00 -0.40776075270E+03  0.40776075271E+03  0.25500000000E-02 0.  1.
         11    1    1    2    0    0  0.30758410398E+03 -0.16192882566E+03  0.25864656778E+03  0.43327470804E+03  0.51100000000E-03 0.  1.
         22    1    1    2    0    0 -0.22290600022E+03  0.22215070691E+03  0.60609131598E+03  0.68292364495E+03  0.00000000000E+00 0.  1.
          2    1    1    2  501    0 -0.84678103756E+02 -0.60221881248E+02 -0.27245969548E+03  0.29160134071E+03  0.25500000000E-02 0.  1.
<mgrwt>
<rscale>  0 0.10390888E+03</rscale>
<asrwt>0</asrwt>
<pdfrwt beam="1">  1       11 0.10000000E+01 0.32156666E+03</pdfrwt>
<pdfrwt beam="2">  1        2 0.62734865E-01 0.10390888E+03</pdfrwt>
<totfact> 0.97889862E+01</totfact>
</mgrwt>
</event>
<event>
 5    1  0.2804411E-003  0.2581971E+03  0.7818608E-02  0.1122427E+00
         11   -1    0    0    0    0  0.00000000000E+00  0.00000000000E+00  0.10003643502E+04  0.10003643502E+04  0.51100000000E-03 0. -1.
          2   -1    0    0  501    0 -0.00000000000E+00 -0.00000000000E+00 -0.87834831416E+03  0.87834831416E+03  0.25500000000E-02 0. -1.
         11    1    1    2    0    0 -0.40392066251E+02 -0.39427490138E+02  0.31942934040E+03  0.32437809652E+03  0.51100000000E-03 0. -1.
         22    1    1    2    0    0 -0.19480299873E+03  0.18916982096E+02  0.64782467730E+03  0.67674431881E+03  0.00000000000E+00 0. -1.
          2    1    1    2  501    0  0.23519506498E+03  0.20510508042E+02 -0.84523798167E+03  0.87759024903E+03  0.25500000000E-02 0. -1.
<mgrwt>
<rscale>  0 0.23608769E+03</rscale>
<asrwt>0</asrwt>
<pdfrwt beam="1">  1       11 0.10000000E+01 0.25819713E+03</pdfrwt>
<pdfrwt beam="2">  1        2 0.13517974E+00 0.23608769E+03</pdfrwt>
<totfact> 0.39442050E+01</totfact>
</mgrwt>
</event>
<event>
 5    1  0.2804411E-003  0.3286002E+03  0.7818608E-02  0.1073010E+00
         11   -1    0    0    0    0  0.00000000000E+00  0.00000000000E+00  0.10002372812E+04  0.10002372812E+04  0.51100000000E-03 0. -1.
          2   -1    0    0  501    0 -0.00000000000E+00 -0.00000000000E+00 -0.30002232077E+03  0.30002232078E+03  0.25500000000E-02 0.  1.
         11    1    1    2    0    0  0.19086104408E+03  0.21854351040E+03  0.74975307904E+03  0.80393960197E+03  0.51100000000E-03 0. -1.
         22    1    1    2    0    0  0.13567102440E+02  0.35139867870E+02  0.12230735308E+03  0.12797642439E+03  0.00000000000E+00 0. -1.
          2    1    1    2  501    0 -0.20442814652E+03 -0.25368337827E+03 -0.17184547174E+03  0.36834357557E+03  0.25500000000E-02 0.  1.
<mgrwt>
<rscale>  0 0.32580074E+03</rscale>
<asrwt>0</asrwt>
<pdfrwt beam="1">  1       11 0.10000000E+01 0.32860019E+03</pdfrwt>
<pdfrwt beam="2">  1        2 0.46168231E-01 0.32580074E+03</pdfrwt>
<totfact> 0.13569075E+02</totfact>
</mgrwt>
</event>
<event>
 5    1  0.2804411E-003  0.1481546E+03  0.7818608E-02  0.1202759E+00
         11   -1    0    0    0    0  0.00000000000E+00  0.00000000000E+00  0.99997158585E+03  0.99997158585E+03  0.51100000000E-03 0. -1.
          2   -1    0    0  501    0 -0.00000000000E+00 -0.00000000000E+00 -0.10680156962E+03  0.10680156965E+03  0.25500000000E-02 0. -1.
         11    1    1    2    0    0  0.13418194789E+03  0.79318281706E+01  0.72989602284E+03  0.74216973342E+03  0.51100000000E-03 0. -1.
         22    1    1    2    0    0  0.85911334380E+01  0.36371523897E+02  0.20581394333E+03  0.20917952719E+03  0.00000000000E+00 0.  1.
          2    1    1    2  501    0 -0.14277308133E+03 -0.44303352068E+02 -0.42539949951E+02  0.15542389490E+03  0.25500000000E-02 0. -1.
<mgrwt>
<rscale>  0 0.14815455E+03</rscale>
<asrwt>0</asrwt>
<pdfrwt beam="1">  1       11 0.10000000E+01 0.37372387E+02</pdfrwt>
<pdfrwt beam="2">  1        2 0.16430543E-01 0.14815455E+03</pdfrwt>
<totfact> 0.42215857E+02</totfact>
</mgrwt>
</event>
<event>
 5    1  0.2804411E-003  0.1859332E+03  0.7818608E-02  0.1162181E+00
         11   -1    0    0    0    0  0.00000000000E+00  0.00000000000E+00  0.10000519445E+04  0.10000519445E+04  0.51100000000E-03 0. -1.
          2   -1    0    0  501    0 -0.00000000000E+00 -0.00000000000E+00 -0.40257939311E+02  0.40257939391E+02  0.25500000000E-02 0. -1.
         11    1    1    2    0    0 -0.18032499876E+03  0.57713832529E+02  0.57293275246E+03  0.60340693606E+03  0.51100000000E-03 0. -1.
         22    1    1    2    0    0  0.11026855080E+02  0.14714495345E+02  0.44804307459E+02  0.48430712086E+02  0.00000000000E+00 0.  1.
          2    1    1    2  501    0  0.16929814368E+03 -0.72428327874E+02  0.34205694525E+03  0.38847223573E+03  0.25500000000E-02 0. -1.
<mgrwt>
<rscale>  0 0.18593316E+03</rscale>
<asrwt>0</asrwt>
<pdfrwt beam="1">  1       11 0.10000000E+01 0.18387711E+02</pdfrwt>
<pdfrwt beam="2">  1        2 0.61938507E-02 0.18593316E+03</pdfrwt>
<totfact> 0.14202887E+03</totfact>
</mgrwt>
</event>
<event>
 5    1  0.2804411E-003  0.2439787E+03  0.7818608E-02  0.1120664E+00
         11   -1    0    0    0    0  0.00000000000E+00  0.00000000000E+00  0.10001055159E+04  0.10001055159E+04  0.51100000000E-03 0. -1.
         -2   -1    0    0    0  501 -0.00000000000E+00 -0.00000000000E+00 -0.16538462928E+03  0.16538462930E+03  0.25500000000E-02 0. -1.
         11    1    1    2    0    0 -0.22603721025E+03  0.44667975205E+02  0.85826554018E+03  0.88865504325E+03  0.51100000000E-03 0. -1.
         22    1    1    2    0    0 -0.61015707082E+01  0.10901635140E+02  0.29744633362E+02  0.32261711481E+02  0.00000000000E+00 0. -1.
         -2    1    1    2    0  501  0.23213878096E+03 -0.55569610346E+02 -0.53289286919E+02  0.24457339047E+03  0.25500000000E-02 0. -1.
<mgrwt>
<rscale>  0 0.23869729E+03</rscale>
<asrwt>0</asrwt>
<pdfrwt beam="1">  1       11 0.10000000E+01 0.24397869E+03</pdfrwt>
<pdfrwt beam="2">  1       -2 0.25446473E-01 0.23869729E+03</pdfrwt>
<totfact> 0.11060499E+02</totfact>
</mgrwt>
</event>
<event>
 5    1  0.2804411E-003  0.3744119E+03  0.7818608E-02  0.1056679E+00
         11   -1    0    0    0    0  0.00000000000E+00  0.00000000000E+00  0.10002681061E+04  0.10002681061E+04  0.51100000000E-03 0.  1.
          2   -1    0    0  501    0 -0.00000000000E+00 -0.00000000000E+00 -0.84903611634E+03  0.84903611634E+03  0.25500000000E-02 0.  1.
         11    1    1    2    0    0  0.82244330986E+02  0.23921918622E+03  0.65984743365E+03  0.70667431305E+03  0.51100000000E-03 0.  1.
         22    1    1    2    0    0 -0.15122661764E+02  0.11940436670E+03  0.26292943258E+03  0.28916774406E+03  0.00000000000E+00 0.  1.
          2    1    1    2  501    0 -0.67121669222E+02 -0.35862355292E+03 -0.77154487648E+03  0.85346216531E+03  0.25500000000E-02 0.  1.
<mgrwt>
<rscale>  0 0.36485089E+03</rscale>
<asrwt>0</asrwt>
<pdfrwt beam="1">  1       11 0.10000000E+01 0.37441188E+03</pdfrwt>
<pdfrwt beam="2">  1        2 0.13065596E+00 0.36485089E+03</pdfrwt>
<totfact> 0.40550741E+01</totfact>
</mgrwt>
</event>
<event>
 5    1  0.2804411E-003  0.1586209E+03  0.7818608E-02  0.1190263E+00
         11   -1    0    0    0    0  0.00000000000E+00  0.00000000000E+00  0.99997331666E+03  0.99997331666E+03  0.51100000000E-03 0.  1.
         -2   -1    0    0    0  501 -0.00000000000E+00 -0.00000000000E+00 -0.94076526972E+02  0.94076527006E+02  0.25500000000E-02 0. -1.
         11    1    1    2    0    0 -0.84760700817E+02  0.50076330060E+01  0.18484947846E+03  0.20341775359E+03  0.51100000000E-03 0.  1.
         22    1    1    2    0    0  0.49171055489E+02 -0.16084804870E+03  0.71082459263E+03  0.73045293412E+03  0.00000000000E+00 0.  1.
         -2    1    1    2    0  501  0.35589645328E+02  0.15584041569E+03  0.10222718592E+02  0.16017915595E+03  0.25500000000E-02 0. -1.
<mgrwt>
<rscale>  0 0.15862092E+03</rscale>
<asrwt>0</asrwt>
<pdfrwt beam="1">  1       11 0.10000000E+01 0.84908497E+02</pdfrwt>
<pdfrwt beam="2">  1       -2 0.14472925E-01 0.15862092E+03</pdfrwt>
<totfact> 0.28475458E+02</totfact>
</mgrwt>
</event>
<event>
 5    1  0.2804411E-003  0.8136259E+02  0.7818608E-02  0.1325228E+00
         11   -1    0    0    0    0  0.00000000000E+00  0.00000000000E+00  0.10001524054E+04  0.10001524054E+04  0.51100000000E-03 0.  1.
          2   -1    0    0  501    0 -0.00000000000E+00 -0.00000000000E+00 -0.10656937050E+02  0.10656937355E+02  0.25500000000E-02 0.  1.
         11    1    1    2    0    0 -0.61738375577E+02  0.46903938995E+02  0.38807299134E+03  0.39574266022E+03  0.51100000000E-03 0.  1.
         22    1    1    2    0    0  0.20990442055E+02  0.32899797462E+02  0.19870743847E+03  0.20250343562E+03  0.00000000000E+00 0.  1.
          2    1    1    2  501    0  0.40747933523E+02 -0.79803736457E+02  0.40271503858E+03  0.41256324696E+03  0.25500000000E-02 0.  1.
<mgrwt>
<rscale>  0 0.81362586E+02</rscale>
<asrwt>0</asrwt>
<pdfrwt beam="1">  1       11 0.10000000E+01 0.39025573E+02</pdfrwt>
<pdfrwt beam="2">  1        2 0.16397786E-02 0.81362586E+02</pdfrwt>
<totfact> 0.76607608E+03</totfact>
</mgrwt>
</event>
<event>
 5    1  0.2804411E-003  0.1752327E+03  0.7818608E-02  0.1194552E+00
         11   -1    0    0    0    0  0.00000000000E+00  0.00000000000E+00  0.99995326150E+03  0.99995326150E+03  0.51100000000E-03 0. -1.
          2   -1    0    0  501    0 -0.00000000000E+00 -0.00000000000E+00 -0.44932694715E+02  0.44932694788E+02  0.25500000000E-02 0. -1.
         11    1    1    2    0    0  0.60094954536E+02  0.63463009970E+02  0.41154249887E+03  0.42072103058E+03  0.51100000000E-03 0. -1.
         22    1    1    2    0    0  0.86711533212E+02 -0.13977606634E+02  0.41113213187E+03  0.42040919749E+03  0.00000000000E+00 0. -1.
          2    1    1    2  501    0 -0.14680648775E+03 -0.49485403336E+02  0.13234593605E+03  0.20375572822E+03  0.25500000000E-02 0. -1.
<mgrwt>
<rscale>  0 0.15492240E+03</rscale>
<asrwt>0</asrwt>
<pdfrwt beam="1">  1       11 0.10000000E+01 0.17523274E+03</pdfrwt>
<pdfrwt beam="2">  1        2 0.69123990E-02 0.15492240E+03</pdfrwt>
<totfact> 0.12180125E+03</totfact>
</mgrwt>
</event>
<event>
 5    1  0.2804411E-003  0.1335191E+03  0.7818608E-02  0.1372816E+00
         11   -1    0    0    0    0  0.00000000000E+00  0.00000000000E+00  0.10005505586E+04  0.10005505586E+04  0.51100000000E-03 0. -1.
          2   -1    0    0  501    0 -0.00000000000E+00 -0.00000000000E+00 -0.45393148823E+02  0.45393148894E+02  0.25500000000E-02 0. -1.
         11    1    1    2    0    0  0.43488123210E+02 -0.10130436830E+03  0.32553084464E+03  0.34369190085E+03  0.51100000000E-03 0. -1.
         22    1    1    2    0    0 -0.10493724704E+03  0.12643795062E+03  0.61184122045E+03  0.63352037080E+03  0.00000000000E+00 0. -1.
          2    1    1    2  501    0  0.61449123825E+02 -0.25133582321E+02  0.17785344660E+02  0.68731435824E+02  0.25500000000E-02 0. -1.
<mgrwt>
<rscale>  0 0.66390450E+02</rscale>
<asrwt>0</asrwt>
<pdfrwt beam="1">  1       11 0.10000000E+01 0.13351909E+03</pdfrwt>
<pdfrwt beam="2">  1        2 0.69874060E-02 0.66390450E+02</pdfrwt>
<totfact> 0.11270065E+03</totfact>
</mgrwt>
</event>
<event>
 5    1  0.2804411E-003  0.1319743E+03  0.7818608E-02  0.1224555E+00
         11   -1    0    0    0    0  0.00000000000E+00  0.00000000000E+00  0.10001590050E+04  0.10001590050E+04  0.51100000000E-03 0. -1.
          2   -1    0    0  501    0 -0.00000000000E+00 -0.00000000000E+00 -0.27593913905E+02  0.27593914023E+02  0.25500000000E-02 0. -1.
         11    1    1    2    0    0 -0.46343502226E+02  0.35523073889E+02  0.13513555285E+03  0.14721150302E+03  0.51100000000E-03 0. -1.
         22    1    1    2    0    0  0.14337906192E+03 -0.63638693180E+02  0.36250141573E+03  0.39498698089E+03  0.00000000000E+00 0. -1.
          2    1    1    2  501    0 -0.97035559699E+02  0.28115619291E+02  0.47492812252E+03  0.48555443512E+03  0.25500000000E-02 0. -1.
<mgrwt>
<rscale>  0 0.13197432E+03</rscale>
<asrwt>0</asrwt>
<pdfrwt beam="1">  1       11 0.10000000E+01 0.58391886E+02</pdfrwt>
<pdfrwt beam="2">  1        2 0.42458924E-02 0.13197432E+03</pdfrwt>
<totfact> 0.22656705E+03</totfact>
</mgrwt>
</event>
<event>
 5    1  0.2804411E-003  0.1087113E+03  0.7818608E-02  0.1268420E+00
         11   -1    0    0    0    0  0.00000000000E+00  0.00000000000E+00  0.10001575431E+04  0.10001575431E+04  0.51100000000E-03 0.  1.
          2   -1    0    0  501    0 -0.00000000000E+00 -0.00000000000E+00 -0.11863559096E+02  0.11863559370E+02  0.25500000000E-02 0.  1.
         11    1    1    2    0    0  0.69015615192E+02  0.63580452585E+01  0.37392146705E+03  0.38029047240E+03  0.51100000000E-03 0.  1.
         22    1    1    2    0    0  0.33193612126E+02  0.21231444393E+02  0.21402507711E+03  0.21762197441E+03  0.00000000000E+00 0. -1.
          2    1    1    2  501    0 -0.10220922732E+03 -0.27589489651E+02  0.40034743987E+03  0.41410865567E+03  0.25500000000E-02 0.  1.
<mgrwt>
<rscale>  0 0.10586740E+03</rscale>
<asrwt>0</asrwt>
<pdfrwt beam="1">  1       11 0.10000000E+01 0.10871134E+03</pdfrwt>
<pdfrwt beam="2">  1        2 0.18254504E-02 0.10586740E+03</pdfrwt>
<totfact> 0.68641355E+03</totfact>
</mgrwt>
</event>
<event>
 5    1  0.2804411E-003  0.3150160E+03  0.7818608E-02  0.1082538E+00
         11   -1    0    0    0    0  0.00000000000E+00  0.00000000000E+00  0.10002790453E+04  0.10002790453E+04  0.51100000000E-03 0.  1.
         -2   -1    0    0    0  501 -0.00000000000E+00 -0.00000000000E+00 -0.14239207004E+03  0.14239207006E+03  0.25500000000E-02 0. -1.
         11    1    1    2    0    0  0.40059200467E+01  0.25388936602E+03  0.54223229352E+03  0.59874177882E+03  0.51100000000E-03 0.  1.
         22    1    1    2    0    0  0.12055276136E+02  0.51157990017E+02  0.21647165338E+03  0.22276096234E+03  0.00000000000E+00 0.  1.
         -2    1    1    2    0  501 -0.16061196183E+02 -0.30504735603E+03  0.99183028326E+02  0.32116837416E+03  0.25500000000E-02 0. -1.
<mgrwt>
<rscale>  0 0.30546989E+03</rscale>
<asrwt>0</asrwt>
<pdfrwt beam="1">  1       11 0.10000000E+01 0.31501599E+03</pdfrwt>
<pdfrwt beam="2">  1       -2 0.21912585E-01 0.30546989E+03</pdfrwt>
<totfact> 0.14455202E+02</totfact>
</mgrwt>
</event>
<event>
 5    1  0.2804411E-003  0.3842840E+02  0.7818608E-02  0.1520106E+00
         11   -1    0    0    0    0  0.00000000000E+00  0.00000000000E+00  0.99986640316E+03  0.99986640316E+03  0.51100000000E-03 0. -1.
          2   -1    0    0  501    0 -0.00000000000E+00 -0.00000000000E+00 -0.53764601858E+01  0.53764607905E+01  0.25500000000E-02 0. -1.
         11    1    1    2    0    0 -0.20514078530E+02 -0.19960597270E+02  0.12779414888E+03  0.13096028921E+03  0.51100000000E-03 0. -1.
         22    1    1    2    0    0 -0.34708213460E+02  0.10949117664E+02  0.11766651227E+03  0.12316635648E+03  0.00000000000E+00 0. -1.
          2    1    1    2  501    0  0.55222291990E+02  0.90114796058E+01  0.74902928182E+03  0.75111621826E+03  0.25500000000E-02 0. -1.
<mgrwt>
<rscale>  0 0.38428397E+02</rscale>
<asrwt>0</asrwt>
<pdfrwt beam="1">  1       11 0.10000000E+01 0.28622608E+02</pdfrwt>
<pdfrwt beam="2">  1        2 0.82703724E-03 0.38428397E+02</pdfrwt>
<totfact> 0.16890968E+04</totfact>
</mgrwt>
</event>
<event>
 5    1  0.2804411E-003  0.8333735E+02  0.7818608E-02  0.1319839E+00
         11   -1    0    0    0    0  0.00000000000E+00  0.00000000000E+00  0.10001881218E+04  0.10001881218E+04  0.51100000000E-03 0. -1.
          2   -1    0    0  501    0 -0.00000000000E+00 -0.00000000000E+00 -0.10012088368E+02  0.10012088692E+02  0.25500000000E-02 0.  1.
         11    1    1    2    0    0  0.18629601388E+02 -0.23375745563E+02  0.13739923065E+03  0.14061307233E+03  0.51100000000E-03 0. -1.
         22    1    1    2    0    0 -0.10980001441E+02  0.96188628759E+02  0.46862404695E+03  0.47851991611E+03  0.00000000000E+00 0. -1.
          2    1    1    2  501    0 -0.76495999467E+01 -0.72812883196E+02  0.38415275585E+03  0.39106722206E+03  0.25500000000E-02 0.  1.
<mgrwt>
<rscale>  0 0.83337354E+02</rscale>
<asrwt>0</asrwt>
<pdfrwt beam="1">  1       11 0.10000000E+01 0.29891277E+02</pdfrwt>
<pdfrwt beam="2">  1        2 0.15406110E-02 0.83337354E+02</pdfrwt>
<totfact> 0.83638401E+03</totfact>
</mgrwt>
</event>
<event>
 5    1  0.2804411E-003  0.8506130E+02  0.7818608E-02  0.1320067E+00
         11   -1    0    0    0    0  0.00000000000E+00  0.00000000000E+00  0.10005677737E+04  0.10005677737E+04  0.51100000000E-03 0.  1.
          2   -1    0    0  501    0 -0.00000000000E+00 -0.00000000000E+00 -0.74547762847E+01  0.74547767208E+01  0.25500000000E-02 0.  1.
         11    1    1    2    0    0 -0.36014733725E+02 -0.48662714425E+02  0.29719685882E+03  0.30330033583E+03  0.51100000000E-03 0.  1.
         22    1    1    2    0    0 -0.20480456547E+02 -0.12486830185E+02  0.91178200916E+02  0.94280614925E+02  0.00000000000E+00 0.  1.
          2    1    1    2  501    0  0.56495190272E+02  0.61149544609E+02  0.60473793765E+03  0.61044159964E+03  0.25500000000E-02 0.  1.
<mgrwt>
<rscale>  0 0.83252467E+02</rscale>
<asrwt>0</asrwt>
<pdfrwt beam="1">  1       11 0.10000000E+01 0.85061304E+02</pdfrwt>
<pdfrwt beam="2">  1        2 0.11475398E-02 0.83252467E+02</pdfrwt>
<totfact> 0.12477809E+04</totfact>
</mgrwt>
</event>
<event>
 5    1  0.2804411E-003  0.3604424E+02  0.7818608E-02  0.1553190E+00
         11   -1    0    0    0    0  0.00000000000E+00  0.00000000000E+00  0.99967571585E+03  0.99967571585E+03  0.51100000000E-03 0.  1.
          2   -1    0    0  501    0 -0.00000000000E+00 -0.00000000000E+00 -0.49728071821E+01  0.49728078359E+01  0.25500000000E-02 0.  1.
         11    1    1    2    0    0 -0.12646322661E+01  0.25425759073E+02  0.43093995479E+02  0.50051583050E+02  0.51100000000E-03 0.  1.
         22    1    1    2    0    0  0.56557961720E+01  0.87820341193E+01  0.22056476189E+02  0.24404923591E+02  0.00000000000E+00 0.  1.
          2    1    1    2  501    0 -0.43911639059E+01 -0.34207793192E+02  0.92955243700E+03  0.93019201704E+03  0.25500000000E-02 0.  1.
<mgrwt>
<rscale>  0 0.34488483E+02</rscale>
<asrwt>0</asrwt>
<pdfrwt beam="1">  1       11 0.10000000E+01 0.36044243E+02</pdfrwt>
<pdfrwt beam="2">  1        2 0.76479919E-03 0.34488483E+02</pdfrwt>
<totfact> 0.18323160E+04</totfact>
</mgrwt>
</event>
<event>
 5    1  0.2804411E-003  0.1592534E+03  0.7818608E-02  0.1189542E+00
         11   -1    0    0    0    0  0.00000000000E+00  0.00000000000E+00  0.10001243437E+04  0.10001243437E+04  0.51100000000E-03 0. -1.
         -2   -1    0    0    0  501 -0.00000000000E+00 -0.00000000000E+00 -0.90056687608E+02  0.90056687644E+02  0.25500000000E-02 0.  1.
         11    1    1    2    0    0  0.15388505281E+03  0.36217742769E+02  0.79180528149E+03  0.80743293106E+03  0.51100000000E-03 0. -1.
         22    1    1    2    0    0  0.58996943213E+01 -0.42274110292E+02  0.11516291345E+03  0.12281857933E+03  0.00000000000E+00 0. -1.
         -2    1    1    2    0  501 -0.15978474713E+03  0.60563675239E+01  0.30994611459E+01  0.15992952094E+03  0.25500000000E-02 0.  1.
<mgrwt>
<rscale>  0 0.15925341E+03</rscale>
<asrwt>0</asrwt>
<pdfrwt beam="1">  1       11 0.10000000E+01 0.42683800E+02</pdfrwt>
<pdfrwt beam="2">  1       -2 0.13856597E-01 0.15925341E+03</pdfrwt>
<totfact> 0.30574183E+02</totfact>
</mgrwt>
</event>
<event>
 5    1  0.2804411E-003  0.7003038E+02  0.7818608E-02  0.1359990E+00
         11   -1    0    0    0    0  0.00000000000E+00  0.00000000000E+00  0.10003765277E+04  0.10003765277E+04  0.51100000000E-03 0. -1.
          2   -1    0    0  501    0 -0.00000000000E+00 -0.00000000000E+00 -0.92839375692E+01  0.92839379194E+01  0.25500000000E-02 0. -1.
         11    1    1    2    0    0 -0.59194133514E+00 -0.16506321696E+02  0.13900275214E+02  0.21587651603E+02  0.51100000000E-03 0. -1.
         22    1    1    2    0    0  0.52144742890E+02  0.53045260164E+02  0.35680979235E+03  0.36448059174E+03  0.00000000000E+00 0. -1.
          2    1    1    2  501    0 -0.51552801555E+02 -0.36538938469E+02  0.62038252254E+03  0.62359222225E+03  0.25500000000E-02 0. -1.
<mgrwt>
<rscale>  0 0.70030376E+02</rscale>
<asrwt>0</asrwt>
<pdfrwt beam="1">  1       11 0.10000000E+01 0.16516941E+02</pdfrwt>
<pdfrwt beam="2">  1        2 0.14288359E-02 0.70030376E+02</pdfrwt>
<totfact> 0.90247612E+03</totfact>
</mgrwt>
</event>
<event>
 5    1  0.2804411E-003  0.2260540E+03  0.7818608E-02  0.1131030E+00
         11   -1    0    0    0    0  0.00000000000E+00  0.00000000000E+00  0.10001106444E+04  0.10001106444E+04  0.51100000000E-03 0. -1.
          2   -1    0    0  501    0 -0.00000000000E+00 -0.00000000000E+00 -0.53558006933E+02  0.53558006993E+02  0.25500000000E-02 0. -1.
         11    1    1    2    0    0  0.19297539681E+03  0.49491997843E+02  0.51874924661E+03  0.55568853010E+03  0.51100000000E-03 0. -1.
         22    1    1    2    0    0  0.26265572990E+02 -0.41998735164E+01  0.80456980870E+02  0.84739866844E+02  0.00000000000E+00 0. -1.
          2    1    1    2  501    0 -0.21924096980E+03 -0.45292124327E+02  0.34734641004E+03  0.41324025450E+03  0.25500000000E-02 0. -1.
<mgrwt>
<rscale>  0 0.22387045E+03</rscale>
<asrwt>0</asrwt>
<pdfrwt beam="1">  1       11 0.10000000E+01 0.22605404E+03</pdfrwt>
<pdfrwt beam="2">  1        2 0.82406048E-02 0.22387045E+03</pdfrwt>
<totfact> 0.99614155E+02</totfact>
</mgrwt>
</event>
<event>
 5    1  0.2804411E-003  0.1004435E+03  0.7818608E-02  0.1283448E+00
         11   -1    0    0    0    0  0.00000000000E+00  0.00000000000E+00  0.99994739034E+03  0.99994739034E+03  0.51100000000E-03 0. -1.
          2   -1    0    0  501    0 -0.00000000000E+00 -0.00000000000E+00 -0.21251278425E+02  0.21251278578E+02  0.25500000000E-02 0. -1.
         11    1    1    2    0    0  0.80028048926E+02  0.38684613867E+02  0.97720497607E+02  0.13209952164E+03  0.51100000000E-03 0. -1.
         22    1    1    2    0    0  0.67122719200E+01  0.80220285195E+01  0.20616867635E+02  0.23118450791E+02  0.00000000000E+00 0.  1.
          2    1    1    2  501    0 -0.86740320846E+02 -0.46706642387E+02  0.86035874667E+03  0.86598069649E+03  0.25500000000E-02 0. -1.
<mgrwt>
<rscale>  0 0.98515957E+02</rscale>
<asrwt>0</asrwt>
<pdfrwt beam="1">  1       11 0.10000000E+01 0.10044345E+03</pdfrwt>
<pdfrwt beam="2">  1        2 0.32692554E-02 0.98515957E+02</pdfrwt>
<totfact> 0.31110716E+03</totfact>
</mgrwt>
</event>
<event>
 5    1  0.2804411E-003  0.5991081E+02  0.7818608E-02  0.1408151E+00
         11   -1    0    0    0    0  0.00000000000E+00  0.00000000000E+00  0.10001734825E+04  0.10001734825E+04  0.51100000000E-03 0. -1.
         -2   -1    0    0    0  501 -0.00000000000E+00 -0.00000000000E+00 -0.46857968134E+01  0.46857975072E+01  0.25500000000E-02 0.  1.
         11    1    1    2    0    0  0.38781842092E+02  0.27461454536E+02  0.21136082701E+03  0.21663693581E+03  0.51100000000E-03 0. -1.
         22    1    1    2    0    0  0.11756141914E+02  0.19100829337E+00  0.35800488133E+02  0.37681803399E+02  0.00000000000E+00 0. -1.
         -2    1    1    2    0  501 -0.50537984006E+02 -0.27652462829E+02  0.74832637051E+03  0.75054054077E+03  0.25500000000E-02 0.  1.
<mgrwt>
<rscale>  0 0.57608563E+02</rscale>
<asrwt>0</asrwt>
<pdfrwt beam="1">  1       11 0.10000000E+01 0.59910812E+02</pdfrwt>
<pdfrwt beam="2">  1       -2 0.72101691E-03 0.57608563E+02</pdfrwt>
<totfact> 0.21216441E+04</totfact>
</mgrwt>
</event>
<event>
 5    1  0.2804411E-003  0.9682076E+02  0.7818608E-02  0.1356316E+00
         11   -1    0    0    0    0  0.00000000000E+00  0.00000000000E+00  0.10000334027E+04  0.10000334027E+04  0.51100000000E-03 0. -1.
          2   -1    0    0  501    0 -0.00000000000E+00 -0.00000000000E+00 -0.16316731532E+02  0.16316731731E+02  0.25500000000E-02 0. -1.
         11    1    1    2    0    0 -0.59555791963E+02  0.68245371657E+02  0.27972276864E+03  0.29402236379E+03  0.51100000000E-03 0. -1.
         22    1    1    2    0    0  0.37578876308E+02  0.36296474011E+02  0.17397974466E+03  0.18165505091E+03  0.00000000000E+00 0.  1.
          2    1    1    2  501    0  0.21976915655E+02 -0.10454184567E+03  0.53001415784E+03  0.54067271971E+03  0.25500000000E-02 0. -1.
<mgrwt>
<rscale>  0 0.71122845E+02</rscale>
<asrwt>0</asrwt>
<pdfrwt beam="1">  1       11 0.10000000E+01 0.96820759E+02</pdfrwt>
<pdfrwt beam="2">  1        2 0.25103502E-02 0.71122845E+02</pdfrwt>
<totfact> 0.42521687E+03</totfact>
</mgrwt>
</event>
<event>
 5    1  0.2804411E-003  0.2977516E+02  0.7818608E-02  0.1621302E+00
         11   -1    0    0    0    0  0.00000000000E+00  0.00000000000E+00  0.10002572107E+04  0.10002572107E+04  0.51100000000E-03 0. -1.
          2   -1    0    0  501    0 -0.00000000000E+00 -0.00000000000E+00 -0.16269307640E+01  0.16269327624E+01  0.25500000000E-02 0. -1.
         11    1    1    2    0    0  0.13027998546E+02 -0.10281626628E+02  0.84350085678E+02  0.85967305101E+02  0.51100000000E-03 0. -1.
         22    1    1    2    0    0  0.27336145308E+01 -0.12861548106E+02  0.73258998507E+02  0.74429650881E+02  0.00000000000E+00 0.  1.
          2    1    1    2  501    0 -0.15761613077E+02  0.23143174734E+02  0.84102119574E+03  0.84148718747E+03  0.25500000000E-02 0. -1.
<mgrwt>
<rscale>  0 0.28000625E+02</rscale>
<asrwt>0</asrwt>
<pdfrwt beam="1">  1       11 0.10000000E+01 0.29775159E+02</pdfrwt>
<pdfrwt beam="2">  1        2 0.25036157E-03 0.28000625E+02</pdfrwt>
<totfact> 0.76690603E+04</totfact>
</mgrwt>
</event>
<event>
 5    1  0.2804411E-003  0.1259524E+03  0.7818608E-02  0.1742872E+00
         11   -1    0    0    0    0  0.00000000000E+00  0.00000000000E+00  0.10003811966E+04  0.10003811966E+04  0.51100000000E-03 0. -1.
         -2   -1    0    0    0  501 -0.00000000000E+00 -0.00000000000E+00 -0.22312630312E+03  0.22312630313E+03  0.25500000000E-02 0. -1.
         11    1    1    2    0    0 -0.96358454796E+02 -0.59772356130E+02  0.28301839153E+03  0.30488866216E+03  0.51100000000E-03 0. -1.
         22    1    1    2    0    0  0.11520007884E+03  0.66841450591E+02  0.69965394587E+03  0.71221800149E+03  0.00000000000E+00 0. -1.
         -2    1    1    2    0  501 -0.18841624047E+02 -0.70690944609E+01 -0.20541744388E+03  0.20640083612E+03  0.25500000000E-02 0. -1.
<mgrwt>
<rscale>  0 0.20124088E+02</rscale>
<asrwt>0</asrwt>
<pdfrwt beam="1">  1       11 0.10000000E+01 0.12595238E+03</pdfrwt>
<pdfrwt beam="2">  1       -2 0.34340208E-01 0.20124088E+02</pdfrwt>
<totfact> 0.60817497E+01</totfact>
</mgrwt>
</event>
<event>
 5    1  0.4470805E-003  0.2283296E+03  0.7818608E-02  0.1128605E+00
         11   -1    0    0    0    0  0.00000000000E+00  0.00000000000E+00  0.99988394227E+03  0.99988394227E+03  0.51100000000E-03 0. -1.
          2   -1    0    0  501    0 -0.00000000000E+00 -0.00000000000E+00 -0.42760497648E+03  0.42760497649E+03  0.25500000000E-02 0. -1.
         11    1    1    2    0    0  0.71991307529E+02 -0.20174372222E+03  0.88167364194E+03  0.90732116073E+03  0.51100000000E-03 0. -1.
         22    1    1    2    0    0  0.29746855148E+00 -0.13680863074E+02  0.73587511483E+02  0.74849023696E+02  0.00000000000E+00 0.  1.
          2    1    1    2  501    0 -0.72288776081E+02  0.21542458529E+03 -0.38298218763E+03  0.44531873433E+03  0.25500000000E-02 0. -1.
<mgrwt>
<rscale>  0 0.22722988E+03</rscale>
<asrwt>0</asrwt>
<pdfrwt beam="1">  1       11 0.10000000E+01 0.22832959E+03</pdfrwt>
<pdfrwt beam="2">  1        2 0.65777744E-01 0.22722988E+03</pdfrwt>
<totfact> 0.92448758E+01</totfact>
</mgrwt>
</event>
<event>
 5    1  0.2804411E-003  0.1114314E+03  0.7818608E-02  0.1262746E+00
         11   -1    0    0    0    0  0.00000000000E+00  0.00000000000E+00  0.10005937852E+04  0.10005937852E+04  0.51100000000E-03 0. -1.
          2   -1    0    0  501    0 -0.00000000000E+00 -0.00000000000E+00 -0.12123272879E+02  0.12123273147E+02  0.25500000000E-02 0. -1.
         11    1    1    2    0    0  0.24063630494E+02  0.95481215953E+02  0.42828377457E+03  0.43945729312E+03  0.51100000000E-03 0. -1.
         22    1    1    2    0    0  0.10100317129E+02  0.78508640526E+01  0.66478391960E+02  0.67698072868E+02  0.00000000000E+00 0.  1.
          2    1    1    2  501    0 -0.34163947623E+02 -0.10333208001E+03  0.49370834583E+03  0.50556169241E+03  0.25500000000E-02 0. -1.
<mgrwt>
<rscale>  0 0.10883333E+03</rscale>
<asrwt>0</asrwt>
<pdfrwt beam="1">  1       11 0.10000000E+01 0.11143143E+03</pdfrwt>
<pdfrwt beam="2">  1        2 0.18662264E-02 0.10883333E+03</pdfrwt>
<totfact> 0.66849059E+03</totfact>
</mgrwt>
</event>
<event>
 5    1  0.2804411E-003  0.5096554E+02  0.7818608E-02  0.1451304E+00
         11   -1    0    0    0    0  0.00000000000E+00  0.00000000000E+00  0.10002453359E+04  0.10002453359E+04  0.51100000000E-03 0.  1.
          2   -1    0    0  501    0 -0.00000000000E+00 -0.00000000000E+00 -0.35251369796E+01  0.35251379019E+01  0.25500000000E-02 0.  1.
         11    1    1    2    0    0 -0.26700634200E+02 -0.25084713041E+02  0.19958905257E+03  0.20292352402E+03  0.51100000000E-03 0.  1.
         22    1    1    2    0    0 -0.10120086488E+02 -0.71106931306E+01  0.34519817959E+02  0.36668732446E+02  0.00000000000E+00 0.  1.
          2    1    1    2  501    0  0.36820720689E+02  0.32195406172E+02  0.76261132840E+03  0.76417821734E+03  0.25500000000E-02 0.  1.
<mgrwt>
<rscale>  0 0.48911243E+02</rscale>
<asrwt>0</asrwt>
<pdfrwt beam="1">  1       11 0.10000000E+01 0.50965538E+02</pdfrwt>
<pdfrwt beam="2">  1        2 0.54246187E-03 0.48911243E+02</pdfrwt>
<totfact> 0.31292972E+04</totfact>
</mgrwt>
</event>
<event>
 5    1  0.2804411E-003  0.2291031E+03  0.7818608E-02  0.1179444E+00
         11   -1    0    0    0    0  0.00000000000E+00  0.00000000000E+00  0.10002030017E+04  0.10002030017E+04  0.51100000000E-03 0. -1.
          2   -1    0    0  501    0 -0.00000000000E+00 -0.00000000000E+00 -0.57390911850E+03  0.57390911850E+03  0.25500000000E-02 0.  1.
         11    1    1    2    0    0 -0.17581797882E+03 -0.10635875479E+03  0.22083659762E+03  0.30165037584E+03  0.51100000000E-03 0. -1.
         22    1    1    2    0    0  0.25978085531E+03 -0.39707437017E+02  0.70122321079E+03  0.74885029525E+03  0.00000000000E+00 0. -1.
          2    1    1    2  501    0 -0.83962876498E+02  0.14606619181E+03 -0.49576592522E+03  0.52361144910E+03  0.25500000000E-02 0.  1.
<mgrwt>
<rscale>  0 0.16847877E+03</rscale>
<asrwt>0</asrwt>
<pdfrwt beam="1">  1       11 0.10000000E+01 0.22910311E+03</pdfrwt>
<pdfrwt beam="2">  1        2 0.88311632E-01 0.16847877E+03</pdfrwt>
<totfact> 0.66917781E+01</totfact>
</mgrwt>
</event>
<event>
 5    1  0.2804411E-003  0.6677395E+02  0.7818608E-02  0.1371420E+00
         11   -1    0    0    0    0  0.00000000000E+00  0.00000000000E+00  0.10001563884E+04  0.10001563884E+04  0.51100000000E-03 0. -1.
          2   -1    0    0  501    0 -0.00000000000E+00 -0.00000000000E+00 -0.80039637755E+01  0.80039641817E+01  0.25500000000E-02 0. -1.
         11    1    1    2    0    0  0.41101047164E+02  0.50996945282E+02  0.17807901163E+03  0.18974224329E+03  0.51100000000E-03 0. -1.
         22    1    1    2    0    0  0.10382688529E+02 -0.13112103912E+00  0.61255510553E+02  0.62129340789E+02  0.00000000000E+00 0. -1.
          2    1    1    2  501    0 -0.51483735693E+02 -0.50865824242E+02  0.75281790242E+03  0.75628876848E+03  0.25500000000E-02 0. -1.
<mgrwt>
<rscale>  0 0.66773950E+02</rscale>
<asrwt>0</asrwt>
<pdfrwt beam="1">  1       11 0.10000000E+01 0.10383516E+02</pdfrwt>
<pdfrwt beam="2">  1        2 0.12315716E-02 0.66773950E+02</pdfrwt>
<totfact> 0.10947180E+04</totfact>
</mgrwt>
</event>
<event>
 5    1  0.2804411E-003  0.1238908E+03  0.7818608E-02  0.1236813E+00
         11   -1    0    0    0    0  0.00000000000E+00  0.00000000000E+00  0.10002242387E+04  0.10002242387E+04  0.51100000000E-03 0. -1.
          2   -1    0    0  501    0 -0.00000000000E+00 -0.00000000000E+00 -0.22118831073E+03  0.22118831075E+03  0.25500000000E-02 0. -1.
         11    1    1    2    0    0  0.79811752780E+02  0.92524820275E+02  0.55385289290E+03  0.56717174226E+03  0.51100000000E-03 0. -1.
         22    1    1    2    0    0 -0.72304896571E+02  0.31996729647E+02  0.41754751925E+03  0.42496790421E+03  0.00000000000E+00 0. -1.
          2    1    1    2  501    0 -0.75068562094E+01 -0.12452154992E+03 -0.19236448415E+03  0.22927290301E+03  0.25500000000E-02 0. -1.
<mgrwt>
<rscale>  0 0.12389080E+03</rscale>
<asrwt>0</asrwt>
<pdfrwt beam="1">  1       11 0.10000000E+01 0.79068254E+02</pdfrwt>
<pdfrwt beam="2">  1        2 0.34036601E-01 0.12389080E+03</pdfrwt>
<totfact> 0.18701898E+02</totfact>
</mgrwt>
</event>
<event>
 5    1  0.2804411E-003  0.4792175E+02  0.7818608E-02  0.1473712E+00
         11   -1    0    0    0    0  0.00000000000E+00  0.00000000000E+00  0.10001094555E+04  0.10001094555E+04  0.51100000000E-03 0. -1.
          2   -1    0    0  501    0 -0.00000000000E+00 -0.00000000000E+00 -0.34512723873E+01  0.34512733293E+01  0.25500000000E-02 0. -1.
         11    1    1    2    0    0 -0.16735383136E+02 -0.23625288732E+01  0.63694520814E+02  0.65898760029E+02  0.51100000000E-03 0. -1.
         22    1    1    2    0    0 -0.26088590005E+02  0.16512126913E+02  0.13763337535E+03  0.14105392895E+03  0.00000000000E+00 0. -1.
          2    1    1    2  501    0  0.42823973141E+02 -0.14149598040E+02  0.79533028694E+03  0.79660803984E+03  0.25500000000E-02 0. -1.
<mgrwt>
<rscale>  0 0.45101040E+02</rscale>
<asrwt>0</asrwt>
<pdfrwt beam="1">  1       11 0.10000000E+01 0.47921746E+02</pdfrwt>
<pdfrwt beam="2">  1        2 0.53102316E-03 0.45101040E+02</pdfrwt>
<totfact> 0.31646695E+04</totfact>
</mgrwt>
</event>
<event>
 5    1  0.2804411E-003  0.4111870E+02  0.7818608E-02  0.1500137E+00
         11   -1    0    0    0    0  0.00000000000E+00  0.00000000000E+00  0.10003439954E+04  0.10003439954E+04  0.51100000000E-03 0. -1.
          2   -1    0    0  501    0 -0.00000000000E+00 -0.00000000000E+00 -0.40580569649E+01  0.40580577661E+01  0.25500000000E-02 0. -1.
         11    1    1    2    0    0  0.17141035688E+02  0.96740358693E+01  0.69795622723E+02  0.72517797995E+02  0.51100000000E-03 0. -1.
         22    1    1    2    0    0 -0.19668801071E+02  0.35775250197E+02  0.20891641067E+03  0.21286802697E+03  0.00000000000E+00 0. -1.
          2    1    1    2  501    0  0.25277653824E+01 -0.45449286066E+02  0.71757390502E+03  0.71901622817E+03  0.25500000000E-02 0. -1.
<mgrwt>
<rscale>  0 0.41118705E+02</rscale>
<asrwt>0</asrwt>
<pdfrwt beam="1">  1       11 0.10000000E+01 0.19682542E+02</pdfrwt>
<pdfrwt beam="2">  1        2 0.62453126E-03 0.41118705E+02</pdfrwt>
<totfact> 0.24943660E+04</totfact>
</mgrwt>
</event>
<event>
 5    1  0.2804411E-003  0.1560442E+03  0.7818608E-02  0.1196380E+00
         11   -1    0    0    0    0  0.00000000000E+00  0.00000000000E+00  0.10002943056E+04  0.10002943057E+04  0.51100000000E-03 0.  1.
          2   -1    0    0  501    0 -0.00000000000E+00 -0.00000000000E+00 -0.25107629074E+02  0.25107629203E+02  0.25500000000E-02 0.  1.
         11    1    1    2    0    0 -0.14359492225E+03 -0.24822192181E+01  0.53672325345E+03  0.55560553804E+03  0.51100000000E-03 0.  1.
         22    1    1    2    0    0 -0.95277937740E+01 -0.64001846698E+01  0.65959820960E+02  0.66951020896E+02  0.00000000000E+00 0. -1.
          2    1    1    2  501    0  0.15312271603E+03  0.88824038879E+01  0.37250360217E+03  0.40284537591E+03  0.25500000000E-02 0.  1.
<mgrwt>
<rscale>  0 0.15338013E+03</rscale>
<asrwt>0</asrwt>
<pdfrwt beam="1">  1       11 0.10000000E+01 0.15604416E+03</pdfrwt>
<pdfrwt beam="2">  1        2 0.38638489E-02 0.15338013E+03</pdfrwt>
<totfact> 0.26017349E+03</totfact>
</mgrwt>
</event>
<event>
 5    1  0.2804411E-003  0.3461416E+03  0.7818608E-02  0.1266219E+00
         11   -1    0    0    0    0  0.00000000000E+00  0.00000000000E+00  0.99991611819E+03  0.99991611819E+03  0.51100000000E-03 0.  1.
         -2   -1    0    0    0  501 -0.00000000000E+00 -0.00000000000E+00 -0.22288174471E+03  0.22288174473E+03  0.25500000000E-02 0. -1.
         11    1    1    2    0    0 -0.31251324602E+03  0.13761554591E+03  0.73726737918E+03  0.81250584972E+03  0.51100000000E-03 0.  1.
         22    1    1    2    0    0 -0.16346093451E+02  0.28758073108E+02  0.24970519587E+02  0.41445728229E+02  0.00000000000E+00 0. -1.
         -2    1    1    2    0  501  0.32885933948E+03 -0.16637361902E+03  0.14796474703E+02  0.36884628497E+03  0.25500000000E-02 0. -1.
<mgrwt>
<rscale>  0 0.10700479E+03</rscale>
<asrwt>0</asrwt>
<pdfrwt beam="1">  1       11 0.10000000E+01 0.34614163E+03</pdfrwt>
<pdfrwt beam="2">  1       -2 0.34286622E-01 0.10700479E+03</pdfrwt>
<totfact> 0.63777002E+01</totfact>
</mgrwt>
</event>
<event>
 5    1  0.2804411E-003  0.1341360E+03  0.7818608E-02  0.1497801E+00
         11   -1    0    0    0    0  0.00000000000E+00  0.00000000000E+00  0.10001301544E+04  0.10001301544E+04  0.51100000000E-03 0.  1.
          2   -1    0    0  501    0 -0.00000000000E+00 -0.00000000000E+00 -0.19950640014E+02  0.19950640177E+02  0.25500000000E-02 0.  1.
         11    1    1    2    0    0  0.58952546280E+02 -0.11921351917E+03  0.48038688030E+03  0.49845643805E+03  0.51100000000E-03 0.  1.
         22    1    1    2    0    0 -0.10415774635E+02 -0.74553035050E+01  0.29533850768E+02  0.32191897315E+02  0.00000000000E+00 0. -1.
          2    1    1    2  501    0 -0.48536771645E+02  0.12666882267E+03  0.47025878328E+03  0.48943245918E+03  0.25500000000E-02 0.  1.
<mgrwt>
<rscale>  0 0.41450520E+02</rscale>
<asrwt>0</asrwt>
<pdfrwt beam="1">  1       11 0.10000000E+01 0.13413605E+03</pdfrwt>
<pdfrwt beam="2">  1        2 0.30697286E-02 0.41450520E+02</pdfrwt>
<totfact> 0.30431332E+03</totfact>
</mgrwt>
</event>
<event>
 5    1  0.2804411E-003  0.2074014E+03  0.7818608E-02  0.1157046E+00
         11   -1    0    0    0    0  0.00000000000E+00  0.00000000000E+00  0.99999505307E+03  0.99999505307E+03  0.51100000000E-03 0.  1.
          2   -1    0    0  501    0 -0.00000000000E+00 -0.00000000000E+00 -0.16013838167E+03  0.16013838169E+03  0.25500000000E-02 0.  1.
         11    1    1    2    0    0 -0.58716129718E+01  0.99321255964E+02  0.39424107438E+03  0.40660203203E+03  0.51100000000E-03 0.  1.
         22    1    1    2    0    0  0.68363540950E+02  0.81777741141E+02  0.53257836185E+03  0.54313983853E+03  0.00000000000E+00 0.  1.
          2    1    1    2  501    0 -0.62491927979E+02 -0.18109899710E+03 -0.86962764835E+02  0.21039156421E+03  0.25500000000E-02 0.  1.
<mgrwt>
<rscale>  0 0.19157789E+03</rscale>
<asrwt>0</asrwt>
<pdfrwt beam="1">  1       11 0.10000000E+01 0.20740143E+03</pdfrwt>
<pdfrwt beam="2">  1        2 0.24636552E-01 0.19157789E+03</pdfrwt>
<totfact> 0.26839863E+02</totfact>
</mgrwt>
</event>
<event>
 5    1  0.2804411E-003  0.2771672E+03  0.7818608E-02  0.1099287E+00
         11   -1    0    0    0    0  0.00000000000E+00  0.00000000000E+00  0.10014114964E+04  0.10014114964E+04  0.51100000000E-03 0. -1.
          2   -1    0    0  501    0 -0.00000000000E+00 -0.00000000000E+00 -0.27754253341E+04  0.27754253341E+04  0.25500000000E-02 0. -1.
         11    1    1    2    0    0 -0.21313520294E+03  0.14457630679E+03  0.94697622869E+03  0.98137296728E+03  0.51100000000E-03 0. -1.
         22    1    1    2    0    0 -0.14064155957E+02  0.77010870448E+01  0.28340458035E+02  0.32562075887E+02  0.00000000000E+00 0. -1.
          2    1    1    2  501    0  0.22719935890E+03 -0.15227739383E+03 -0.27493305245E+04  0.27629017873E+04  0.25500000000E-02 0. -1.
<mgrwt>
<rscale>  0 0.27351043E+03</rscale>
<asrwt>0</asrwt>
<pdfrwt beam="1">  1       11 0.10000000E+01 0.27716716E+03</pdfrwt>
<pdfrwt beam="2">  1        2 0.42759119E+00 0.27351043E+03</pdfrwt>
<totfact> 0.35069946E+00</totfact>
</mgrwt>
</event>
<event>
 5    1  0.2804411E-003  0.9101525E+02  0.7818608E-02  0.1317331E+00
         11   -1    0    0    0    0  0.00000000000E+00  0.00000000000E+00  0.10003504540E+04  0.10003504540E+04  0.51100000000E-03 0.  1.
          2   -1    0    0  501    0 -0.00000000000E+00 -0.00000000000E+00 -0.10871731333E+02  0.10871731632E+02  0.25500000000E-02 0.  1.
         11    1    1    2    0    0  0.25628987596E+02  0.15458355930E+02  0.69329342718E+02  0.75513995625E+02  0.51100000000E-03 0.  1.
         22    1    1    2    0    0  0.12927957753E+02  0.59482813104E+02  0.16499615157E+03  0.17586661758E+03  0.00000000000E+00 0. -1.
          2    1    1    2  501    0 -0.38556945349E+02 -0.74941169034E+02  0.75515322841E+03  0.75984157246E+03  0.25500000000E-02 0.  1.
<mgrwt>
<rscale>  0 0.84278211E+02</rscale>
<asrwt>0</asrwt>
<pdfrwt beam="1">  1       11 0.10000000E+01 0.91015248E+02</pdfrwt>
<pdfrwt beam="2">  1        2 0.16731602E-02 0.84278211E+02</pdfrwt>
<totfact> 0.74918612E+03</totfact>
</mgrwt>
</event>
<event>
 5    1  0.2804411E-003  0.1040002E+03  0.7818608E-02  0.1553372E+00
         11   -1    0    0    0    0  0.00000000000E+00  0.00000000000E+00  0.10007498483E+04  0.10007498483E+04  0.51100000000E-03 0. -1.
          2   -1    0    0  501    0 -0.00000000000E+00 -0.00000000000E+00 -0.22157681217E+02  0.22157681363E+02  0.25500000000E-02 0. -1.
         11    1    1    2    0    0  0.98839422594E+02  0.50869765522E+02  0.15414911905E+03  0.19004977086E+03  0.51100000000E-03 0. -1.
         22    1    1    2    0    0 -0.11128178769E+02  0.25819882193E+01  0.36444024384E+02  0.38192537742E+02  0.00000000000E+00 0. -1.
          2    1    1    2  501    0 -0.87711243825E+02 -0.53451753741E+02  0.78799902365E+03  0.79466522106E+03  0.25500000000E-02 0. -1.
<mgrwt>
<rscale>  0 0.34468487E+02</rscale>
<asrwt>0</asrwt>
<pdfrwt beam="1">  1       11 0.10000000E+01 0.10400025E+03</pdfrwt>
<pdfrwt beam="2">  1        2 0.34114301E-02 0.34468487E+02</pdfrwt>
<totfact> 0.25913766E+03</totfact>
</mgrwt>
</event>
<event>
 5    1  0.2804411E-003  0.1041213E+03  0.7818608E-02  0.1275490E+00
         11   -1    0    0    0    0  0.00000000000E+00  0.00000000000E+00  0.10003646863E+04  0.10003646863E+04  0.51100000000E-03 0.  1.
          2   -1    0    0  501    0 -0.00000000000E+00 -0.00000000000E+00 -0.14171727844E+02  0.14171728073E+02  0.25500000000E-02 0.  1.
         11    1    1    2    0    0  0.69321925727E+02 -0.55860990517E+02  0.20214694594E+03  0.22088315328E+03  0.51100000000E-03 0.  1.
         22    1    1    2    0    0  0.56799381845E+01 -0.13739558745E+02  0.41339664918E+02  0.43931822951E+02  0.00000000000E+00 0. -1.
          2    1    1    2  501    0 -0.75001863912E+02  0.69600549261E+02  0.74270634759E+03  0.74972143814E+03  0.25500000000E-02 0.  1.
<mgrwt>
<rscale>  0 0.10232065E+03</rscale>
<asrwt>0</asrwt>
<pdfrwt beam="1">  1       11 0.10000000E+01 0.10412128E+03</pdfrwt>
<pdfrwt beam="2">  1        2 0.21810609E-02 0.10232065E+03</pdfrwt>
<totfact> 0.53709976E+03</totfact>
</mgrwt>
</event>
<event>
 5    1  0.2804411E-003  0.1231490E+03  0.7818608E-02  0.1240118E+00
         11   -1    0    0    0    0  0.00000000000E+00  0.00000000000E+00  0.10001449181E+04  0.10001449181E+04  0.51100000000E-03 0. -1.
         -2   -1    0    0    0  501 -0.00000000000E+00 -0.00000000000E+00 -0.15024413076E+02  0.15024413292E+02  0.25500000000E-02 0. -1.
         11    1    1    2    0    0 -0.95730884779E+02 -0.50683957813E+02  0.45391840401E+03  0.46666388695E+03  0.51100000000E-03 0. -1.
         22    1    1    2    0    0 -0.14819571939E+02 -0.49898031627E+00  0.61437317106E+02  0.63201365705E+02  0.00000000000E+00 0.  1.
         -2    1    1    2    0  501  0.11055045672E+03  0.51182938130E+02  0.46976478390E+03  0.48530407874E+03  0.25500000000E-02 0. -1.
<mgrwt>
<rscale>  0 0.12182404E+03</rscale>
<asrwt>0</asrwt>
<pdfrwt beam="1">  1       11 0.10000000E+01 0.12314896E+03</pdfrwt>
<pdfrwt beam="2">  1       -2 0.23117831E-02 0.12182404E+03</pdfrwt>
<totfact> 0.45590963E+03</totfact>
</mgrwt>
</event>
<event>
 5    1  0.2804411E-003  0.9123913E+02  0.7818608E-02  0.1306631E+00
         11   -1    0    0    0    0  0.00000000000E+00  0.00000000000E+00  0.10001294224E+04  0.10001294224E+04  0.51100000000E-03 0.  1.
          2   -1    0    0  501    0 -0.00000000000E+00 -0.00000000000E+00 -0.80732335278E+01  0.80732339305E+01  0.25500000000E-02 0.  1.
         11    1    1    2    0    0  0.33496228047E+02  0.66713280924E+02  0.41772876141E+03  0.42434652968E+03  0.51100000000E-03 0.  1.
         22    1    1    2    0    0 -0.27074657005E+01  0.16213038842E+02  0.78964671466E+02  0.80657376220E+02  0.00000000000E+00 0.  1.
          2    1    1    2  501    0 -0.30788762347E+02 -0.82926319766E+02  0.49536275602E+03  0.50319875045E+03  0.25500000000E-02 0.  1.
<mgrwt>
<rscale>  0 0.88457461E+02</rscale>
<asrwt>0</asrwt>
<pdfrwt beam="1">  1       11 0.10000000E+01 0.91239129E+02</pdfrwt>
<pdfrwt beam="2">  1        2 0.12421967E-02 0.88457461E+02</pdfrwt>
<totfact> 0.11305112E+04</totfact>
</mgrwt>
</event>
<event>
 5    1  0.2804411E-003  0.1767776E+03  0.7818608E-02  0.1177215E+00
         11   -1    0    0    0    0  0.00000000000E+00  0.00000000000E+00  0.10002495040E+04  0.10002495040E+04  0.51100000000E-03 0. -1.
          2   -1    0    0  501    0 -0.00000000000E+00 -0.00000000000E+00 -0.18362068189E+04  0.18362068189E+04  0.25500000000E-02 0. -1.
         11    1    1    2    0    0 -0.42583275190E+02 -0.64113881738E+02  0.43107541579E+03  0.43789261155E+03  0.51100000000E-03 0. -1.
         22    1    1    2    0    0 -0.89873228599E+02 -0.43415579496E+02  0.55735229057E+03  0.56621876122E+03  0.00000000000E+00 0. -1.
          2    1    1    2  501    0  0.13245650379E+03  0.10752946123E+03 -0.18243850213E+04  0.18323449501E+04  0.25500000000E-02 0. -1.
<mgrwt>
<rscale>  0 0.17060865E+03</rscale>
<asrwt>0</asrwt>
<pdfrwt beam="1">  1       11 0.10000000E+01 0.17677760E+03</pdfrwt>
<pdfrwt beam="2">  1        2 0.28256383E+00 0.17060865E+03</pdfrwt>
<totfact> 0.11845649E+01</totfact>
</mgrwt>
</event>
<event>
 5    1  0.2804411E-003  0.8515066E+02  0.7818608E-02  0.1330735E+00
         11   -1    0    0    0    0  0.00000000000E+00  0.00000000000E+00  0.10002867924E+04  0.10002867924E+04  0.51100000000E-03 0.  1.
          2   -1    0    0  501    0 -0.00000000000E+00 -0.00000000000E+00 -0.10546571601E+02  0.10546571909E+02  0.25500000000E-02 0.  1.
         11    1    1    2    0    0 -0.34880179642E+02  0.46132977576E+02  0.13851683132E+03  0.15010593296E+03  0.51100000000E-03 0.  1.
         22    1    1    2    0    0 -0.27086984780E+02  0.35255231831E+01  0.65031462432E+02  0.70535276027E+02  0.00000000000E+00 0. -1.
          2    1    1    2  501    0  0.61967164422E+02 -0.49658500759E+02  0.78619192705E+03  0.79019215532E+03  0.25500000000E-02 0.  1.
<mgrwt>
<rscale>  0 0.79409673E+02</rscale>
<asrwt>0</asrwt>
<pdfrwt beam="1">  1       11 0.10000000E+01 0.85150662E+02</pdfrwt>
<pdfrwt beam="2">  1        2 0.16230148E-02 0.79409673E+02</pdfrwt>
<totfact> 0.77411473E+03</totfact>
</mgrwt>
</event>
<event>
 5    1  0.2804411E-003  0.4110304E+03  0.7818608E-02  0.1043582E+00
         11   -1    0    0    0    0  0.00000000000E+00  0.00000000000E+00  0.99923755631E+03  0.99923755631E+03  0.51100000000E-03 0.  1.
          2   -1    0    0  501    0 -0.00000000000E+00 -0.00000000000E+00 -0.25009165957E+04  0.25009165957E+04  0.25500000000E-02 0.  1.
         11    1    1    2    0    0 -0.14019454103E+03  0.33962408306E+03  0.90935181673E+03  0.98077507805E+03  0.51100000000E-03 0.  1.
         22    1    1    2    0    0 -0.12273914425E+02  0.30797081493E+02  0.30594804121E+02  0.45112650587E+02  0.00000000000E+00 0.  1.
          2    1    1    2  501    0  0.15246845545E+03 -0.37042116455E+03 -0.24416256603E+04  0.24742664234E+04  0.25500000000E-02 0.  1.
<mgrwt>
<rscale>  0 0.40057268E+03</rscale>
<asrwt>0</asrwt>
<pdfrwt beam="1">  1       11 0.10000000E+01 0.41103039E+03</pdfrwt>
<pdfrwt beam="2">  1        2 0.38446303E+00 0.40057268E+03</pdfrwt>
<totfact> 0.48080730E+00</totfact>
</mgrwt>
</event>
<event>
 5    1  0.2804411E-003  0.2311650E+03  0.7818608E-02  0.1127015E+00
         11   -1    0    0    0    0  0.00000000000E+00  0.00000000000E+00  0.10001375444E+04  0.10001375444E+04  0.51100000000E-03 0. -1.
          2   -1    0    0  501    0 -0.00000000000E+00 -0.00000000000E+00 -0.76185717432E+02  0.76185717475E+02  0.25500000000E-02 0. -1.
         11    1    1    2    0    0 -0.10213327111E+03  0.19451373593E+03  0.73352894537E+03  0.76572286908E+03  0.51100000000E-03 0. -1.
         22    1    1    2    0    0 -0.90020086713E+01  0.62456945137E+01  0.26268898590E+02  0.28462253832E+02  0.00000000000E+00 0.  1.
          2    1    1    2  501    0  0.11113527978E+03 -0.20075943045E+03  0.16415398305E+03  0.28213813901E+03  0.25500000000E-02 0. -1.
<mgrwt>
<rscale>  0 0.22946764E+03</rscale>
<asrwt>0</asrwt>
<pdfrwt beam="1">  1       11 0.10000000E+01 0.23116498E+03</pdfrwt>
<pdfrwt beam="2">  1        2 0.11722491E-01 0.22946764E+03</pdfrwt>
<totfact> 0.64283859E+02</totfact>
</mgrwt>
</event>
<event>
 5    1  0.2804411E-003  0.9877331E+02  0.7818608E-02  0.1286332E+00
         11   -1    0    0    0    0  0.00000000000E+00  0.00000000000E+00  0.10000788100E+04  0.10000788100E+04  0.51100000000E-03 0. -1.
          2   -1    0    0  501    0 -0.00000000000E+00 -0.00000000000E+00 -0.96224506611E+01  0.96224509990E+01  0.25500000000E-02 0. -1.
         11    1    1    2    0    0  0.14226291205E+02 -0.94000254089E+01  0.69270386063E+02  0.71338168078E+02  0.51100000000E-03 0. -1.
         22    1    1    2    0    0  0.78891180400E+02 -0.18417393387E+02  0.45487055111E+03  0.46202839414E+03  0.00000000000E+00 0. -1.
          2    1    1    2  501    0 -0.93117471605E+02  0.27817418796E+02  0.46631542214E+03  0.47633469875E+03  0.25500000000E-02 0. -1.
<mgrwt>
<rscale>  0 0.97183704E+02</rscale>
<asrwt>0</asrwt>
<pdfrwt beam="1">  1       11 0.10000000E+01 0.98773315E+02</pdfrwt>
<pdfrwt beam="2">  1        2 0.14804937E-02 0.97183704E+02</pdfrwt>
<totfact> 0.90227143E+03</totfact>
</mgrwt>
</event>
<event>
 5    1  0.2804411E-003  0.2307593E+03  0.7818608E-02  0.1126106E+00
         11   -1    0    0    0    0  0.00000000000E+00  0.00000000000E+00  0.10007422643E+04  0.10007422643E+04  0.51100000000E-03 0. -1.
          2   -1    0    0  501    0 -0.00000000000E+00 -0.00000000000E+00 -0.13582244439E+04  0.13582244439E+04  0.25500000000E-02 0.  1.
         11    1    1    2    0    0  0.62655086304E+01  0.24463202804E+03  0.71437689121E+03  0.75512808744E+03  0.51100000000E-03 0. -1.
         22    1    1    2    0    0  0.42940697576E+02 -0.19313726701E+02  0.25386960556E+03  0.25819895463E+03  0.00000000000E+00 0. -1.
          2    1    1    2  501    0 -0.49206206206E+02 -0.22531830134E+03 -0.13257286763E+04  0.13456396661E+04  0.25500000000E-02 0.  1.
<mgrwt>
<rscale>  0 0.23075927E+03</rscale>
<asrwt>0</asrwt>
<pdfrwt beam="1">  1       11 0.10000000E+01 0.47084218E+02</pdfrwt>
<pdfrwt beam="2">  1        2 0.20911270E+00 0.23075927E+03</pdfrwt>
<totfact> 0.20614284E+01</totfact>
</mgrwt>
</event>
<event>
 5    1  0.2804411E-003  0.1102197E+03  0.7818608E-02  0.1260164E+00
         11   -1    0    0    0    0  0.00000000000E+00  0.00000000000E+00  0.10007347486E+04  0.10007347486E+04  0.51100000000E-03 0. -1.
          2   -1    0    0  501    0 -0.00000000000E+00 -0.00000000000E+00 -0.19143953763E+02  0.19143953933E+02  0.25500000000E-02 0.  1.
         11    1    1    2    0    0 -0.91813074099E+02  0.53851136814E+02  0.41587778299E+03  0.42928302540E+03  0.51100000000E-03 0. -1.
         22    1    1    2    0    0 -0.26208148331E+02 -0.42616889599E+02  0.19912468428E+03  0.20531367759E+03  0.00000000000E+00 0. -1.
          2    1    1    2  501    0  0.11802122243E+03 -0.11234247215E+02  0.36658832761E+03  0.38528199958E+03  0.25500000000E-02 0.  1.
<mgrwt>
<rscale>  0 0.11021968E+03</rscale>
<asrwt>0</asrwt>
<pdfrwt beam="1">  1       11 0.10000000E+01 0.50030654E+02</pdfrwt>
<pdfrwt beam="2">  1        2 0.29473876E-02 0.11021968E+03</pdfrwt>
<totfact> 0.36148753E+03</totfact>
</mgrwt>
</event>
<event>
 5    1  0.2804411E-003  0.1877698E+03  0.7818608E-02  0.1163265E+00
         11   -1    0    0    0    0  0.00000000000E+00  0.00000000000E+00  0.10002463171E+04  0.10002463171E+04  0.51100000000E-03 0. -1.
          2   -1    0    0  501    0 -0.00000000000E+00 -0.00000000000E+00 -0.34711877089E+02  0.34711877183E+02  0.25500000000E-02 0. -1.
         11    1    1    2    0    0 -0.15025528473E+03  0.14245573845E+02  0.34712940926E+03  0.37852135176E+03  0.51100000000E-03 0. -1.
         22    1    1    2    0    0 -0.33295475540E+02  0.69406962097E+01  0.12590168752E+03  0.13041471111E+03  0.00000000000E+00 0.  1.
          2    1    1    2  501    0  0.18355076027E+03 -0.21186270054E+02  0.49250334326E+03  0.52602213144E+03  0.25500000000E-02 0. -1.
<mgrwt>
<rscale>  0 0.18476942E+03</rscale>
<asrwt>0</asrwt>
<pdfrwt beam="1">  1       11 0.10000000E+01 0.18776980E+03</pdfrwt>
<pdfrwt beam="2">  1        2 0.53416040E-02 0.18476942E+03</pdfrwt>
<totfact> 0.17217261E+03</totfact>
</mgrwt>
</event>
<event>
 5    1  0.2804411E-003  0.1757359E+03  0.7818608E-02  0.1173832E+00
         11   -1    0    0    0    0  0.00000000000E+00  0.00000000000E+00  0.10002101414E+04  0.10002101414E+04  0.51100000000E-03 0. -1.
         -2   -1    0    0    0  501 -0.00000000000E+00 -0.00000000000E+00 -0.45296922130E+02  0.45296922202E+02  0.25500000000E-02 0.  1.
         11    1    1    2    0    0  0.15152232285E+03  0.44205005263E+02  0.70152036090E+03  0.71905765664E+03  0.51100000000E-03 0. -1.
         22    1    1    2    0    0  0.12935933674E+02  0.12343646174E+02  0.75824093927E+02  0.77903768848E+02  0.00000000000E+00 0. -1.
         -2    1    1    2    0  501 -0.16445825652E+03 -0.56548651437E+02  0.17756876447E+03  0.24854563815E+03  0.25500000000E-02 0.  1.
<mgrwt>
<rscale>  0 0.17390879E+03</rscale>
<asrwt>0</asrwt>
<pdfrwt beam="1">  1       11 0.10000000E+01 0.17573592E+03</pdfrwt>
<pdfrwt beam="2">  1       -2 0.69702215E-02 0.17390879E+03</pdfrwt>
<totfact> 0.90911639E+02</totfact>
</mgrwt>
</event>
<event>
 5    1  0.2804411E-003  0.7296309E+02  0.7818608E-02  0.1358088E+00
         11   -1    0    0    0    0  0.00000000000E+00  0.00000000000E+00  0.10003682781E+04  0.10003682781E+04  0.51100000000E-03 0. -1.
         -2   -1    0    0    0  501 -0.00000000000E+00 -0.00000000000E+00 -0.59381529647E+01  0.59381535123E+01  0.25500000000E-02 0. -1.
         11    1    1    2    0    0 -0.36933762075E+02  0.39458976976E+02  0.27432649576E+03  0.27959996409E+03  0.51100000000E-03 0. -1.
         22    1    1    2    0    0 -0.90523212703E+01  0.14100808879E+02  0.46744704627E+02  0.49657272802E+02  0.00000000000E+00 0. -1.
         -2    1    1    2    0  501  0.45986083345E+02 -0.53559785855E+02  0.67335892474E+03  0.67704919471E+03  0.25500000000E-02 0. -1.
<mgrwt>
<rscale>  0 0.70592992E+02</rscale>
<asrwt>0</asrwt>
<pdfrwt beam="1">  1       11 0.10000000E+01 0.72963089E+02</pdfrwt>
<pdfrwt beam="2">  1       -2 0.91389846E-03 0.70592992E+02</pdfrwt>
<totfact> 0.15822582E+04</totfact>
</mgrwt>
</event>
<event>
 5    1  0.2804411E-003  0.1121305E+03  0.7818608E-02  0.1407216E+00
         11   -1    0    0    0    0  0.00000000000E+00  0.00000000000E+00  0.10001874381E+04  0.10001874381E+04  0.51100000000E-03 0.  1.
         -2   -1    0    0    0  501 -0.00000000000E+00 -0.00000000000E+00 -0.22754083360E+02  0.22754083503E+02  0.25500000000E-02 0. -1.
         11    1    1    2    0    0 -0.87018538312E+02  0.53919145657E+02  0.51606953265E+03  0.52612475974E+03  0.51100000000E-03 0.  1.
         22    1    1    2    0    0 -0.18248835932E+02  0.23577347000E+02  0.18554627766E+02  0.35116741249E+02  0.00000000000E+00 0. -1.
         -2    1    1    2    0  501  0.10526737424E+03 -0.77496492657E+02  0.44280919437E+03  0.46170002066E+03  0.25500000000E-02 0. -1.
<mgrwt>
<rscale>  0 0.57819792E+02</rscale>
<asrwt>0</asrwt>
<pdfrwt beam="1">  1       11 0.10000000E+01 0.11213052E+03</pdfrwt>
<pdfrwt beam="2">  1       -2 0.35012843E-02 0.57819792E+02</pdfrwt>
<totfact> 0.22811838E+03</totfact>
</mgrwt>
</event>
<event>
 5    1  0.2804411E-003  0.8834839E+02  0.7818608E-02  0.1319033E+00
         11   -1    0    0    0    0  0.00000000000E+00  0.00000000000E+00  0.10002595709E+04  0.10002595709E+04  0.51100000000E-03 0.  1.
          2   -1    0    0  501    0 -0.00000000000E+00 -0.00000000000E+00 -0.14975069007E+02  0.14975069224E+02  0.25500000000E-02 0.  1.
         11    1    1    2    0    0 -0.55559853842E+02  0.16059154810E+02  0.68797842310E+02  0.89877343746E+02  0.51100000000E-03 0.  1.
         22    1    1    2    0    0 -0.23320155722E+02  0.11748320869E+02  0.69371708576E+02  0.74123455511E+02  0.00000000000E+00 0.  1.
          2    1    1    2  501    0  0.78880009563E+02 -0.27807475680E+02  0.84711495104E+03  0.85123384090E+03  0.25500000000E-02 0.  1.
<mgrwt>
<rscale>  0 0.83637980E+02</rscale>
<asrwt>0</asrwt>
<pdfrwt beam="1">  1       11 0.10000000E+01 0.88348386E+02</pdfrwt>
<pdfrwt beam="2">  1        2 0.23044547E-02 0.83637980E+02</pdfrwt>
<totfact> 0.48647945E+03</totfact>
</mgrwt>
</event>
<event>
 5    1  0.2804411E-003  0.4947124E+02  0.7818608E-02  0.1462408E+00
         11   -1    0    0    0    0  0.00000000000E+00  0.00000000000E+00  0.10000796165E+04  0.10000796165E+04  0.51100000000E-03 0. -1.
          2   -1    0    0  501    0 -0.00000000000E+00 -0.00000000000E+00 -0.52014202141E+01  0.52014208392E+01  0.25500000000E-02 0. -1.
         11    1    1    2    0    0  0.12369312792E+01 -0.28450424512E+02  0.56217107177E+02  0.63018408370E+02  0.51100000000E-03 0. -1.
         22    1    1    2    0    0  0.35317653971E+01 -0.18276456680E+02  0.73261810426E+02  0.75589649440E+02  0.00000000000E+00 0. -1.
          2    1    1    2  501    0 -0.47686966763E+01  0.46726881192E+02  0.86539927872E+03  0.86667297957E+03  0.25500000000E-02 0. -1.
<mgrwt>
<rscale>  0 0.46969585E+02</rscale>
<asrwt>0</asrwt>
<pdfrwt beam="1">  1       11 0.10000000E+01 0.49471240E+02</pdfrwt>
<pdfrwt beam="2">  1        2 0.80028223E-03 0.46969585E+02</pdfrwt>
<totfact> 0.18379137E+04</totfact>
</mgrwt>
</event>
<event>
 5    1  0.2804411E-003  0.1474293E+03  0.7818608E-02  0.1208713E+00
         11   -1    0    0    0    0  0.00000000000E+00  0.00000000000E+00  0.10001205901E+04  0.10001205901E+04  0.51100000000E-03 0. -1.
         -2   -1    0    0    0  501 -0.00000000000E+00 -0.00000000000E+00 -0.32333082986E+02  0.32333083087E+02  0.25500000000E-02 0.  1.
         11    1    1    2    0    0  0.11119712595E+03 -0.20743644297E+02  0.68294304352E+03  0.69224728261E+03  0.51100000000E-03 0. -1.
         22    1    1    2    0    0  0.30894208530E+02  0.78254458768E+00  0.10874659896E+03  0.11305258636E+03  0.00000000000E+00 0. -1.
         -2    1    1    2    0  501 -0.14209133448E+03  0.19961099709E+02  0.17609786465E+03  0.22715380423E+03  0.25500000000E-02 0.  1.
<mgrwt>
<rscale>  0 0.14348656E+03</rscale>
<asrwt>0</asrwt>
<pdfrwt beam="1">  1       11 0.10000000E+01 0.14742927E+03</pdfrwt>
<pdfrwt beam="2">  1       -2 0.49749202E-02 0.14348656E+03</pdfrwt>
<totfact> 0.14956084E+03</totfact>
</mgrwt>
</event>
<event>
 5    1  0.2804411E-003  0.1573778E+03  0.7818608E-02  0.1446478E+00
         11   -1    0    0    0    0  0.00000000000E+00  0.00000000000E+00  0.10002796709E+04  0.10002796709E+04  0.51100000000E-03 0.  1.
          2   -1    0    0  501    0 -0.00000000000E+00 -0.00000000000E+00 -0.80856608525E+03  0.80856608525E+03  0.25500000000E-02 0.  1.
         11    1    1    2    0    0  0.15034482748E+03  0.56859942304E+02  0.90709332226E+03  0.92122468240E+03  0.51100000000E-03 0.  1.
         22    1    1    2    0    0 -0.13637444997E+03 -0.90701833700E+01  0.30536061518E+02  0.14004538508E+03  0.00000000000E+00 0.  1.
          2    1    1    2  501    0 -0.13970377510E+02 -0.47789758934E+02 -0.74591579809E+03  0.74757568871E+03  0.25500000000E-02 0.  1.
<mgrwt>
<rscale>  0 0.49789884E+02</rscale>
<asrwt>0</asrwt>
<pdfrwt beam="1">  1       11 0.10000000E+01 0.15737777E+03</pdfrwt>
<pdfrwt beam="2">  1        2 0.12442957E+00 0.49789884E+02</pdfrwt>
<totfact> 0.46589706E+01</totfact>
</mgrwt>
</event>
<event>
 5    1  0.2804411E-003  0.6663807E+03  0.7818608E-02  0.1228464E+00
         11   -1    0    0    0    0  0.00000000000E+00  0.00000000000E+00  0.99997660311E+03  0.99997660311E+03  0.51100000000E-03 0. -1.
          2   -1    0    0  501    0 -0.00000000000E+00 -0.00000000000E+00 -0.69263412821E+03  0.69263412821E+03  0.25500000000E-02 0. -1.
         11    1    1    2    0    0  0.46867364633E+03  0.50022632980E+03 -0.24927934780E+03  0.72939808131E+03  0.51100000000E-03 0. -1.
         22    1    1    2    0    0 -0.20013734979E+02 -0.15143631761E+02 -0.56494196942E+02  0.61818067414E+02  0.00000000000E+00 0. -1.
          2    1    1    2  501    0 -0.44865991135E+03 -0.48508269804E+03  0.61311601964E+03  0.90139458259E+03  0.25500000000E-02 0. -1.
<mgrwt>
<rscale>  0 0.12932289E+03</rscale>
<asrwt>0</asrwt>
<pdfrwt beam="1">  1       11 0.10000000E+01 0.66638066E+03</pdfrwt>
<pdfrwt beam="2">  1        2 0.10655660E+00 0.12932289E+03</pdfrwt>
<totfact> 0.54209504E+01</totfact>
</mgrwt>
</event>
<event>
 5    1  0.2804411E-003  0.1134659E+03  0.7818608E-02  0.1264756E+00
         11   -1    0    0    0    0  0.00000000000E+00  0.00000000000E+00  0.10001772731E+04  0.10001772731E+04  0.51100000000E-03 0.  1.
          2   -1    0    0  501    0 -0.00000000000E+00 -0.00000000000E+00 -0.12379567512E+02  0.12379567775E+02  0.25500000000E-02 0.  1.
         11    1    1    2    0    0  0.32736610595E+02  0.76106748728E+02  0.42596415023E+03  0.43394628718E+03  0.51100000000E-03 0.  1.
         22    1    1    2    0    0  0.27281886834E+02  0.13403784288E+02  0.13535381063E+03  0.13872496831E+03  0.00000000000E+00 0. -1.
          2    1    1    2  501    0 -0.60018497429E+02 -0.89510533016E+02  0.42647974472E+03  0.43988558537E+03  0.25500000000E-02 0.  1.
<mgrwt>
<rscale>  0 0.10776992E+03</rscale>
<asrwt>0</asrwt>
<pdfrwt beam="1">  1       11 0.10000000E+01 0.11346591E+03</pdfrwt>
<pdfrwt beam="2">  1        2 0.19048864E-02 0.10776992E+03</pdfrwt>
<totfact> 0.64932003E+03</totfact>
</mgrwt>
</event>
<event>
 5    1  0.2804411E-003  0.1198353E+03  0.7818608E-02  0.1243369E+00
         11   -1    0    0    0    0  0.00000000000E+00  0.00000000000E+00  0.10004096190E+04  0.10004096190E+04  0.51100000000E-03 0. -1.
          2   -1    0    0  501    0 -0.00000000000E+00 -0.00000000000E+00 -0.22702591691E+02  0.22702591834E+02  0.25500000000E-02 0. -1.
         11    1    1    2    0    0  0.74599438213E+02 -0.10103489773E+03  0.29871411744E+03  0.32404205082E+03  0.51100000000E-03 0. -1.
         22    1    1    2    0    0  0.26069218374E+02  0.41401434171E+02  0.22312797659E+03  0.22842893170E+03  0.00000000000E+00 0.  1.
          2    1    1    2  501    0 -0.10066865659E+03  0.59633463561E+02  0.45586493331E+03  0.47064122835E+03  0.25500000000E-02 0. -1.
<mgrwt>
<rscale>  0 0.11983525E+03</rscale>
<asrwt>0</asrwt>
<pdfrwt beam="1">  1       11 0.10000000E+01 0.48925279E+02</pdfrwt>
<pdfrwt beam="2">  1        2 0.34941370E-02 0.11983525E+03</pdfrwt>
<totfact> 0.29059461E+03</totfact>
</mgrwt>
</event>
<event>
 5    1  0.2804411E-003  0.3338160E+02  0.7818608E-02  0.1586468E+00
         11   -1    0    0    0    0  0.00000000000E+00  0.00000000000E+00  0.10002902215E+04  0.10002902215E+04  0.51100000000E-03 0.  1.
          2   -1    0    0  501    0 -0.00000000000E+00 -0.00000000000E+00 -0.24126071864E+01  0.24126085341E+01  0.25500000000E-02 0.  1.
         11    1    1    2    0    0  0.76001682111E+01 -0.14769197212E+02  0.81948984552E+02  0.83615356320E+02  0.51100000000E-03 0.  1.
         22    1    1    2    0    0 -0.14476931843E+01 -0.15693898133E+02  0.46399665015E+02  0.49003297519E+02  0.00000000000E+00 0.  1.
          2    1    1    2  501    0 -0.61524750268E+01  0.30463095345E+02  0.86952896476E+03  0.87008417621E+03  0.25500000000E-02 0.  1.
<mgrwt>
<rscale>  0 0.31078178E+02</rscale>
<asrwt>0</asrwt>
<pdfrwt beam="1">  1       11 0.10000000E+01 0.33381604E+02</pdfrwt>
<pdfrwt beam="2">  1        2 0.37127815E-03 0.31078178E+02</pdfrwt>
<totfact> 0.46758378E+04</totfact>
</mgrwt>
</event>
<event>
 5    1  0.2804411E-003  0.1684228E+03  0.7818608E-02  0.1182644E+00
         11   -1    0    0    0    0  0.00000000000E+00  0.00000000000E+00  0.10001776127E+04  0.10001776127E+04  0.51100000000E-03 0. -1.
          2   -1    0    0  501    0 -0.00000000000E+00 -0.00000000000E+00 -0.42172026757E+02  0.42172026834E+02  0.25500000000E-02 0.  1.
         11    1    1    2    0    0 -0.81717722728E+02  0.13109426283E+03  0.75457195717E+03  0.77022226046E+03  0.51100000000E-03 0. -1.
         22    1    1    2    0    0 -0.19093401120E+01  0.11701367229E+02  0.30740113482E+02  0.32947263188E+02  0.00000000000E+00 0.  1.
          2    1    1    2  501    0  0.83627062840E+02 -0.14279563005E+03  0.17269351525E+03  0.23918011585E+03  0.25500000000E-02 0.  1.
<mgrwt>
<rscale>  0 0.16548135E+03</rscale>
<asrwt>0</asrwt>
<pdfrwt beam="1">  1       11 0.10000000E+01 0.16842279E+03</pdfrwt>
<pdfrwt beam="2">  1        2 0.64891563E-02 0.16548135E+03</pdfrwt>
<totfact> 0.13267314E+03</totfact>
</mgrwt>
</event>
<event>
 5    1  0.2804411E-003  0.2613512E+03  0.7818608E-02  0.1109927E+00
         11   -1    0    0    0    0  0.00000000000E+00  0.00000000000E+00  0.10002487020E+04  0.10002487020E+04  0.51100000000E-03 0. -1.
          2   -1    0    0  501    0 -0.00000000000E+00 -0.00000000000E+00 -0.10922255940E+03  0.10922255943E+03  0.25500000000E-02 0. -1.
         11    1    1    2    0    0 -0.11724773922E+03  0.20663767658E+02  0.41261329676E+03  0.42944587122E+03  0.51100000000E-03 0. -1.
         22    1    1    2    0    0 -0.12084424142E+03  0.71810591238E+02  0.38195177840E+03  0.40699785346E+03  0.00000000000E+00 0. -1.
          2    1    1    2  501    0  0.23809198064E+03 -0.92474358897E+02  0.96461067464E+02  0.27302753678E+03  0.25500000000E-02 0. -1.
<mgrwt>
<rscale>  0 0.25541985E+03</rscale>
<asrwt>0</asrwt>
<pdfrwt beam="1">  1       11 0.10000000E+01 0.26135119E+03</pdfrwt>
<pdfrwt beam="2">  1        2 0.16807649E-01 0.25541985E+03</pdfrwt>
<totfact> 0.41904175E+02</totfact>
</mgrwt>
</event>
<event>
 5    1  0.2804411E-003  0.1311764E+03  0.7818608E-02  0.1246506E+00
         11   -1    0    0    0    0  0.00000000000E+00  0.00000000000E+00  0.10001556221E+04  0.10001556221E+04  0.51100000000E-03 0. -1.
          2   -1    0    0  501    0 -0.00000000000E+00 -0.00000000000E+00 -0.16537007222E+02  0.16537007418E+02  0.25500000000E-02 0. -1.
         11    1    1    2    0    0  0.15258820017E+02 -0.71373044194E+02  0.14771934176E+03  0.16476634048E+03  0.51100000000E-03 0. -1.
         22    1    1    2    0    0 -0.54429642348E+01 -0.46174799701E+02  0.24233092954E+03  0.24675092178E+03  0.00000000000E+00 0. -1.
          2    1    1    2  501    0 -0.98158557820E+01  0.11754784389E+03  0.59356834356E+03  0.60517536724E+03  0.25500000000E-02 0. -1.
<mgrwt>
<rscale>  0 0.11795697E+03</rscale>
<asrwt>0</asrwt>
<pdfrwt beam="1">  1       11 0.10000000E+01 0.13117638E+03</pdfrwt>
<pdfrwt beam="2">  1        2 0.25445508E-02 0.11795697E+03</pdfrwt>
<totfact> 0.44359482E+03</totfact>
</mgrwt>
</event>
<event>
 5    1  0.2804411E-003  0.2357176E+03  0.7818608E-02  0.1125447E+00
         11   -1    0    0    0    0  0.00000000000E+00  0.00000000000E+00  0.10001540281E+04  0.10001540281E+04  0.51100000000E-03 0.  1.
          2   -1    0    0  501    0 -0.00000000000E+00 -0.00000000000E+00 -0.60154706679E+02  0.60154706733E+02  0.25500000000E-02 0.  1.
         11    1    1    2    0    0 -0.36198515279E+01  0.58606693302E+02  0.13255108455E+03  0.14497461102E+03  0.51100000000E-03 0.  1.
         22    1    1    2    0    0  0.53084911884E+02  0.16775412292E+03  0.50203589266E+03  0.53197696486E+03  0.00000000000E+00 0.  1.
          2    1    1    2  501    0 -0.49465060357E+02 -0.22636081622E+03  0.30541234423E+03  0.38335715897E+03  0.25500000000E-02 0.  1.
<mgrwt>
<rscale>  0 0.23170242E+03</rscale>
<asrwt>0</asrwt>
<pdfrwt beam="1">  1       11 0.10000000E+01 0.23571764E+03</pdfrwt>
<pdfrwt beam="2">  1        2 0.92559955E-02 0.23170242E+03</pdfrwt>
<totfact> 0.86187166E+02</totfact>
</mgrwt>
</event>
<event>
 5    1  0.2804411E-003  0.1219653E+03  0.7818608E-02  0.1239890E+00
         11   -1    0    0    0    0  0.00000000000E+00  0.00000000000E+00  0.10003840267E+04  0.10003840267E+04  0.51100000000E-03 0.  1.
          2   -1    0    0  501    0 -0.00000000000E+00 -0.00000000000E+00 -0.27465001304E+02  0.27465001422E+02  0.25500000000E-02 0.  1.
         11    1    1    2    0    0 -0.21887731552E+02 -0.89567473245E+01  0.64261825305E+02  0.68475384679E+02  0.51100000000E-03 0.  1.
         22    1    1    2    0    0  0.85261222305E+02 -0.94270431560E+02  0.74500774968E+03  0.75577307268E+03  0.00000000000E+00 0.  1.
          2    1    1    2  501    0 -0.63373490754E+02  0.10322717888E+03  0.16364945041E+03  0.20360057076E+03  0.25500000000E-02 0.  1.
<mgrwt>
<rscale>  0 0.12196531E+03</rscale>
<asrwt>0</asrwt>
<pdfrwt beam="1">  1       11 0.10000000E+01 0.23649454E+02</pdfrwt>
<pdfrwt beam="2">  1        2 0.42270074E-02 0.12196531E+03</pdfrwt>
<totfact> 0.22627645E+03</totfact>
</mgrwt>
</event>
<event>
 5    1  0.2804411E-003  0.1265011E+03  0.7818608E-02  0.1232742E+00
         11   -1    0    0    0    0  0.00000000000E+00  0.00000000000E+00  0.10001124155E+04  0.10001124155E+04  0.51100000000E-03 0.  1.
          2   -1    0    0  501    0 -0.00000000000E+00 -0.00000000000E+00 -0.42990734718E+02  0.42990734794E+02  0.25500000000E-02 0.  1.
         11    1    1    2    0    0 -0.41314515910E+02 -0.76842148659E+02  0.21937261750E+03  0.23608462539E+03  0.51100000000E-03 0.  1.
         22    1    1    2    0    0 -0.34187887963E+02  0.16853961619E+03  0.60462355457E+03  0.62860484937E+03  0.00000000000E+00 0.  1.
          2    1    1    2  501    0  0.75502403873E+02 -0.91697467529E+02  0.13312550870E+03  0.17841367553E+03  0.25500000000E-02 0.  1.
<mgrwt>
<rscale>  0 0.12650110E+03</rscale>
<asrwt>0</asrwt>
<pdfrwt beam="1">  1       11 0.10000000E+01 0.87244513E+02</pdfrwt>
<pdfrwt beam="2">  1        2 0.66147025E-02 0.12650110E+03</pdfrwt>
<totfact> 0.12701373E+03</totfact>
</mgrwt>
</event>
<event>
 5    1  0.2804411E-003  0.1718018E+03  0.7818608E-02  0.1179068E+00
         11   -1    0    0    0    0  0.00000000000E+00  0.00000000000E+00  0.10004816171E+04  0.10004816171E+04  0.51100000000E-03 0. -1.
          2   -1    0    0  501    0 -0.00000000000E+00 -0.00000000000E+00 -0.30119362953E+02  0.30119363061E+02  0.25500000000E-02 0. -1.
         11    1    1    2    0    0 -0.30191661049E+02 -0.12361053303E+03  0.39920179132E+03  0.41899065678E+03  0.51100000000E-03 0. -1.
         22    1    1    2    0    0  0.13544347205E+01 -0.42743659355E+02  0.18963053550E+03  0.19439288799E+03  0.00000000000E+00 0. -1.
          2    1    1    2  501    0  0.28837226329E+02  0.16635419238E+03  0.38152992737E+03  0.41721743544E+03  0.25500000000E-02 0. -1.
<mgrwt>
<rscale>  0 0.16883514E+03</rscale>
<asrwt>0</asrwt>
<pdfrwt beam="1">  1       11 0.10000000E+01 0.17180182E+03</pdfrwt>
<pdfrwt beam="2">  1        2 0.46359797E-02 0.16883514E+03</pdfrwt>
<totfact> 0.20600684E+03</totfact>
</mgrwt>
</event>
<event>
 5    1  0.2804411E-003  0.1258213E+03  0.7818608E-02  0.1735432E+00
         11   -1    0    0    0    0  0.00000000000E+00  0.00000000000E+00  0.99994307426E+03  0.99994307426E+03  0.51100000000E-03 0.  1.
         -2   -1    0    0    0  501 -0.00000000000E+00 -0.00000000000E+00 -0.35516472442E+02  0.35516472533E+02  0.25500000000E-02 0. -1.
         11    1    1    2    0    0  0.13188183778E+03  0.17209174280E+02  0.65690374306E+03  0.67023242421E+03  0.51100000000E-03 0.  1.
         22    1    1    2    0    0 -0.11513328400E+03 -0.53762510880E+01  0.32074622181E+03  0.34082651887E+03  0.00000000000E+00 0. -1.
         -2    1    1    2    0  501 -0.16748553782E+02 -0.11832923192E+02 -0.13223363047E+02  0.24400603718E+02  0.25500000000E-02 0. -1.
<mgrwt>
<rscale>  0 0.20506880E+02</rscale>
<asrwt>0</asrwt>
<pdfrwt beam="1">  1       11 0.10000000E+01 0.12582128E+03</pdfrwt>
<pdfrwt beam="2">  1       -2 0.54637615E-02 0.20506880E+02</pdfrwt>
<totfact> 0.10495096E+03</totfact>
</mgrwt>
</event>
<event>
 5    1  0.2804411E-003  0.7470610E+02  0.7818608E-02  0.1344784E+00
         11   -1    0    0    0    0  0.00000000000E+00  0.00000000000E+00  0.10004243906E+04  0.10004243906E+04  0.51100000000E-03 0. -1.
          2   -1    0    0  501    0 -0.00000000000E+00 -0.00000000000E+00 -0.22401547218E+02  0.22401547363E+02  0.25500000000E-02 0. -1.
         11    1    1    2    0    0 -0.60452267430E+00  0.28706269658E+02  0.17006817938E+02  0.33371353313E+02  0.51100000000E-03 0. -1.
         22    1    1    2    0    0  0.72783596273E+02  0.13823220361E+02  0.10042120982E+03  0.12479163710E+03  0.00000000000E+00 0. -1.
          2    1    1    2  501    0 -0.72179073599E+02 -0.42529490019E+02  0.86059481558E+03  0.86466294751E+03  0.25500000000E-02 0. -1.
<mgrwt>
<rscale>  0 0.74706095E+02</rscale>
<asrwt>0</asrwt>
<pdfrwt beam="1">  1       11 0.10000000E+01 0.28712649E+02</pdfrwt>
<pdfrwt beam="2">  1        2 0.34478544E-02 0.74706095E+02</pdfrwt>
<totfact> 0.28142609E+03</totfact>
</mgrwt>
</event>
<event>
 5    1  0.2804411E-003  0.2256893E+03  0.7818608E-02  0.1134453E+00
         11   -1    0    0    0    0  0.00000000000E+00  0.00000000000E+00  0.99940883353E+03  0.99940883353E+03  0.51100000000E-03 0.  1.
          2   -1    0    0  501    0 -0.00000000000E+00 -0.00000000000E+00 -0.14736678466E+04  0.14736678466E+04  0.25500000000E-02 0.  1.
         11    1    1    2    0    0 -0.13133186425E+03  0.13323323551E+02  0.58002269651E+03  0.59485451833E+03  0.51100000000E-03 0.  1.
         22    1    1    2    0    0 -0.86817627678E+02 -0.35129562285E+02  0.39831331876E+03  0.40917586258E+03  0.00000000000E+00 0. -1.
          2    1    1    2  501    0  0.21814949193E+03  0.21806238734E+02 -0.14525950284E+04  0.14690462992E+04  0.25500000000E-02 0.  1.
<mgrwt>
<rscale>  0 0.21923666E+03</rscale>
<asrwt>0</asrwt>
<pdfrwt beam="1">  1       11 0.10000000E+01 0.22568927E+03</pdfrwt>
<pdfrwt beam="2">  1        2 0.22658410E+00 0.21923666E+03</pdfrwt>
<totfact> 0.17970183E+01</totfact>
</mgrwt>
</event>
<event>
 5    1  0.2804411E-003  0.1250141E+03  0.7818608E-02  0.1376784E+00
         11   -1    0    0    0    0  0.00000000000E+00  0.00000000000E+00  0.10000018883E+04  0.10000018883E+04  0.51100000000E-03 0. -1.
         -2   -1    0    0    0  501 -0.00000000000E+00 -0.00000000000E+00 -0.16748800099E+03  0.16748800101E+03  0.25500000000E-02 0.  1.
         11    1    1    2    0    0  0.10172020908E+03  0.39776840447E+02  0.46024997252E+03  0.47303195999E+03  0.51100000000E-03 0. -1.
         22    1    1    2    0    0 -0.15915075947E+03 -0.86639282500E+01  0.51413457862E+03  0.53827352975E+03  0.00000000000E+00 0.  1.
         -2    1    1    2    0  501  0.57430550389E+02 -0.31112912197E+02 -0.14187066381E+03  0.15618439960E+03  0.25500000000E-02 0.  1.
<mgrwt>
<rscale>  0 0.65316778E+02</rscale>
<asrwt>0</asrwt>
<pdfrwt beam="1">  1       11 0.10000000E+01 0.12501413E+03</pdfrwt>
<pdfrwt beam="2">  1       -2 0.25767433E-01 0.65316778E+02</pdfrwt>
<totfact> 0.10467144E+02</totfact>
</mgrwt>
</event>
<event>
 5    1  0.2804411E-003  0.6595698E+02  0.7818608E-02  0.1471474E+00
         11   -1    0    0    0    0  0.00000000000E+00  0.00000000000E+00  0.10000800911E+04  0.10000800911E+04  0.51100000000E-03 0.  1.
          2   -1    0    0  501    0 -0.00000000000E+00 -0.00000000000E+00 -0.97871378735E+01  0.97871382057E+01  0.25500000000E-02 0.  1.
         11    1    1    2    0    0 -0.12882066271E+02  0.81071485506E+02  0.38920665369E+03  0.39776922037E+03  0.51100000000E-03 0.  1.
         22    1    1    2    0    0  0.35391102796E+02 -0.41572241931E+02  0.16838463974E+03  0.17701459928E+03  0.00000000000E+00 0.  1.
          2    1    1    2  501    0 -0.22509036526E+02 -0.39499243574E+02  0.43270165976E+03  0.43508340963E+03  0.25500000000E-02 0.  1.
<mgrwt>
<rscale>  0 0.45462589E+02</rscale>
<asrwt>0</asrwt>
<pdfrwt beam="1">  1       11 0.10000000E+01 0.65956978E+02</pdfrwt>
<pdfrwt beam="2">  1        2 0.15058341E-02 0.45462589E+02</pdfrwt>
<totfact> 0.78494818E+03</totfact>
</mgrwt>
</event>
<event>
 5    1  0.2804411E-003  0.9254082E+02  0.7818608E-02  0.1447318E+00
         11   -1    0    0    0    0  0.00000000000E+00  0.00000000000E+00  0.10002257554E+04  0.10002257554E+04  0.51100000000E-03 0.  1.
          2   -1    0    0  501    0 -0.00000000000E+00 -0.00000000000E+00 -0.26209978708E+03  0.26209978710E+03  0.25500000000E-02 0. -1.
         11    1    1    2    0    0  0.11233619675E+03  0.86225954234E+01  0.62136011920E+03  0.63149201736E+03  0.51100000000E-03 0.  1.
         22    1    1    2    0    0 -0.70628886581E+02 -0.35533058497E+02  0.36715538330E+03  0.37557171533E+03  0.00000000000E+00 0.  1.
          2    1    1    2  501    0 -0.41707310167E+02  0.26910463074E+02 -0.25038953415E+03  0.25526180984E+03  0.25500000000E-02 0. -1.
<mgrwt>
<rscale>  0 0.49635398E+02</rscale>
<asrwt>0</asrwt>
<pdfrwt beam="1">  1       11 0.10000000E+01 0.92540822E+02</pdfrwt>
<pdfrwt beam="2">  1        2 0.40332146E-01 0.49635398E+02</pdfrwt>
<totfact> 0.15420615E+02</totfact>
</mgrwt>
</event>
<event>
 5    1  0.2804411E-003  0.2419679E+03  0.7818608E-02  0.1125287E+00
         11   -1    0    0    0    0  0.00000000000E+00  0.00000000000E+00  0.10004025369E+04  0.10004025369E+04  0.51100000000E-03 0. -1.
          2   -1    0    0  501    0 -0.00000000000E+00 -0.00000000000E+00 -0.53241982770E+03  0.53241982770E+03  0.25500000000E-02 0. -1.
         11    1    1    2    0    0  0.76691854825E+02 -0.15156734922E+03  0.79272885029E+03  0.81072395550E+03  0.51100000000E-03 0. -1.
         22    1    1    2    0    0  0.93146786611E+01 -0.63829471254E+02  0.16666015797E+03  0.17870806611E+03  0.00000000000E+00 0. -1.
          2    1    1    2  501    0 -0.86006533486E+02  0.21539682047E+03 -0.49140629907E+03  0.54339034298E+03  0.25500000000E-02 0. -1.
<mgrwt>
<rscale>  0 0.23193299E+03</rscale>
<asrwt>0</asrwt>
<pdfrwt beam="1">  1       11 0.10000000E+01 0.24196788E+03</pdfrwt>
<pdfrwt beam="2">  1        2 0.81943712E-01 0.23193299E+03</pdfrwt>
<totfact> 0.72388569E+01</totfact>
</mgrwt>
</event>
<event>
 5    1  0.2804411E-003  0.2095845E+03  0.7818608E-02  0.1651277E+00
         11   -1    0    0    0    0  0.00000000000E+00  0.00000000000E+00  0.10012663288E+04  0.10012663288E+04  0.51100000000E-03 0. -1.
          2   -1    0    0  501    0 -0.00000000000E+00 -0.00000000000E+00 -0.12595930416E+04  0.12595930416E+04  0.25500000000E-02 0.  1.
         11    1    1    2    0    0  0.20323116237E+03  0.21562619414E+02  0.42855490041E+03  0.47479169599E+03  0.51100000000E-03 0. -1.
         22    1    1    2    0    0 -0.20988395589E+03 -0.46376795290E+02  0.52843558821E+03  0.57047896803E+03  0.00000000000E+00 0. -1.
          2    1    1    2  501    0  0.66527935227E+01  0.24814175876E+02 -0.12153172014E+04  0.12155887064E+04  0.25500000000E-02 0.  1.
<mgrwt>
<rscale>  0 0.25690523E+02</rscale>
<asrwt>0</asrwt>
<pdfrwt beam="1">  1       11 0.10000000E+01 0.20958448E+03</pdfrwt>
<pdfrwt beam="2">  1        2 0.19402893E+00 0.25690523E+02</pdfrwt>
<totfact> 0.27147322E+01</totfact>
</mgrwt>
</event>
<event>
 5    1  0.2804411E-003  0.1503097E+03  0.7818608E-02  0.1338258E+00
         11   -1    0    0    0    0  0.00000000000E+00  0.00000000000E+00  0.10000330800E+04  0.10000330800E+04  0.51100000000E-03 0.  1.
          2   -1    0    0  501    0 -0.00000000000E+00 -0.00000000000E+00 -0.43352559571E+02  0.43352559646E+02  0.25500000000E-02 0.  1.
         11    1    1    2    0    0 -0.59730637519E+02 -0.10969676211E+03  0.37293639219E+03  0.39329719207E+03  0.51100000000E-03 0.  1.
         22    1    1    2    0    0  0.77950548784E+02  0.18434821459E+03  0.48709872402E+03  0.52661724166E+03  0.00000000000E+00 0.  1.
          2    1    1    2  501    0 -0.18219911265E+02 -0.74651452490E+02  0.96645404245E+02  0.12347120593E+03  0.25500000000E-02 0.  1.
<mgrwt>
<rscale>  0 0.76842726E+02</rscale>
<asrwt>0</asrwt>
<pdfrwt beam="1">  1       11 0.10000000E+01 0.15030971E+03</pdfrwt>
<pdfrwt beam="2">  1        2 0.66698450E-02 0.76842726E+02</pdfrwt>
<totfact> 0.12091046E+03</totfact>
</mgrwt>
</event>
<event>
 5    1  0.2804411E-003  0.9392411E+02  0.7818608E-02  0.1303607E+00
         11   -1    0    0    0    0  0.00000000000E+00  0.00000000000E+00  0.99977707562E+03  0.99977707562E+03  0.51100000000E-03 0. -1.
          2   -1    0    0  501    0 -0.00000000000E+00 -0.00000000000E+00 -0.85728777821E+01  0.85728781613E+01  0.25500000000E-02 0. -1.
         11    1    1    2    0    0 -0.68813721398E+02 -0.20907817162E+01  0.32478598896E+03  0.33200246723E+03  0.51100000000E-03 0. -1.
         22    1    1    2    0    0 -0.19903679283E+02  0.15255550549E+02  0.11705707641E+03  0.11971318812E+03  0.00000000000E+00 0.  1.
          2    1    1    2  501    0  0.88717400681E+02 -0.13164768832E+02  0.54936113247E+03  0.55663429843E+03  0.25500000000E-02 0. -1.
<mgrwt>
<rscale>  0 0.89688842E+02</rscale>
<asrwt>0</asrwt>
<pdfrwt beam="1">  1       11 0.10000000E+01 0.93924112E+02</pdfrwt>
<pdfrwt beam="2">  1        2 0.13186102E-02 0.89688842E+02</pdfrwt>
<totfact> 0.10443597E+04</totfact>
</mgrwt>
</event>
<event>
 5    1  0.2804411E-003  0.2471084E+03  0.7818608E-02  0.1115146E+00
         11   -1    0    0    0    0  0.00000000000E+00  0.00000000000E+00  0.10001345706E+04  0.10001345706E+04  0.51100000000E-03 0. -1.
          2   -1    0    0  501    0 -0.00000000000E+00 -0.00000000000E+00 -0.59430279849E+03  0.59430279849E+03  0.25500000000E-02 0. -1.
         11    1    1    2    0    0  0.24431990678E+03 -0.19857264042E+02  0.80401806929E+03  0.84055433110E+03  0.51100000000E-03 0. -1.
         22    1    1    2    0    0 -0.50822301754E+00  0.61949410676E+02  0.14462925348E+03  0.15733915195E+03  0.00000000000E+00 0. -1.
          2    1    1    2  501    0 -0.24381168376E+03 -0.42092146634E+02 -0.54281555065E+03  0.59654388605E+03  0.25500000000E-02 0. -1.
<mgrwt>
<rscale>  0 0.24710843E+03</rscale>
<asrwt>0</asrwt>
<pdfrwt beam="1">  1       11 0.10000000E+01 0.61951495E+02</pdfrwt>
<pdfrwt beam="2">  1        2 0.91443501E-01 0.24710843E+03</pdfrwt>
<totfact> 0.63754578E+01</totfact>
</mgrwt>
</event>
<event>
 5    1  0.2804411E-003  0.1080363E+03  0.7818608E-02  0.1264250E+00
         11   -1    0    0    0    0  0.00000000000E+00  0.00000000000E+00  0.10001834032E+04  0.10001834032E+04  0.51100000000E-03 0.  1.
         -2   -1    0    0    0  501 -0.00000000000E+00 -0.00000000000E+00 -0.17053394059E+03  0.17053394061E+03  0.25500000000E-02 0.  1.
         11    1    1    2    0    0 -0.26641874034E+02  0.11389045281E+03  0.66834588624E+03  0.67850353598E+03  0.51100000000E-03 0.  1.
         22    1    1    2    0    0  0.67478298371E+02 -0.13519025170E+02  0.30475866309E+03  0.31243227669E+03  0.00000000000E+00 0. -1.
         -2    1    1    2    0  501 -0.40836424337E+02 -0.10037142764E+03 -0.14345508669E+03  0.17978153115E+03  0.25500000000E-02 0.  1.
<mgrwt>
<rscale>  0 0.10803628E+03</rscale>
<asrwt>0</asrwt>
<pdfrwt beam="1">  1       11 0.10000000E+01 0.68819218E+02</pdfrwt>
<pdfrwt beam="2">  1       -2 0.26240802E-01 0.10803628E+03</pdfrwt>
<totfact> 0.10294130E+02</totfact>
</mgrwt>
</event>
<event>
 5    1  0.2804411E-003  0.8548933E+02  0.7818608E-02  0.1344006E+00
         11   -1    0    0    0    0  0.00000000000E+00  0.00000000000E+00  0.10002054447E+04  0.10002054447E+04  0.51100000000E-03 0. -1.
          2   -1    0    0  501    0 -0.00000000000E+00 -0.00000000000E+00 -0.16697944570E+02  0.16697944764E+02  0.25500000000E-02 0. -1.
         11    1    1    2    0    0  0.40584869085E+02 -0.82656955975E+02  0.51301317965E+03  0.52121188250E+03  0.51100000000E-03 0. -1.
         22    1    1    2    0    0 -0.65678312229E+02 -0.23701166408E+01  0.23665940922E+03  0.24561541914E+03  0.00000000000E+00 0. -1.
          2    1    1    2  501    0  0.25093443144E+02  0.85027072616E+02  0.23383491131E+03  0.25007608786E+03  0.25500000000E-02 0. -1.
<mgrwt>
<rscale>  0 0.74956320E+02</rscale>
<asrwt>0</asrwt>
<pdfrwt beam="1">  1       11 0.10000000E+01 0.85489334E+02</pdfrwt>
<pdfrwt beam="2">  1        2 0.25694423E-02 0.74956320E+02</pdfrwt>
<totfact> 0.41503995E+03</totfact>
</mgrwt>
</event>
<event>
 5    1  0.2804411E-003  0.1196692E+03  0.7818608E-02  0.1252634E+00
         11   -1    0    0    0    0  0.00000000000E+00  0.00000000000E+00  0.10000131868E+04  0.10000131868E+04  0.51100000000E-03 0. -1.
         -2   -1    0    0    0  501 -0.00000000000E+00 -0.00000000000E+00 -0.13906049220E+02  0.13906049454E+02  0.25500000000E-02 0. -1.
         11    1    1    2    0    0 -0.96291610977E+02 -0.23988205412E+02  0.36618538507E+03  0.37939325848E+03  0.51100000000E-03 0. -1.
         22    1    1    2    0    0 -0.10249415939E+02 -0.17678240844E+02  0.75627853274E+02  0.78339919054E+02  0.00000000000E+00 0. -1.
         -2    1    1    2    0  501  0.10654102692E+03  0.41666446256E+02  0.54429389921E+03  0.55618605870E+03  0.25500000000E-02 0. -1.
<mgrwt>
<rscale>  0 0.11439879E+03</rscale>
<asrwt>0</asrwt>
<pdfrwt beam="1">  1       11 0.10000000E+01 0.11966923E+03</pdfrwt>
<pdfrwt beam="2">  1       -2 0.21394204E-02 0.11439879E+03</pdfrwt>
<totfact> 0.50626807E+03</totfact>
</mgrwt>
</event>
<event>
 5    1  0.2804411E-003  0.3405911E+03  0.7818608E-02  0.1069452E+00
         11   -1    0    0    0    0  0.00000000000E+00  0.00000000000E+00  0.10002939325E+04  0.10002939325E+04  0.51100000000E-03 0. -1.
          2   -1    0    0  501    0 -0.00000000000E+00 -0.00000000000E+00 -0.56751644342E+03  0.56751644342E+03  0.25500000000E-02 0.  1.
         11    1    1    2    0    0  0.61142953452E+02  0.20999441803E+03  0.54772345136E+03  0.58977715752E+03  0.51100000000E-03 0. -1.
         22    1    1    2    0    0 -0.10497171939E+02  0.11997818339E+03  0.37010217377E+03  0.38920505410E+03  0.00000000000E+00 0. -1.
          2    1    1    2  501    0 -0.50645781513E+02 -0.32997260142E+03 -0.48504813601E+03  0.58882816435E+03  0.25500000000E-02 0.  1.
<mgrwt>
<rscale>  0 0.33383666E+03</rscale>
<asrwt>0</asrwt>
<pdfrwt beam="1">  1       11 0.10000000E+01 0.34059109E+03</pdfrwt>
<pdfrwt beam="2">  1        2 0.87335883E-01 0.33383666E+03</pdfrwt>
<totfact> 0.66806147E+01</totfact>
</mgrwt>
</event>
<event>
 5    1  0.2804411E-003  0.1164030E+03  0.7818608E-02  0.1253575E+00
         11   -1    0    0    0    0  0.00000000000E+00  0.00000000000E+00  0.10002455742E+04  0.10002455742E+04  0.51100000000E-03 0.  1.
          2   -1    0    0  501    0 -0.00000000000E+00 -0.00000000000E+00 -0.13265720047E+02  0.13265720292E+02  0.25500000000E-02 0.  1.
         11    1    1    2    0    0  0.59986695449E+02  0.24410811971E+02  0.34060909331E+03  0.34671147344E+03  0.51100000000E-03 0.  1.
         22    1    1    2    0    0  0.42115214702E+02  0.25993016222E+02  0.17422470915E+03  0.18111757916E+03  0.00000000000E+00 0. -1.
          2    1    1    2  501    0 -0.10210191015E+03 -0.50403828192E+02  0.47214605172E+03  0.48568224192E+03  0.25500000000E-02 0.  1.
<mgrwt>
<rscale>  0 0.11386547E+03</rscale>
<asrwt>0</asrwt>
<pdfrwt beam="1">  1       11 0.10000000E+01 0.11640303E+03</pdfrwt>
<pdfrwt beam="2">  1        2 0.20413812E-02 0.11386547E+03</pdfrwt>
<totfact> 0.59514911E+03</totfact>
</mgrwt>
</event>
<event>
 5    1  0.2804411E-003  0.2181034E+03  0.7818608E-02  0.1152699E+00
         11   -1    0    0    0    0  0.00000000000E+00  0.00000000000E+00  0.10002731599E+04  0.10002731599E+04  0.51100000000E-03 0.  1.
          2   -1    0    0  501    0 -0.00000000000E+00 -0.00000000000E+00 -0.54662257718E+03  0.54662257718E+03  0.25500000000E-02 0.  1.
         11    1    1    2    0    0  0.14034684496E+02  0.91144416307E+02  0.41218123030E+03  0.42237145217E+03  0.51100000000E-03 0.  1.
         22    1    1    2    0    0  0.10990471567E+03  0.61379774940E+02  0.55791897199E+03  0.57194414291E+03  0.00000000000E+00 0.  1.
          2    1    1    2  501    0 -0.12393940016E+03 -0.15252419125E+03 -0.51644961955E+03  0.55258014203E+03  0.25500000000E-02 0.  1.
<mgrwt>
<rscale>  0 0.19653143E+03</rscale>
<asrwt>0</asrwt>
<pdfrwt beam="1">  1       11 0.10000000E+01 0.21810342E+03</pdfrwt>
<pdfrwt beam="2">  1        2 0.84118750E-01 0.19653143E+03</pdfrwt>
<totfact> 0.70492192E+01</totfact>
</mgrwt>
</event>
<event>
 5    1  0.2804411E-003  0.2207753E+03  0.7818608E-02  0.1147898E+00
         11   -1    0    0    0    0  0.00000000000E+00  0.00000000000E+00  0.99980393526E+03  0.99980393526E+03  0.51100000000E-03 0.  1.
          2   -1    0    0  501    0 -0.00000000000E+00 -0.00000000000E+00 -0.43520877182E+03  0.43520877182E+03  0.25500000000E-02 0.  1.
         11    1    1    2    0    0  0.16394107110E+03 -0.56689568427E+02  0.70980565826E+03  0.73069450146E+03  0.51100000000E-03 0.  1.
         22    1    1    2    0    0  0.11223662359E+02 -0.44310881456E+02  0.25332935081E+03  0.25742024939E+03  0.00000000000E+00 0.  1.
          2    1    1    2  501    0 -0.17516473346E+03  0.10100044988E+03 -0.39853984563E+03  0.44689795624E+03  0.25500000000E-02 0.  1.
<mgrwt>
<rscale>  0 0.20219737E+03</rscale>
<asrwt>0</asrwt>
<pdfrwt beam="1">  1       11 0.10000000E+01 0.22077526E+03</pdfrwt>
<pdfrwt beam="2">  1        2 0.66942066E-01 0.20219737E+03</pdfrwt>
<totfact> 0.90798026E+01</totfact>
</mgrwt>
</event>
<event>
 5    1  0.2804411E-003  0.9493132E+02  0.7818608E-02  0.1291331E+00
         11   -1    0    0    0    0  0.00000000000E+00  0.00000000000E+00  0.10000482756E+04  0.10000482756E+04  0.51100000000E-03 0.  1.
          2   -1    0    0  501    0 -0.00000000000E+00 -0.00000000000E+00 -0.15878463892E+02  0.15878464097E+02  0.25500000000E-02 0.  1.
         11    1    1    2    0    0 -0.23127265444E+02  0.82800963591E+02  0.25896791934E+03  0.27286489922E+03  0.51100000000E-03 0.  1.
         22    1    1    2    0    0  0.32130412605E+02  0.31791434570E+02  0.25786985430E+03  0.26180129962E+03  0.00000000000E+00 0.  1.
          2    1    1    2  501    0 -0.90031471613E+01 -0.11459239816E+03  0.46733203805E+03  0.48126054084E+03  0.25500000000E-02 0.  1.
<mgrwt>
<rscale>  0 0.94931319E+02</rscale>
<asrwt>0</asrwt>
<pdfrwt beam="1">  1       11 0.10000000E+01 0.45200207E+02</pdfrwt>
<pdfrwt beam="2">  1        2 0.24429585E-02 0.94931319E+02</pdfrwt>
<totfact> 0.45694761E+03</totfact>
</mgrwt>
</event>
<event>
 5    1  0.2804411E-003  0.9467602E+02  0.7818608E-02  0.1496572E+00
         11   -1    0    0    0    0  0.00000000000E+00  0.00000000000E+00  0.10009745147E+04  0.10009745147E+04  0.51100000000E-03 0.  1.
          2   -1    0    0  501    0 -0.00000000000E+00 -0.00000000000E+00 -0.12216618092E+04  0.12216618092E+04  0.25500000000E-02 0.  1.
         11    1    1    2    0    0  0.81913617037E+02 -0.87738546608E+02  0.59329044550E+03  0.60531103239E+03  0.51100000000E-03 0.  1.
         22    1    1    2    0    0 -0.51922226347E+02  0.58871925363E+02  0.39747779531E+03  0.40515480862E+03  0.00000000000E+00 0.  1.
          2    1    1    2  501    0 -0.29991390690E+02  0.28866621245E+02 -0.12114555354E+04  0.12121704829E+04  0.25500000000E-02 0.  1.
<mgrwt>
<rscale>  0 0.41626498E+02</rscale>
<asrwt>0</asrwt>
<pdfrwt beam="1">  1       11 0.10000000E+01 0.94676015E+02</pdfrwt>
<pdfrwt beam="2">  1        2 0.18813112E+00 0.41626498E+02</pdfrwt>
<totfact> 0.27408003E+01</totfact>
</mgrwt>
</event>
<event>
 5    1  0.2804411E-003  0.1391776E+03  0.7818608E-02  0.1217740E+00
         11   -1    0    0    0    0  0.00000000000E+00  0.00000000000E+00  0.10004284501E+04  0.10004284501E+04  0.51100000000E-03 0. -1.
         -2   -1    0    0    0  501 -0.00000000000E+00 -0.00000000000E+00 -0.19622983541E+02  0.19622983707E+02  0.25500000000E-02 0.  1.
         11    1    1    2    0    0 -0.10807942881E+03 -0.84721712108E+01  0.50182732748E+03  0.51340394157E+03  0.51100000000E-03 0. -1.
         22    1    1    2    0    0 -0.28217006622E+02 -0.29216559044E+01  0.81463013492E+02  0.86260988303E+02  0.00000000000E+00 0.  1.
         -2    1    1    2    0  501  0.13629643543E+03  0.11393827115E+02  0.39751512556E+03  0.42038650390E+03  0.25500000000E-02 0.  1.
<mgrwt>
<rscale>  0 0.13677185E+03</rscale>
<asrwt>0</asrwt>
<pdfrwt beam="1">  1       11 0.10000000E+01 0.13917761E+03</pdfrwt>
<pdfrwt beam="2">  1       -2 0.30202139E-02 0.13677185E+03</pdfrwt>
<totfact> 0.31251328E+03</totfact>
</mgrwt>
</event>
<event>
 5    1  0.2804411E-003  0.2558463E+03  0.7818608E-02  0.1115647E+00
         11   -1    0    0    0    0  0.00000000000E+00  0.00000000000E+00  0.10001648040E+04  0.10001648040E+04  0.51100000000E-03 0. -1.
          2   -1    0    0  501    0 -0.00000000000E+00 -0.00000000000E+00 -0.40057404936E+03  0.40057404937E+03  0.25500000000E-02 0. -1.
         11    1    1    2    0    0  0.69829186280E+02  0.31585166828E+01  0.23223162172E+03  0.24252343724E+03  0.51100000000E-03 0. -1.
         22    1    1    2    0    0  0.14816056420E+03  0.11155159605E+03  0.71134651758E+03  0.73512528145E+03  0.00000000000E+00 0. -1.
          2    1    1    2  501    0 -0.21798975048E+03 -0.11471011273E+03 -0.34398738464E+03  0.42309013469E+03  0.25500000000E-02 0. -1.
<mgrwt>
<rscale>  0 0.24632893E+03</rscale>
<asrwt>0</asrwt>
<pdfrwt beam="1">  1       11 0.10000000E+01 0.25584627E+03</pdfrwt>
<pdfrwt beam="2">  1        2 0.61636931E-01 0.24632893E+03</pdfrwt>
<totfact> 0.99184312E+01</totfact>
</mgrwt>
</event>
<event>
 5    1  0.3493851E-003  0.3366355E+03  0.7818608E-02  0.1068587E+00
         11   -1    0    0    0    0  0.00000000000E+00  0.00000000000E+00  0.10002699932E+04  0.10002699932E+04  0.51100000000E-03 0. -1.
         -2   -1    0    0    0  501 -0.00000000000E+00 -0.00000000000E+00 -0.20773743814E+03  0.20773743815E+03  0.25500000000E-02 0.  1.
         11    1    1    2    0    0  0.10940865080E+02  0.32604616046E+03  0.77426282345E+03  0.84018374244E+03  0.51100000000E-03 0. -1.
         22    1    1    2    0    0 -0.31762167993E+01  0.96924438910E+01  0.30105951323E+02  0.31786791703E+02  0.00000000000E+00 0.  1.
         -2    1    1    2    0  501 -0.77646482811E+01 -0.33573860435E+03 -0.11836219667E+02  0.33603689725E+03  0.25500000000E-02 0.  1.
<mgrwt>
<rscale>  0 0.33582838E+03</rscale>
<asrwt>0</asrwt>
<pdfrwt beam="1">  1       11 0.10000000E+01 0.33663554E+03</pdfrwt>
<pdfrwt beam="2">  1       -2 0.31968234E-01 0.33582838E+03</pdfrwt>
<totfact> 0.73516964E+01</totfact>
</mgrwt>
</event>
<event>
 5    1  0.2804411E-003  0.2175174E+03  0.7818608E-02  0.1139184E+00
         11   -1    0    0    0    0  0.00000000000E+00  0.00000000000E+00  0.10002639500E+04  0.10002639500E+04  0.51100000000E-03 0. -1.
          2   -1    0    0  501    0 -0.00000000000E+00 -0.00000000000E+00 -0.14405561371E+03  0.14405561373E+03  0.25500000000E-02 0. -1.
         11    1    1    2    0    0  0.10134014566E+03  0.92423108706E+02  0.48605197888E+03  0.50503305072E+03  0.51100000000E-03 0. -1.
         22    1    1    2    0    0  0.52146505674E+02  0.55314086883E+02  0.41472802009E+03  0.42163756582E+03  0.00000000000E+00 0. -1.
          2    1    1    2  501    0 -0.15348665133E+03 -0.14773719559E+03 -0.44571662672E+02  0.21764894720E+03  0.25500000000E-02 0. -1.
<mgrwt>
<rscale>  0 0.21303622E+03</rscale>
<asrwt>0</asrwt>
<pdfrwt beam="1">  1       11 0.10000000E+01 0.21751741E+03</pdfrwt>
<pdfrwt beam="2">  1        2 0.22168251E-01 0.21303622E+03</pdfrwt>
<totfact> 0.30296825E+02</totfact>
</mgrwt>
</event>
<event>
 5    1  0.2804411E-003  0.2124792E+03  0.7818608E-02  0.1141131E+00
         11   -1    0    0    0    0  0.00000000000E+00  0.00000000000E+00  0.10001626225E+04  0.10001626225E+04  0.51100000000E-03 0. -1.
          2   -1    0    0  501    0 -0.00000000000E+00 -0.00000000000E+00 -0.13336587231E+03  0.13336587234E+03  0.25500000000E-02 0. -1.
         11    1    1    2    0    0 -0.67723124397E+02  0.17763873533E+03  0.83228120973E+03  0.85371772497E+03  0.51100000000E-03 0. -1.
         22    1    1    2    0    0 -0.19489546755E+01  0.21049746599E+02  0.63821060236E+02  0.67231079017E+02  0.00000000000E+00 0.  1.
          2    1    1    2  501    0  0.69672079072E+02 -0.19868848193E+03 -0.29305519802E+02  0.21257969082E+03  0.25500000000E-02 0. -1.
<mgrwt>
<rscale>  0 0.21055002E+03</rscale>
<asrwt>0</asrwt>
<pdfrwt beam="1">  1       11 0.10000000E+01 0.21247923E+03</pdfrwt>
<pdfrwt beam="2">  1        2 0.20521163E-01 0.21055002E+03</pdfrwt>
<totfact> 0.33064747E+02</totfact>
</mgrwt>
</event>
<event>
 5    1  0.2804411E-003  0.5709756E+03  0.7818608E-02  0.1000945E+00
         11   -1    0    0    0    0  0.00000000000E+00  0.00000000000E+00  0.10003466710E+04  0.10003466710E+04  0.51100000000E-03 0. -1.
          2   -1    0    0  501    0 -0.00000000000E+00 -0.00000000000E+00 -0.36846327990E+03  0.36846327991E+03  0.25500000000E-02 0. -1.
         11    1    1    2    0    0  0.22278356660E+03 -0.33899373437E+03 -0.20881365464E+02  0.40618382650E+03  0.51100000000E-03 0. -1.
         22    1    1    2    0    0  0.73889351299E+02 -0.12695484121E+03  0.81537612507E+02  0.16800461362E+03  0.00000000000E+00 0.  1.
          2    1    1    2  501    0 -0.29667291790E+03  0.46594857558E+03  0.57122714406E+03  0.79462151079E+03  0.25500000000E-02 0. -1.
<mgrwt>
<rscale>  0 0.55237930E+03</rscale>
<asrwt>0</asrwt>
<pdfrwt beam="1">  1       11 0.10000000E+01 0.57097564E+03</pdfrwt>
<pdfrwt beam="2">  1        2 0.56706308E-01 0.55237930E+03</pdfrwt>
<totfact> 0.10806077E+02</totfact>
</mgrwt>
</event>
<event>
 5    1  0.2804411E-003  0.2856928E+02  0.7818608E-02  0.1787308E+00
         11   -1    0    0    0    0  0.00000000000E+00  0.00000000000E+00  0.10000516798E+04  0.10000516798E+04  0.51100000000E-03 0.  1.
          2   -1    0    0  501    0 -0.00000000000E+00 -0.00000000000E+00 -0.49784723405E+01  0.49784729935E+01  0.25500000000E-02 0.  1.
         11    1    1    2    0    0  0.33183808121E+02 -0.92391673946E+00  0.60530489111E+02  0.69035924386E+02  0.51100000000E-03 0.  1.
         22    1    1    2    0    0 -0.61292815117E+01  0.96058164829E+01  0.65263299410E+02  0.66250570201E+02  0.00000000000E+00 0.  1.
          2    1    1    2  501    0 -0.27054526609E+02 -0.86818997434E+01  0.86927941892E+03  0.86974365818E+03  0.25500000000E-02 0.  1.
<mgrwt>
<rscale>  0 0.18042699E+02</rscale>
<asrwt>0</asrwt>
<pdfrwt beam="1">  1       11 0.10000000E+01 0.28569281E+02</pdfrwt>
<pdfrwt beam="2">  1        2 0.76595843E-03 0.18042699E+02</pdfrwt>
<totfact> 0.15698203E+04</totfact>
</mgrwt>
</event>
<event>
 5    1  0.2804411E-003  0.2921806E+03  0.7818608E-02  0.1089216E+00
         11   -1    0    0    0    0  0.00000000000E+00  0.00000000000E+00  0.10001602095E+04  0.10001602095E+04  0.51100000000E-03 0. -1.
          2   -1    0    0  501    0 -0.00000000000E+00 -0.00000000000E+00 -0.88912476152E+03  0.88912476152E+03  0.25500000000E-02 0. -1.
         11    1    1    2    0    0  0.22130552345E+03  0.18823730522E+03  0.93767609118E+03  0.98165465911E+03  0.51100000000E-03 0. -1.
         22    1    1    2    0    0  0.10096056033E+02 -0.97646926135E+01  0.12660211390E+02  0.18909270787E+02  0.00000000000E+00 0. -1.
          2    1    1    2  501    0 -0.23140157948E+03 -0.17847261261E+03 -0.83930085458E+03  0.88872104113E+03  0.25500000000E-02 0. -1.
<mgrwt>
<rscale>  0 0.29218058E+03</rscale>
<asrwt>0</asrwt>
<pdfrwt beam="1">  1       11 0.10000000E+01 0.14045625E+02</pdfrwt>
<pdfrwt beam="2">  1        2 0.13681034E+00 0.29218058E+03</pdfrwt>
<totfact> 0.38477855E+01</totfact>
</mgrwt>
</event>
<event>
 5    1  0.2804411E-003  0.4598998E+03  0.7818608E-02  0.1024810E+00
         11   -1    0    0    0    0  0.00000000000E+00  0.00000000000E+00  0.10001532436E+04  0.10001532436E+04  0.51100000000E-03 0. -1.
          2   -1    0    0  501    0 -0.00000000000E+00 -0.00000000000E+00 -0.38365447538E+03  0.38365447539E+03  0.25500000000E-02 0. -1.
         11    1    1    2    0    0 -0.27483253991E+03 -0.33500634184E+03  0.61656223910E+03  0.75359881154E+03  0.51100000000E-03 0. -1.
         22    1    1    2    0    0 -0.10878675841E+02 -0.34001970303E+02  0.13878533687E+03  0.14330334714E+03  0.00000000000E+00 0. -1.
          2    1    1    2  501    0  0.28571121575E+03  0.36900831215E+03 -0.13884880775E+03  0.48690556031E+03  0.25500000000E-02 0. -1.
<mgrwt>
<rscale>  0 0.45989982E+03</rscale>
<asrwt>0</asrwt>
<pdfrwt beam="1">  1       11 0.10000000E+01 0.35699854E+02</pdfrwt>
<pdfrwt beam="2">  1        2 0.59032809E-01 0.45989982E+03</pdfrwt>
<totfact> 0.10349078E+02</totfact>
</mgrwt>
</event>
<event>
 5    1  0.2804411E-003  0.1318781E+03  0.7818608E-02  0.1230879E+00
         11   -1    0    0    0    0  0.00000000000E+00  0.00000000000E+00  0.10004145632E+04  0.10004145632E+04  0.51100000000E-03 0.  1.
          2   -1    0    0  501    0 -0.00000000000E+00 -0.00000000000E+00 -0.17084906256E+02  0.17084906447E+02  0.25500000000E-02 0.  1.
         11    1    1    2    0    0 -0.72170669828E+02 -0.52463963881E+02  0.26386782621E+03  0.27854497446E+03  0.51100000000E-03 0.  1.
         22    1    1    2    0    0 -0.39951944084E+02 -0.86979092828E+01  0.17474912844E+03  0.17946885343E+03  0.00000000000E+00 0.  1.
          2    1    1    2  501    0  0.11212261391E+03  0.61161873164E+02  0.54471270230E+03  0.55948564176E+03  0.25500000000E-02 0.  1.
<mgrwt>
<rscale>  0 0.12771944E+03</rscale>
<asrwt>0</asrwt>
<pdfrwt beam="1">  1       11 0.10000000E+01 0.13187810E+03</pdfrwt>
<pdfrwt beam="2">  1        2 0.26295367E-02 0.12771944E+03</pdfrwt>
<totfact> 0.42811496E+03</totfact>
</mgrwt>
</event>
<event>
 5    1  0.2804411E-003  0.9571733E+02  0.7818608E-02  0.1555925E+00
         11   -1    0    0    0    0  0.00000000000E+00  0.00000000000E+00  0.10001856666E+04  0.10001856666E+04  0.51100000000E-03 0. -1.
          2   -1    0    0  501    0 -0.00000000000E+00 -0.00000000000E+00 -0.11244425493E+03  0.11244425496E+03  0.25500000000E-02 0.  1.
         11    1    1    2    0    0  0.23975796997E+02 -0.10612578181E+03  0.45468249458E+03  0.46751865341E+03  0.51100000000E-03 0. -1.
         22    1    1    2    0    0  0.58572716267E+01  0.89426634441E+02  0.53248368917E+03  0.53997250839E+03  0.00000000000E+00 0. -1.
          2    1    1    2  501    0 -0.29833068624E+02  0.16699147373E+02 -0.99424772052E+02  0.10513875979E+03  0.25500000000E-02 0.  1.
<mgrwt>
<rscale>  0 0.34188792E+02</rscale>
<asrwt>0</asrwt>
<pdfrwt beam="1">  1       11 0.10000000E+01 0.95717333E+02</pdfrwt>
<pdfrwt beam="2">  1        2 0.17302328E-01 0.34188792E+02</pdfrwt>
<totfact> 0.37132574E+02</totfact>
</mgrwt>
</event>
<event>
 5    1  0.2804411E-003  0.5041314E+03  0.7818608E-02  0.1028043E+00
         11   -1    0    0    0    0  0.00000000000E+00  0.00000000000E+00  0.10003499476E+04  0.10003499476E+04  0.51100000000E-03 0.  1.
          2   -1    0    0  501    0 -0.00000000000E+00 -0.00000000000E+00 -0.67853336509E+03  0.67853336510E+03  0.25500000000E-02 0.  1.
         11    1    1    2    0    0  0.60682038454E+02  0.24929227775E+03  0.64780620159E+03  0.69676525772E+03  0.51100000000E-03 0.  1.
         22    1    1    2    0    0  0.14848774521E+03  0.14792482471E+03  0.20061423232E+03  0.29013175361E+03  0.00000000000E+00 0. -1.
          2    1    1    2  501    0 -0.20916978366E+03 -0.39721710246E+03 -0.52660385144E+03  0.69198630134E+03  0.25500000000E-02 0.  1.
<mgrwt>
<rscale>  0 0.44892474E+03</rscale>
<asrwt>0</asrwt>
<pdfrwt beam="1">  1       11 0.10000000E+01 0.50413141E+03</pdfrwt>
<pdfrwt beam="2">  1        2 0.10442628E+00 0.44892474E+03</pdfrwt>
<totfact> 0.53576192E+01</totfact>
</mgrwt>
</event>
<event>
 5    1  0.2804411E-003  0.5675122E+03  0.7818608E-02  0.9995342E-01
         11   -1    0    0    0    0  0.00000000000E+00  0.00000000000E+00  0.10001504516E+04  0.10001504516E+04  0.51100000000E-03 0. -1.
          2   -1    0    0  501    0 -0.00000000000E+00 -0.00000000000E+00 -0.69047423770E+03  0.69047423771E+03  0.25500000000E-02 0. -1.
         11    1    1    2    0    0 -0.27432845522E+03 -0.38358478261E+03  0.65900701634E+03  0.81036018805E+03  0.51100000000E-03 0. -1.
         22    1    1    2    0    0 -0.14609094592E+02 -0.94424499471E+02  0.11811410072E+03  0.15192219237E+03  0.00000000000E+00 0. -1.
          2    1    1    2  501    0  0.28893754981E+03  0.47800928208E+03 -0.46744490315E+03  0.72834230890E+03  0.25500000000E-02 0. -1.
<mgrwt>
<rscale>  0 0.55854971E+03</rscale>
<asrwt>0</asrwt>
<pdfrwt beam="1">  1       11 0.10000000E+01 0.56751225E+03</pdfrwt>
<pdfrwt beam="2">  1        2 0.10624278E+00 0.55854971E+03</pdfrwt>
<totfact> 0.52115978E+01</totfact>
</mgrwt>
</event>
<event>
 5    1  0.2804411E-003  0.2309790E+03  0.7818608E-02  0.1597780E+00
         11   -1    0    0    0    0  0.00000000000E+00  0.00000000000E+00  0.10004028514E+04  0.10004028514E+04  0.51100000000E-03 0. -1.
          2   -1    0    0  501    0 -0.00000000000E+00 -0.00000000000E+00 -0.30193442256E+03  0.30193442257E+03  0.25500000000E-02 0. -1.
         11    1    1    2    0    0 -0.23713169425E+03 -0.86465529032E+02 -0.11907399926E+03  0.27908125238E+03  0.51100000000E-03 0. -1.
         22    1    1    2    0    0  0.20856919273E+03  0.95731669012E+02  0.90350765164E+03  0.93219726302E+03  0.00000000000E+00 0. -1.
          2    1    1    2  501    0  0.28562501520E+02 -0.92661399805E+01 -0.85965223556E+02  0.91058758561E+02  0.25500000000E-02 0. -1.
<mgrwt>
<rscale>  0 0.30027951E+02</rscale>
<asrwt>0</asrwt>
<pdfrwt beam="1">  1       11 0.10000000E+01 0.23097901E+03</pdfrwt>
<pdfrwt beam="2">  1        2 0.46470161E-01 0.30027951E+02</pdfrwt>
<totfact> 0.13250806E+02</totfact>
</mgrwt>
</event>
<event>
 5    1  0.2804411E-003  0.6059395E+02  0.7818608E-02  0.1542756E+00
         11   -1    0    0    0    0  0.00000000000E+00  0.00000000000E+00  0.10003685353E+04  0.10003685353E+04  0.51100000000E-03 0.  1.
          2   -1    0    0  501    0 -0.00000000000E+00 -0.00000000000E+00 -0.70141982424E+01  0.70141987059E+01  0.25500000000E-02 0.  1.
         11    1    1    2    0    0 -0.51167603266E+02  0.16378587153E+02  0.15664915357E+03  0.16560597531E+03  0.51100000000E-03 0.  1.
         22    1    1    2    0    0  0.62628672838E-01  0.20994345594E+02  0.91076885161E+02  0.93465316989E+02  0.00000000000E+00 0.  1.
          2    1    1    2  501    0  0.51104974593E+02 -0.37372932746E+02  0.74562829831E+03  0.74831144170E+03  0.25500000000E-02 0.  1.
<mgrwt>
<rscale>  0 0.35667006E+02</rscale>
<asrwt>0</asrwt>
<pdfrwt beam="1">  1       11 0.10000000E+01 0.60593947E+02</pdfrwt>
<pdfrwt beam="2">  1        2 0.10795051E-02 0.35667006E+02</pdfrwt>
<totfact> 0.11678522E+04</totfact>
</mgrwt>
</event>
<event>
 5    1  0.2804411E-003  0.3067185E+03  0.7818608E-02  0.1084182E+00
         11   -1    0    0    0    0  0.00000000000E+00  0.00000000000E+00  0.99983782423E+03  0.99983782423E+03  0.51100000000E-03 0. -1.
          2   -1    0    0  501    0 -0.00000000000E+00 -0.00000000000E+00 -0.10938951128E+03  0.10938951131E+03  0.25500000000E-02 0. -1.
         11    1    1    2    0    0  0.17181947903E+02  0.27758335139E+03  0.57447188077E+03  0.63825204904E+03  0.51100000000E-03 0. -1.
         22    1    1    2    0    0  0.10793319937E+02  0.23245907735E+02  0.90300629982E+02  0.93867309309E+02  0.00000000000E+00 0. -1.
          2    1    1    2  501    0 -0.27975267839E+02 -0.30082925913E+03  0.22567580220E+03  0.37710797720E+03  0.25500000000E-02 0. -1.
<mgrwt>
<rscale>  0 0.30212722E+03</rscale>
<asrwt>0</asrwt>
<pdfrwt beam="1">  1       11 0.10000000E+01 0.30671854E+03</pdfrwt>
<pdfrwt beam="2">  1        2 0.16826426E-01 0.30212722E+03</pdfrwt>
<totfact> 0.42068866E+02</totfact>
</mgrwt>
</event>
<event>
 5    1  0.2804411E-003  0.1200861E+03  0.7818608E-02  0.1595586E+00
         11   -1    0    0    0    0  0.00000000000E+00  0.00000000000E+00  0.10001591120E+04  0.10001591120E+04  0.51100000000E-03 0.  1.
          2   -1    0    0  501    0 -0.00000000000E+00 -0.00000000000E+00 -0.24589363973E+03  0.24589363975E+03  0.25500000000E-02 0. -1.
         11    1    1    2    0    0 -0.11946600186E+03  0.49020411568E+02  0.42425887599E+03  0.44347572674E+03  0.51100000000E-03 0.  1.
         22    1    1    2    0    0  0.11405590588E+03 -0.19280886903E+02  0.55938280307E+03  0.57121766660E+03  0.00000000000E+00 0.  1.
          2    1    1    2  501    0  0.54100959787E+01 -0.29739524665E+02 -0.22937620680E+03  0.23135935840E+03  0.25500000000E-02 0. -1.
<mgrwt>
<rscale>  0 0.30227611E+02</rscale>
<asrwt>0</asrwt>
<pdfrwt beam="1">  1       11 0.10000000E+01 0.12008613E+03</pdfrwt>
<pdfrwt beam="2">  1        2 0.37835809E-01 0.30227611E+02</pdfrwt>
<totfact> 0.16280450E+02</totfact>
</mgrwt>
</event>
<event>
 5    1  0.2804411E-003  0.2562323E+03  0.7818608E-02  0.1111577E+00
         11   -1    0    0    0    0  0.00000000000E+00  0.00000000000E+00  0.10001850993E+04  0.10001850993E+04  0.51100000000E-03 0. -1.
          2   -1    0    0  501    0 -0.00000000000E+00 -0.00000000000E+00 -0.64843110021E+02  0.64843110071E+02  0.25500000000E-02 0. -1.
         11    1    1    2    0    0 -0.34859153946E+01  0.24552710277E+02  0.24019193719E+02  0.34524033009E+02  0.51100000000E-03 0. -1.
         22    1    1    2    0    0 -0.70793956860E+02  0.21703868324E+03  0.42715101478E+03  0.48433001536E+03  0.00000000000E+00 0. -1.
          2    1    1    2  501    0  0.74279872255E+02 -0.24159139351E+03  0.48417178080E+03  0.54617416103E+03  0.25500000000E-02 0. -1.
<mgrwt>
<rscale>  0 0.25275265E+03</rscale>
<asrwt>0</asrwt>
<pdfrwt beam="1">  1       11 0.10000000E+01 0.25623225E+03</pdfrwt>
<pdfrwt beam="2">  1        2 0.99777093E-02 0.25275265E+03</pdfrwt>
<totfact> 0.78794813E+02</totfact>
</mgrwt>
</event>
<event>
 5    1  0.2804411E-003  0.2916997E+03  0.7818608E-02  0.1706728E+00
         11   -1    0    0    0    0  0.00000000000E+00  0.00000000000E+00  0.10001421014E+04  0.10001421014E+04  0.51100000000E-03 0. -1.
          2   -1    0    0  501    0 -0.00000000000E+00 -0.00000000000E+00 -0.67310221895E+03  0.67310221895E+03  0.25500000000E-02 0. -1.
         11    1    1    2    0    0 -0.29629847186E+03 -0.19259009953E+02  0.73369036983E+03  0.79149557969E+03  0.51100000000E-03 0. -1.
         22    1    1    2    0    0  0.27582273699E+03  0.27544035656E+02  0.15639461895E+03  0.31827053426E+03  0.00000000000E+00 0.  1.
          2    1    1    2  501    0  0.20475734867E+02 -0.82850257030E+01 -0.56304510630E+03  0.56347820642E+03  0.25500000000E-02 0. -1.
<mgrwt>
<rscale>  0 0.22088399E+02</rscale>
<asrwt>0</asrwt>
<pdfrwt beam="1">  1       11 0.10000000E+01 0.29169971E+03</pdfrwt>
<pdfrwt beam="2">  1        2 0.10356890E+00 0.22088399E+02</pdfrwt>
<totfact> 0.58839369E+01</totfact>
</mgrwt>
</event>
<event>
 5    1  0.2804411E-003  0.1002805E+03  0.7818608E-02  0.1302132E+00
         11   -1    0    0    0    0  0.00000000000E+00  0.00000000000E+00  0.99996860726E+03  0.99996860726E+03  0.51100000000E-03 0. -1.
          2   -1    0    0  501    0 -0.00000000000E+00 -0.00000000000E+00 -0.11615250831E+02  0.11615251111E+02  0.25500000000E-02 0. -1.
         11    1    1    2    0    0 -0.33858656240E+01 -0.27770181694E+02  0.57870328697E+02  0.64277694584E+02  0.51100000000E-03 0. -1.
         22    1    1    2    0    0  0.51549816908E+02 -0.48609912160E+02  0.22050775489E+03  0.23161169476E+03  0.00000000000E+00 0. -1.
          2    1    1    2  501    0 -0.48163951284E+02  0.76380093854E+02  0.70997527284E+03  0.71569446902E+03  0.25500000000E-02 0. -1.
<mgrwt>
<rscale>  0 0.90297757E+02</rscale>
<asrwt>0</asrwt>
<pdfrwt beam="1">  1       11 0.10000000E+01 0.10028047E+03</pdfrwt>
<pdfrwt beam="2">  1        2 0.17869055E-02 0.90297757E+02</pdfrwt>
<totfact> 0.69196794E+03</totfact>
</mgrwt>
</event>
<event>
 5    1  0.2804411E-003  0.7259396E+03  0.7818608E-02  0.9682939E-01
         11   -1    0    0    0    0  0.00000000000E+00  0.00000000000E+00  0.10001286213E+04  0.10001286213E+04  0.51100000000E-03 0.  1.
          2   -1    0    0  501    0 -0.00000000000E+00 -0.00000000000E+00 -0.27830960146E+04  0.27830960146E+04  0.25500000000E-02 0.  1.
         11    1    1    2    0    0 -0.55224699509E+02 -0.64831348283E+03  0.69233889848E+03  0.95010172603E+03  0.51100000000E-03 0.  1.
         22    1    1    2    0    0 -0.18456160390E+02 -0.68326043483E+02  0.12020110517E+03  0.13948972636E+03  0.00000000000E+00 0. -1.
          2    1    1    2  501    0  0.73680859899E+02  0.71663952631E+03 -0.25955073970E+04  0.26936331836E+04  0.25500000000E-02 0.  1.
<mgrwt>
<rscale>  0 0.72041730E+03</rscale>
<asrwt>0</asrwt>
<pdfrwt beam="1">  1       11 0.10000000E+01 0.72593958E+03</pdfrwt>
<pdfrwt beam="2">  1        2 0.42822368E+00 0.72041730E+03</pdfrwt>
<totfact> 0.30833218E+00</totfact>
</mgrwt>
</event>
<event>
 5    1  0.2804411E-003  0.1799372E+03  0.7818608E-02  0.1167864E+00
         11   -1    0    0    0    0  0.00000000000E+00  0.00000000000E+00  0.10000204507E+04  0.10000204507E+04  0.51100000000E-03 0. -1.
          2   -1    0    0  501    0 -0.00000000000E+00 -0.00000000000E+00 -0.69193393426E+02  0.69193393473E+02  0.25500000000E-02 0. -1.
         11    1    1    2    0    0 -0.36729212623E+02  0.15811375565E+03  0.69891259015E+03  0.71751501967E+03  0.51100000000E-03 0. -1.
         22    1    1    2    0    0 -0.38286825493E+02  0.10064171853E+02  0.14076387691E+03  0.14622461354E+03  0.00000000000E+00 0. -1.
          2    1    1    2  501    0  0.75016038117E+02 -0.16817792750E+03  0.91150590242E+02  0.20547421099E+03  0.25500000000E-02 0. -1.
<mgrwt>
<rscale>  0 0.17993722E+03</rscale>
<asrwt>0</asrwt>
<pdfrwt beam="1">  1       11 0.10000000E+01 0.39587480E+02</pdfrwt>
<pdfrwt beam="2">  1        2 0.10645355E-01 0.17993722E+03</pdfrwt>
<totfact> 0.71515588E+02</totfact>
</mgrwt>
</event>
<event>
 5    1  0.2804411E-003  0.1884961E+03  0.7818608E-02  0.1353720E+00
         11   -1    0    0    0    0  0.00000000000E+00  0.00000000000E+00  0.10004562017E+04  0.10004562017E+04  0.51100000000E-03 0. -1.
          2   -1    0    0  501    0 -0.00000000000E+00 -0.00000000000E+00 -0.46722350899E+02  0.46722350969E+02  0.25500000000E-02 0. -1.
         11    1    1    2    0    0 -0.16467594899E+03  0.94739931762E+02  0.33238819560E+03  0.38285210646E+03  0.51100000000E-03 0. -1.
         22    1    1    2    0    0  0.16672637789E+02  0.21784244570E+02  0.19408991559E+02  0.33604153250E+02  0.00000000000E+00 0.  1.
          2    1    1    2  501    0  0.14800331120E+03 -0.11652417633E+03  0.60193666369E+03  0.63072229301E+03  0.25500000000E-02 0. -1.
<mgrwt>
<rscale>  0 0.71908793E+02</rscale>
<asrwt>0</asrwt>
<pdfrwt beam="1">  1       11 0.10000000E+01 0.18849605E+03</pdfrwt>
<pdfrwt beam="2">  1        2 0.71913330E-02 0.71908793E+02</pdfrwt>
<totfact> 0.10946444E+03</totfact>
</mgrwt>
</event>
<event>
 5    1  0.2804411E-003  0.1044470E+03  0.7818608E-02  0.1275716E+00
         11   -1    0    0    0    0  0.00000000000E+00  0.00000000000E+00  0.10003099312E+04  0.10003099312E+04  0.51100000000E-03 0.  1.
          2   -1    0    0  501    0 -0.00000000000E+00 -0.00000000000E+00 -0.11292827810E+02  0.11292828097E+02  0.25500000000E-02 0.  1.
         11    1    1    2    0    0  0.74523411263E+02 -0.38038469796E+02  0.29601478553E+03  0.30761244653E+03  0.51100000000E-03 0.  1.
         22    1    1    2    0    0  0.20581175619E+02  0.59544165152E+00  0.85105606309E+02  0.87560856356E+02  0.00000000000E+00 0. -1.
          2    1    1    2  501    0 -0.95104586882E+02  0.37443028145E+02  0.60789671151E+03  0.61642945636E+03  0.25500000000E-02 0.  1.
<mgrwt>
<rscale>  0 0.10220990E+03</rscale>
<asrwt>0</asrwt>
<pdfrwt beam="1">  1       11 0.10000000E+01 0.10444705E+03</pdfrwt>
<pdfrwt beam="2">  1        2 0.17378966E-02 0.10220990E+03</pdfrwt>
<totfact> 0.73045272E+03</totfact>
</mgrwt>
</event>
<event>
 5    1  0.2804411E-003  0.2346585E+03  0.7818608E-02  0.1123403E+00
         11   -1    0    0    0    0  0.00000000000E+00  0.00000000000E+00  0.99992701790E+03  0.99992701790E+03  0.51100000000E-03 0. -1.
         -2   -1    0    0    0  501 -0.00000000000E+00 -0.00000000000E+00 -0.63858489525E+03  0.63858489526E+03  0.25500000000E-02 0.  1.
         11    1    1    2    0    0  0.79424347041E+02  0.18616458244E+03  0.71230627754E+03  0.74050368782E+03  0.51100000000E-03 0. -1.
         22    1    1    2    0    0 -0.37101441965E+02  0.45808980916E+02  0.24767933617E+03  0.25459778729E+03  0.00000000000E+00 0.  1.
         -2    1    1    2    0  501 -0.42322905077E+02 -0.23197356335E+03 -0.59864349106E+03  0.64341043804E+03  0.25500000000E-02 0.  1.
<mgrwt>
<rscale>  0 0.23465855E+03</rscale>
<asrwt>0</asrwt>
<pdfrwt beam="1">  1       11 0.10000000E+01 0.58948959E+02</pdfrwt>
<pdfrwt beam="2">  1       -2 0.98236657E-01 0.23465855E+03</pdfrwt>
<totfact> 0.72965375E+00</totfact>
</mgrwt>
</event>
<event>
 5    1  0.2804411E-003  0.1916644E+03  0.7818608E-02  0.1162522E+00
         11   -1    0    0    0    0  0.00000000000E+00  0.00000000000E+00  0.10004377125E+04  0.10004377125E+04  0.51100000000E-03 0. -1.
          2   -1    0    0  501    0 -0.00000000000E+00 -0.00000000000E+00 -0.11660539652E+04  0.11660539652E+04  0.25500000000E-02 0. -1.
         11    1    1    2    0    0  0.95564625755E+01 -0.97402281941E+02  0.50316792964E+03  0.51259779157E+03  0.51100000000E-03 0. -1.
         22    1    1    2    0    0 -0.37230811219E+02 -0.86088427805E+02  0.48057942383E+03  0.48964674339E+03  0.00000000000E+00 0. -1.
          2    1    1    2  501    0  0.27674348644E+02  0.18349070975E+03 -0.11493636062E+04  0.11642471427E+04  0.25500000000E-02 0. -1.
<mgrwt>
<rscale>  0 0.18556592E+03</rscale>
<asrwt>0</asrwt>
<pdfrwt beam="1">  1       11 0.10000000E+01 0.19166443E+03</pdfrwt>
<pdfrwt beam="2">  1        2 0.17947144E+00 0.18556592E+03</pdfrwt>
<totfact> 0.26731260E+01</totfact>
</mgrwt>
</event>
<event>
 5    1  0.2804411E-003  0.6844445E+03  0.7818608E-02  0.9755860E-01
         11   -1    0    0    0    0  0.00000000000E+00  0.00000000000E+00  0.10002096233E+04  0.10002096233E+04  0.51100000000E-03 0. -1.
          2   -1    0    0  501    0 -0.00000000000E+00 -0.00000000000E+00 -0.55456509660E+03  0.55456509661E+03  0.25500000000E-02 0. -1.
         11    1    1    2    0    0  0.36437024008E+03 -0.52315122087E+03  0.47783359358E+03  0.79672944901E+03  0.51100000000E-03 0. -1.
         22    1    1    2    0    0  0.10841562369E+02 -0.41394155304E+02  0.60262005929E+02  0.73908896125E+02  0.00000000000E+00 0. -1.
          2    1    1    2  501    0 -0.37521180245E+03  0.56454537618E+03 -0.92451072777E+02  0.68413637480E+03  0.25500000000E-02 0. -1.
<mgrwt>
<rscale>  0 0.67786088E+03</rscale>
<asrwt>0</asrwt>
<pdfrwt beam="1">  1       11 0.10000000E+01 0.68444449E+03</pdfrwt>
<pdfrwt beam="2">  1        2 0.85335589E-01 0.67786088E+03</pdfrwt>
<totfact> 0.67631248E+01</totfact>
</mgrwt>
</event>
<event>
 5    1  0.2804411E-003  0.1672505E+03  0.7818608E-02  0.1182077E+00
         11   -1    0    0    0    0  0.00000000000E+00  0.00000000000E+00  0.10003853252E+04  0.10003853252E+04  0.51100000000E-03 0.  1.
         -2   -1    0    0    0  501 -0.00000000000E+00 -0.00000000000E+00 -0.27759577876E+02  0.27759577993E+02  0.25500000000E-02 0. -1.
         11    1    1    2    0    0 -0.11878952292E+03 -0.93250552871E+02  0.45672729549E+03  0.48104723138E+03  0.51100000000E-03 0.  1.
         22    1    1    2    0    0 -0.15167156207E+02 -0.48001167068E+01  0.38387980819E+02  0.41553830379E+02  0.00000000000E+00 0.  1.
         -2    1    1    2    0  501  0.13395667912E+03  0.98050669577E+02  0.47751047105E+03  0.50554384147E+03  0.25500000000E-02 0. -1.
<mgrwt>
<rscale>  0 0.16600700E+03</rscale>
<asrwt>0</asrwt>
<pdfrwt beam="1">  1       11 0.10000000E+01 0.16725051E+03</pdfrwt>
<pdfrwt beam="2">  1       -2 0.42723498E-02 0.16600700E+03</pdfrwt>
<totfact> 0.19036216E+03</totfact>
</mgrwt>
</event>
<event>
 5    1  0.2804411E-003  0.4569917E+02  0.7818608E-02  0.1478135E+00
         11   -1    0    0    0    0  0.00000000000E+00  0.00000000000E+00  0.10000883899E+04  0.10000883899E+04  0.51100000000E-03 0. -1.
          2   -1    0    0  501    0 -0.00000000000E+00 -0.00000000000E+00 -0.33632192934E+01  0.33632202601E+01  0.25500000000E-02 0. -1.
         11    1    1    2    0    0  0.17786723930E+02 -0.82205339553E+01  0.68429356386E+02  0.71179502262E+02  0.51100000000E-03 0. -1.
         22    1    1    2    0    0  0.17225042588E+02 -0.19080675687E+02  0.11830745211E+03  0.12106786321E+03  0.00000000000E+00 0. -1.
          2    1    1    2  501    0 -0.35011766518E+02  0.27301209642E+02  0.80998836213E+03  0.81120424471E+03  0.25500000000E-02 0. -1.
<mgrwt>
<rscale>  0 0.44397971E+02</rscale>
<asrwt>0</asrwt>
<pdfrwt beam="1">  1       11 0.10000000E+01 0.45699167E+02</pdfrwt>
<pdfrwt beam="2">  1        2 0.51746415E-03 0.44397971E+02</pdfrwt>
<totfact> 0.32655516E+04</totfact>
</mgrwt>
</event>
<event>
 5    1  0.2804411E-003  0.4279735E+03  0.7818608E-02  0.1035577E+00
         11   -1    0    0    0    0  0.00000000000E+00  0.00000000000E+00  0.99973460977E+03  0.99973460977E+03  0.51100000000E-03 0.  1.
          2   -1    0    0  501    0 -0.00000000000E+00 -0.00000000000E+00 -0.28181867934E+03  0.28181867935E+03  0.25500000000E-02 0.  1.
         11    1    1    2    0    0 -0.37606776121E+03  0.79457003823E+02  0.63903890856E+03  0.74572857202E+03  0.51100000000E-03 0.  1.
         22    1    1    2    0    0 -0.37430591325E+02  0.17035194592E+02  0.10262013418E+03  0.11055378311E+03  0.00000000000E+00 0. -1.
          2    1    1    2  501    0  0.41349835253E+03 -0.96492198415E+02 -0.23743112315E+02  0.42527093398E+03  0.25500000000E-02 0.  1.
<mgrwt>
<rscale>  0 0.42460762E+03</rscale>
<asrwt>0</asrwt>
<pdfrwt beam="1">  1       11 0.10000000E+01 0.42797352E+03</pdfrwt>
<pdfrwt beam="2">  1        2 0.43345212E-01 0.42460762E+03</pdfrwt>
<totfact> 0.14541301E+02</totfact>
</mgrwt>
</event>
<event>
 5    1  0.2804411E-003  0.4583474E+03  0.7818608E-02  0.1251623E+00
         11   -1    0    0    0    0  0.00000000000E+00  0.00000000000E+00  0.99995826832E+03  0.99995826832E+03  0.51100000000E-03 0.  1.
          2   -1    0    0  501    0 -0.00000000000E+00 -0.00000000000E+00 -0.30935744146E+03  0.30935744147E+03  0.25500000000E-02 0.  1.
         11    1    1    2    0    0  0.42471086039E+03 -0.24784718732E+03  0.25047855938E+03  0.55185781856E+03  0.51100000000E-03 0.  1.
         22    1    1    2    0    0 -0.31802916222E+03  0.29072486198E+03  0.16878427544E+03  0.46276519428E+03  0.00000000000E+00 0.  1.
          2    1    1    2  501    0 -0.10668169816E+03 -0.42877674658E+02  0.27133799204E+03  0.29469269696E+03  0.25500000000E-02 0.  1.
<mgrwt>
<rscale>  0 0.11497600E+03</rscale>
<asrwt>0</asrwt>
<pdfrwt beam="1">  1       11 0.10000000E+01 0.45834738E+03</pdfrwt>
<pdfrwt beam="2">  1        2 0.47591465E-01 0.11497600E+03</pdfrwt>
<totfact> 0.13101472E+02</totfact>
</mgrwt>
</event>
<event>
 5    1  0.2804411E-003  0.1758755E+03  0.7818608E-02  0.1177552E+00
         11   -1    0    0    0    0  0.00000000000E+00  0.00000000000E+00  0.10000434677E+04  0.10000434677E+04  0.51100000000E-03 0. -1.
          2   -1    0    0  501    0 -0.00000000000E+00 -0.00000000000E+00 -0.21760879285E+03  0.21760879287E+03  0.25500000000E-02 0. -1.
         11    1    1    2    0    0  0.12089723115E+03 -0.90484595626E+02  0.89341383698E+03  0.90608602608E+03  0.51100000000E-03 0. -1.
         22    1    1    2    0    0  0.20509402887E+02 -0.43871630838E+01  0.64034247791E+02  0.67381508568E+02  0.00000000000E+00 0. -1.
          2    1    1    2  501    0 -0.14140663404E+03  0.94871758710E+02 -0.17501340988E+03  0.24418472596E+03  0.25500000000E-02 0. -1.
<mgrwt>
<rscale>  0 0.17028355E+03</rscale>
<asrwt>0</asrwt>
<pdfrwt beam="1">  1       11 0.10000000E+01 0.17587554E+03</pdfrwt>
<pdfrwt beam="2">  1        2 0.33479730E-01 0.17028355E+03</pdfrwt>
<totfact> 0.19127322E+02</totfact>
</mgrwt>
</event>
<event>
 5    1  0.2804411E-003  0.1188470E+03  0.7818608E-02  0.1251316E+00
         11   -1    0    0    0    0  0.00000000000E+00  0.00000000000E+00  0.10001162265E+04  0.10001162265E+04  0.51100000000E-03 0. -1.
         -2   -1    0    0    0  501 -0.00000000000E+00 -0.00000000000E+00 -0.14454425166E+02  0.14454425391E+02  0.25500000000E-02 0. -1.
         11    1    1    2    0    0 -0.86552393038E+02  0.93838009984E+01  0.48214872280E+03  0.48994567389E+03  0.51100000000E-03 0. -1.
         22    1    1    2    0    0 -0.25245400362E+02  0.18205663904E+02  0.13490615396E+03  0.13845016004E+03  0.00000000000E+00 0.  1.
         -2    1    1    2    0  501  0.11179779340E+03 -0.27589464902E+02  0.36860692454E+03  0.38617481794E+03  0.25500000000E-02 0. -1.
<mgrwt>
<rscale>  0 0.11515175E+03</rscale>
<asrwt>0</asrwt>
<pdfrwt beam="1">  1       11 0.10000000E+01 0.11884697E+03</pdfrwt>
<pdfrwt beam="2">  1       -2 0.22240161E-02 0.11515175E+03</pdfrwt>
<totfact> 0.47899094E+03</totfact>
</mgrwt>
</event>
<event>
 5    1  0.2804411E-003  0.3140215E+02  0.7818608E-02  0.1602442E+00
         11   -1    0    0    0    0  0.00000000000E+00  0.00000000000E+00  0.10000207072E+04  0.10000207072E+04  0.51100000000E-03 0. -1.
          2   -1    0    0  501    0 -0.00000000000E+00 -0.00000000000E+00 -0.35892216227E+01  0.35892225285E+01  0.25500000000E-02 0. -1.
         11    1    1    2    0    0  0.72474455572E+01  0.19419535346E+02  0.40789266772E+02  0.45753776939E+02  0.51100000000E-03 0. -1.
         22    1    1    2    0    0 -0.28466951305E+01  0.98613915561E+01  0.29389189540E+02  0.31129972349E+02  0.00000000000E+00 0. -1.
          2    1    1    2  501    0 -0.44007504266E+01 -0.29280926903E+02  0.92625302930E+03  0.92672618047E+03  0.25500000000E-02 0. -1.
<mgrwt>
<rscale>  0 0.29609784E+02</rscale>
<asrwt>0</asrwt>
<pdfrwt beam="1">  1       11 0.10000000E+01 0.31402152E+02</pdfrwt>
<pdfrwt beam="2">  1        2 0.55219943E-03 0.29609784E+02</pdfrwt>
<totfact> 0.27267380E+04</totfact>
</mgrwt>
</event>
<event>
 5    1  0.2804411E-003  0.8205878E+02  0.7818608E-02  0.1325881E+00
         11   -1    0    0    0    0  0.00000000000E+00  0.00000000000E+00  0.10004556032E+04  0.10004556032E+04  0.51100000000E-03 0. -1.
         -2   -1    0    0    0  501 -0.00000000000E+00 -0.00000000000E+00 -0.67019657418E+01  0.67019662269E+01  0.25500000000E-02 0. -1.
         11    1    1    2    0    0  0.12192686905E+02  0.69327006505E+02  0.39068166518E+03  0.39697236548E+03  0.51100000000E-03 0. -1.
         22    1    1    2    0    0 -0.29823949753E+01  0.11276134182E+02  0.66595918590E+02  0.67609631376E+02  0.00000000000E+00 0. -1.
         -2    1    1    2    0  501 -0.92102919300E+01 -0.80603140688E+02  0.53647605367E+03  0.54257557256E+03  0.25500000000E-02 0. -1.
<mgrwt>
<rscale>  0 0.81127651E+02</rscale>
<asrwt>0</asrwt>
<pdfrwt beam="1">  1       11 0.10000000E+01 0.82058779E+02</pdfrwt>
<pdfrwt beam="2">  1       -2 0.10315414E-02 0.81127651E+02</pdfrwt>
<totfact> 0.13663189E+04</totfact>
</mgrwt>
</event>
<event>
 5    1  0.2804411E-003  0.1718927E+03  0.7818608E-02  0.1560077E+00
         11   -1    0    0    0    0  0.00000000000E+00  0.00000000000E+00  0.99981120187E+03  0.99981120187E+03  0.51100000000E-03 0.  1.
          2   -1    0    0  501    0 -0.00000000000E+00 -0.00000000000E+00 -0.37166894678E+03  0.37166894679E+03  0.25500000000E-02 0. -1.
         11    1    1    2    0    0 -0.87997404823E+02  0.11742298541E+03 -0.11032722286E+03  0.18358593863E+03  0.51100000000E-03 0.  1.
         22    1    1    2    0    0  0.12109952203E+03 -0.12395619537E+03  0.95406455258E+03  0.96967489556E+03  0.00000000000E+00 0.  1.
          2    1    1    2  501    0 -0.33102117206E+02  0.65332099627E+01 -0.21559507462E+03  0.21821931446E+03  0.25500000000E-02 0. -1.
<mgrwt>
<rscale>  0 0.33740673E+02</rscale>
<asrwt>0</asrwt>
<pdfrwt beam="1">  1       11 0.10000000E+01 0.17189271E+03</pdfrwt>
<pdfrwt beam="2">  1        2 0.57169041E-01 0.33740673E+02</pdfrwt>
<totfact> 0.10781932E+02</totfact>
</mgrwt>
</event>
<event>
 5    1  0.2804411E-003  0.1977416E+03  0.7818608E-02  0.1156765E+00
         11   -1    0    0    0    0  0.00000000000E+00  0.00000000000E+00  0.10005549264E+04  0.10005549264E+04  0.51100000000E-03 0. -1.
          2   -1    0    0  501    0 -0.00000000000E+00 -0.00000000000E+00 -0.10387232342E+04  0.10387232342E+04  0.25500000000E-02 0.  1.
         11    1    1    2    0    0 -0.47010022571E+02  0.45765513300E+02  0.27257874354E+03  0.28036332831E+03  0.51100000000E-03 0. -1.
         22    1    1    2    0    0 -0.12382236542E+03  0.41637663430E+02  0.70917052473E+03  0.72110228563E+03  0.00000000000E+00 0. -1.
          2    1    1    2  501    0  0.17083238799E+03 -0.87403176730E+02 -0.10199175761E+04  0.10378125467E+04  0.25500000000E-02 0.  1.
<mgrwt>
<rscale>  0 0.19189325E+03</rscale>
<asrwt>0</asrwt>
<pdfrwt beam="1">  1       11 0.10000000E+01 0.19774162E+03</pdfrwt>
<pdfrwt beam="2">  1        2 0.15989225E+00 0.19189325E+03</pdfrwt>
<totfact> 0.31629053E+01</totfact>
</mgrwt>
</event>
<event>
 5    1  0.2804411E-003  0.1034679E+03  0.7818608E-02  0.1273168E+00
         11   -1    0    0    0    0  0.00000000000E+00  0.00000000000E+00  0.10003563499E+04  0.10003563499E+04  0.51100000000E-03 0.  1.
          2   -1    0    0  501    0 -0.00000000000E+00 -0.00000000000E+00 -0.25430377174E+02  0.25430377302E+02  0.25500000000E-02 0.  1.
         11    1    1    2    0    0  0.22804379734E+02 -0.39097067710E+02  0.22095498899E+03  0.22554318344E+03  0.51100000000E-03 0.  1.
         22    1    1    2    0    0  0.23349680177E+02  0.12633947829E+03  0.62375508351E+03  0.63684949206E+03  0.00000000000E+00 0.  1.
          2    1    1    2  501    0 -0.46154059911E+02 -0.87242410576E+02  0.13021590020E+03  0.16339405167E+03  0.25500000000E-02 0.  1.
<mgrwt>
<rscale>  0 0.10346794E+03</rscale>
<asrwt>0</asrwt>
<pdfrwt beam="1">  1       11 0.10000000E+01 0.45261688E+02</pdfrwt>
<pdfrwt beam="2">  1        2 0.39137598E-02 0.10346794E+03</pdfrwt>
<totfact> 0.24653907E+03</totfact>
</mgrwt>
</event>
<event>
 5    1  0.2804411E-003  0.8780530E+02  0.7818608E-02  0.1308255E+00
         11   -1    0    0    0    0  0.00000000000E+00  0.00000000000E+00  0.10000937964E+04  0.10000937964E+04  0.51100000000E-03 0. -1.
          2   -1    0    0  501    0 -0.00000000000E+00 -0.00000000000E+00 -0.13935700755E+02  0.13935700988E+02  0.25500000000E-02 0. -1.
         11    1    1    2    0    0 -0.13389660838E+02 -0.35371445321E+02  0.62401898684E+02  0.72968617372E+02  0.51100000000E-03 0. -1.
         22    1    1    2    0    0 -0.80112237113E+02  0.42214982927E+01  0.46075025960E+03  0.46768214987E+03  0.00000000000E+00 0. -1.
          2    1    1    2  501    0  0.93501897950E+02  0.31149947028E+02  0.46300593738E+03  0.47337873017E+03  0.25500000000E-02 0. -1.
<mgrwt>
<rscale>  0 0.87805304E+02</rscale>
<asrwt>0</asrwt>
<pdfrwt beam="1">  1       11 0.10000000E+01 0.37820941E+02</pdfrwt>
<pdfrwt beam="2">  1        2 0.21441550E-02 0.87805304E+02</pdfrwt>
<totfact> 0.53920220E+03</totfact>
</mgrwt>
</event>
<event>
 5    1  0.2804411E-003  0.1603420E+03  0.7818608E-02  0.1199839E+00
         11   -1    0    0    0    0  0.00000000000E+00  0.00000000000E+00  0.10002828481E+04  0.10002828481E+04  0.51100000000E-03 0.  1.
         -2   -1    0    0    0  501 -0.00000000000E+00 -0.00000000000E+00 -0.32589256608E+02  0.32589256707E+02  0.25500000000E-02 0. -1.
         11    1    1    2    0    0  0.94202979221E+02 -0.72911267008E+02  0.21669455722E+03  0.24727876027E+03  0.51100000000E-03 0.  1.
         22    1    1    2    0    0  0.24729245682E+02 -0.19340693627E+02  0.15802050083E+02  0.35146874809E+02  0.00000000000E+00 0.  1.
         -2    1    1    2    0  501 -0.11893222490E+03  0.92251960635E+02  0.73519698415E+03  0.75044646969E+03  0.25500000000E-02 0. -1.
<mgrwt>
<rscale>  0 0.15051677E+03</rscale>
<asrwt>0</asrwt>
<pdfrwt beam="1">  1       11 0.10000000E+01 0.16034203E+03</pdfrwt>
<pdfrwt beam="2">  1       -2 0.50151498E-02 0.15051677E+03</pdfrwt>
<totfact> 0.14836679E+03</totfact>
</mgrwt>
</event>
<event>
 5    1  0.2804411E-003  0.1718604E+03  0.7818608E-02  0.1179946E+00
         11   -1    0    0    0    0  0.00000000000E+00  0.00000000000E+00  0.10001864243E+04  0.10001864243E+04  0.51100000000E-03 0. -1.
         -2   -1    0    0    0  501 -0.00000000000E+00 -0.00000000000E+00 -0.43375313160E+02  0.43375313235E+02  0.25500000000E-02 0. -1.
         11    1    1    2    0    0  0.42109154909E+02 -0.83779195037E+02  0.46647347194E+03  0.47580419762E+03  0.51100000000E-03 0. -1.
         22    1    1    2    0    0  0.58059614606E+02 -0.51096282803E+02  0.31725570898E+03  0.32654698566E+03  0.00000000000E+00 0.  1.
         -2    1    1    2    0  501 -0.10016876952E+03  0.13487547784E+03  0.17308193023E+03  0.24121055426E+03  0.25500000000E-02 0. -1.
<mgrwt>
<rscale>  0 0.16800350E+03</rscale>
<asrwt>0</asrwt>
<pdfrwt beam="1">  1       11 0.10000000E+01 0.17186039E+03</pdfrwt>
<pdfrwt beam="2">  1       -2 0.66743689E-02 0.16800350E+03</pdfrwt>
<totfact> 0.96940603E+02</totfact>
</mgrwt>
</event>
<event>
 5    1  0.2804411E-003  0.6648809E+02  0.7818608E-02  0.1393866E+00
         11   -1    0    0    0    0  0.00000000000E+00  0.00000000000E+00  0.99996997032E+03  0.99996997032E+03  0.51100000000E-03 0. -1.
          2   -1    0    0  501    0 -0.00000000000E+00 -0.00000000000E+00 -0.78506854061E+01  0.78506858203E+01  0.25500000000E-02 0. -1.
         11    1    1    2    0    0 -0.35429847279E+02 -0.17099397203E+02  0.65651479704E+02  0.76536136893E+02  0.51100000000E-03 0. -1.
         22    1    1    2    0    0 -0.17217886848E+02 -0.13621137271E+02  0.91590822487E+02  0.94185294881E+02  0.00000000000E+00 0.  1.
          2    1    1    2  501    0  0.52647734127E+02  0.30720534475E+02  0.83487698273E+03  0.83709922437E+03  0.25500000000E-02 0. -1.
<mgrwt>
<rscale>  0 0.60955190E+02</rscale>
<asrwt>0</asrwt>
<pdfrwt beam="1">  1       11 0.10000000E+01 0.66488087E+02</pdfrwt>
<pdfrwt beam="2">  1        2 0.12077615E-02 0.60955190E+02</pdfrwt>
<totfact> 0.11073194E+04</totfact>
</mgrwt>
</event>
<event>
 5    1  0.2804411E-003  0.1633856E+03  0.7818608E-02  0.1191503E+00
         11   -1    0    0    0    0  0.00000000000E+00  0.00000000000E+00  0.10003071203E+04  0.10003071203E+04  0.51100000000E-03 0. -1.
          2   -1    0    0  501    0 -0.00000000000E+00 -0.00000000000E+00 -0.37947852106E+02  0.37947852192E+02  0.25500000000E-02 0. -1.
         11    1    1    2    0    0 -0.10960900139E+03  0.87326179458E+02  0.66704672222E+03  0.68160936352E+03  0.51100000000E-03 0. -1.
         22    1    1    2    0    0 -0.23103119724E+02 -0.24370721421E+01  0.11448391641E+03  0.11681721011E+03  0.00000000000E+00 0.  1.
          2    1    1    2  501    0  0.13271212111E+03 -0.84889107316E+02  0.18082862961E+03  0.23982839891E+03  0.25500000000E-02 0. -1.
<mgrwt>
<rscale>  0 0.15753942E+03</rscale>
<asrwt>0</asrwt>
<pdfrwt beam="1">  1       11 0.10000000E+01 0.16338560E+03</pdfrwt>
<pdfrwt beam="2">  1        2 0.58399239E-02 0.15753942E+03</pdfrwt>
<totfact> 0.15149042E+03</totfact>
</mgrwt>
</event>
<event>
 5    1  0.2804411E-003  0.2215463E+03  0.7818608E-02  0.1136722E+00
         11   -1    0    0    0    0  0.00000000000E+00  0.00000000000E+00  0.99977553880E+03  0.99977553880E+03  0.51100000000E-03 0. -1.
         -2   -1    0    0    0  501 -0.00000000000E+00 -0.00000000000E+00 -0.10791367487E+03  0.10791367490E+03  0.25500000000E-02 0.  1.
         11    1    1    2    0    0  0.16289985506E+02  0.19411311172E+03  0.75041362761E+03  0.77528438413E+03  0.51100000000E-03 0. -1.
         22    1    1    2    0    0  0.18413347511E+02  0.19318650405E+02  0.11084820354E+03  0.11401572632E+03  0.00000000000E+00 0.  1.
         -2    1    1    2    0  501 -0.34703333016E+02 -0.21343176213E+03  0.30600032784E+02  0.21838910326E+03  0.25500000000E-02 0.  1.
<mgrwt>
<rscale>  0 0.21623468E+03</rscale>
<asrwt>0</asrwt>
<pdfrwt beam="1">  1       11 0.10000000E+01 0.22154626E+03</pdfrwt>
<pdfrwt beam="2">  1       -2 0.16598377E-01 0.21623468E+03</pdfrwt>
<totfact> 0.22987865E+02</totfact>
</mgrwt>
</event>
<event>
 5    1  0.2804411E-003  0.1503700E+03  0.7818608E-02  0.1200019E+00
         11   -1    0    0    0    0  0.00000000000E+00  0.00000000000E+00  0.10000687861E+04  0.10000687861E+04  0.51100000000E-03 0. -1.
          2   -1    0    0  501    0 -0.00000000000E+00 -0.00000000000E+00 -0.46236672507E+02  0.46236672577E+02  0.25500000000E-02 0. -1.
         11    1    1    2    0    0 -0.15541689547E+03 -0.54360563142E+02  0.72305973215E+03  0.74156918658E+03  0.51100000000E-03 0. -1.
         22    1    1    2    0    0  0.25313587806E+02 -0.15513075740E+02  0.11007521864E+03  0.11400871460E+03  0.00000000000E+00 0. -1.
          2    1    1    2  501    0  0.13010330766E+03  0.69873638882E+02  0.12069716281E+03  0.19072755750E+03  0.25500000000E-02 0. -1.
<mgrwt>
<rscale>  0 0.15036997E+03</rscale>
<asrwt>0</asrwt>
<pdfrwt beam="1">  1       11 0.10000000E+01 0.29688941E+02</pdfrwt>
<pdfrwt beam="2">  1        2 0.71138233E-02 0.15036997E+03</pdfrwt>
<totfact> 0.11718329E+03</totfact>
</mgrwt>
</event>
<event>
 5    1  0.2804411E-003  0.3593804E+03  0.7818608E-02  0.1060421E+00
         11   -1    0    0    0    0  0.00000000000E+00  0.00000000000E+00  0.99972670589E+03  0.99972670589E+03  0.51100000000E-03 0. -1.
          2   -1    0    0  501    0 -0.00000000000E+00 -0.00000000000E+00 -0.87695325078E+03  0.87695325079E+03  0.25500000000E-02 0. -1.
         11    1    1    2    0    0  0.16942936469E+02 -0.31593858633E+03  0.77450162793E+03  0.83663434372E+03  0.51100000000E-03 0. -1.
         22    1    1    2    0    0  0.86133077290E+01 -0.38538990852E+02  0.15423107296E+03  0.15920636530E+03  0.00000000000E+00 0. -1.
          2    1    1    2  501    0 -0.25556244198E+02  0.35447757718E+03 -0.80595924578E+03  0.88083924766E+03  0.25500000000E-02 0. -1.
<mgrwt>
<rscale>  0 0.35539763E+03</rscale>
<asrwt>0</asrwt>
<pdfrwt beam="1">  1       11 0.10000000E+01 0.35938042E+03</pdfrwt>
<pdfrwt beam="2">  1        2 0.13487901E+00 0.35539763E+03</pdfrwt>
<totfact> 0.38906638E+01</totfact>
</mgrwt>
</event>
<event>
 5    1  0.2804411E-003  0.2961750E+03  0.7818608E-02  0.1087168E+00
         11   -1    0    0    0    0  0.00000000000E+00  0.00000000000E+00  0.10002759761E+04  0.10002759761E+04  0.51100000000E-03 0.  1.
          2   -1    0    0  501    0 -0.00000000000E+00 -0.00000000000E+00 -0.86817973011E+03  0.86817973011E+03  0.25500000000E-02 0.  1.
         11    1    1    2    0    0 -0.76393998652E+02  0.38299085256E+03  0.26316418730E+03  0.47092825956E+03  0.51100000000E-03 0.  1.
         22    1    1    2    0    0  0.67927408482E+02 -0.93662408916E+02  0.60009904355E+03  0.61115107930E+03  0.00000000000E+00 0.  1.
          2    1    1    2  501    0  0.84665901708E+01 -0.28932844364E+03 -0.73116698483E+03  0.78637636737E+03  0.25500000000E-02 0.  1.
<mgrwt>
<rscale>  0 0.29617496E+03</rscale>
<asrwt>0</asrwt>
<pdfrwt beam="1">  1       11 0.10000000E+01 0.11570125E+03</pdfrwt>
<pdfrwt beam="2">  1        2 0.13360297E+00 0.29617496E+03</pdfrwt>
<totfact> 0.39693364E+01</totfact>
</mgrwt>
</event>
<event>
 5    1  0.2804411E-003  0.1709104E+03  0.7818608E-02  0.1185709E+00
         11   -1    0    0    0    0  0.00000000000E+00  0.00000000000E+00  0.10001389331E+04  0.10001389331E+04  0.51100000000E-03 0. -1.
         -2   -1    0    0    0  501 -0.00000000000E+00 -0.00000000000E+00 -0.46769260205E+02  0.46769260274E+02  0.25500000000E-02 0.  1.
         11    1    1    2    0    0 -0.19910136165E+02  0.14071076759E+03  0.74454577786E+03  0.75798703746E+03  0.51100000000E-03 0. -1.
         22    1    1    2    0    0 -0.18088378089E+02  0.17464654729E+02  0.72304035616E+02  0.76551140769E+02  0.00000000000E+00 0. -1.
         -2    1    1    2    0  501  0.37998514254E+02 -0.15817542231E+03  0.13651985943E+03  0.21237001515E+03  0.25500000000E-02 0.  1.
<mgrwt>
<rscale>  0 0.16267560E+03</rscale>
<asrwt>0</asrwt>
<pdfrwt beam="1">  1       11 0.10000000E+01 0.17091037E+03</pdfrwt>
<pdfrwt beam="2">  1       -2 0.71962703E-02 0.16267560E+03</pdfrwt>
<totfact> 0.86152149E+02</totfact>
</mgrwt>
</event>
<event>
 5    1  0.2804411E-003  0.1921989E+03  0.7818608E-02  0.1195375E+00
         11   -1    0    0    0    0  0.00000000000E+00  0.00000000000E+00  0.10004069790E+04  0.10004069790E+04  0.51100000000E-03 0. -1.
         -2   -1    0    0    0  501 -0.00000000000E+00 -0.00000000000E+00 -0.57441414579E+03  0.57441414580E+03  0.25500000000E-02 0.  1.
         11    1    1    2    0    0 -0.18023958489E+03  0.11046685295E+03  0.15976264735E+03  0.26497799352E+03  0.51100000000E-03 0. -1.
         22    1    1    2    0    0  0.49904629843E+02 -0.19291789693E+03  0.76356809773E+03  0.78914132251E+03  0.00000000000E+00 0. -1.
         -2    1    1    2    0  501  0.13033495505E+03  0.82451043972E+02 -0.49733791182E+03  0.52070180881E+03  0.25500000000E-02 0.  1.
<mgrwt>
<rscale>  0 0.15422508E+03</rscale>
<asrwt>0</asrwt>
<pdfrwt beam="1">  1       11 0.10000000E+01 0.19219887E+03</pdfrwt>
<pdfrwt beam="2">  1       -2 0.88407370E-01 0.15422508E+03</pdfrwt>
<totfact> 0.93791564E+00</totfact>
</mgrwt>
</event>
<event>
 5    1  0.2804411E-003  0.2789757E+03  0.7818608E-02  0.1362361E+00
         11   -1    0    0    0    0  0.00000000000E+00  0.00000000000E+00  0.99997419607E+03  0.99997419607E+03  0.51100000000E-03 0. -1.
         -2   -1    0    0    0  501 -0.00000000000E+00 -0.00000000000E+00 -0.10691364663E+03  0.10691364666E+03  0.25500000000E-02 0.  1.
         11    1    1    2    0    0  0.20716029990E+03 -0.18083684660E+03  0.67794825573E+03  0.73159496471E+03  0.51100000000E-03 0. -1.
         22    1    1    2    0    0  0.60613182664E+01 -0.16132213261E+02  0.11206974541E+02  0.20556851952E+02  0.00000000000E+00 0. -1.
         -2    1    1    2    0  501 -0.21322161817E+03  0.19696905986E+03  0.20390531917E+03  0.35473602607E+03  0.25500000000E-02 0.  1.
<mgrwt>
<rscale>  0 0.69337450E+02</rscale>
<asrwt>0</asrwt>
<pdfrwt beam="1">  1       11 0.10000000E+01 0.27897569E+03</pdfrwt>
<pdfrwt beam="2">  1       -2 0.16447828E-01 0.69337450E+02</pdfrwt>
<totfact> 0.22218467E+02</totfact>
</mgrwt>
</event>
<event>
 5    1  0.2804411E-003  0.3449301E+03  0.7818608E-02  0.1068482E+00
         11   -1    0    0    0    0  0.00000000000E+00  0.00000000000E+00  0.10005659347E+04  0.10005659347E+04  0.51100000000E-03 0. -1.
          2   -1    0    0  501    0 -0.00000000000E+00 -0.00000000000E+00 -0.12652446990E+04  0.12652446990E+04  0.25500000000E-02 0. -1.
         11    1    1    2    0    0 -0.15912734308E+03  0.12107624832E+03  0.52381764273E+03  0.56068341518E+03  0.51100000000E-03 0. -1.
         22    1    1    2    0    0 -0.14157182655E+03  0.29001772815E+02  0.42345933426E+03  0.44743881444E+03  0.00000000000E+00 0. -1.
          2    1    1    2  501    0  0.30069916963E+03 -0.15007802114E+03 -0.12119557413E+04  0.12576884041E+04  0.25500000000E-02 0. -1.
<mgrwt>
<rscale>  0 0.33607053E+03</rscale>
<asrwt>0</asrwt>
<pdfrwt beam="1">  1       11 0.10000000E+01 0.34493008E+03</pdfrwt>
<pdfrwt beam="2">  1        2 0.19476319E+00 0.33607053E+03</pdfrwt>
<totfact> 0.22666065E+01</totfact>
</mgrwt>
</event>
<event>
 5    1  0.2804411E-003  0.2871969E+03  0.7818608E-02  0.1105850E+00
         11   -1    0    0    0    0  0.00000000000E+00  0.00000000000E+00  0.10004455208E+04  0.10004455208E+04  0.51100000000E-03 0.  1.
          2   -1    0    0  501    0 -0.00000000000E+00 -0.00000000000E+00 -0.87606806349E+03  0.87606806349E+03  0.25500000000E-02 0.  1.
         11    1    1    2    0    0  0.37135277478E+02 -0.99099285643E+02  0.20555805324E+03  0.23120080126E+03  0.51100000000E-03 0.  1.
         22    1    1    2    0    0  0.89580416811E+02 -0.13040679875E+03  0.75375798077E+03  0.77018288595E+03  0.00000000000E+00 0.  1.
          2    1    1    2  501    0 -0.12671569429E+03  0.22950608439E+03 -0.83493857669E+03  0.87512989710E+03  0.25500000000E-02 0.  1.
<mgrwt>
<rscale>  0 0.26216390E+03</rscale>
<asrwt>0</asrwt>
<pdfrwt beam="1">  1       11 0.10000000E+01 0.28719686E+03</pdfrwt>
<pdfrwt beam="2">  1        2 0.13483975E+00 0.26216390E+03</pdfrwt>
<totfact> 0.39404910E+01</totfact>
</mgrwt>
</event>
<event>
 5    1  0.2804411E-003  0.7711330E+02  0.7818608E-02  0.1342830E+00
         11   -1    0    0    0    0  0.00000000000E+00  0.00000000000E+00  0.99988488156E+03  0.99988488156E+03  0.51100000000E-03 0. -1.
         -2   -1    0    0    0  501 -0.00000000000E+00 -0.00000000000E+00 -0.11805230601E+02  0.11805230877E+02  0.25500000000E-02 0. -1.
         11    1    1    2    0    0  0.31506436625E+02  0.36722896101E+02  0.10213788040E+03  0.11301934905E+03  0.51100000000E-03 0. -1.
         22    1    1    2    0    0  0.14990904854E+02  0.22553326232E+02  0.34294156993E+02  0.43697470823E+02  0.00000000000E+00 0. -1.
         -2    1    1    2    0  501 -0.46497341479E+02 -0.59276222333E+02  0.85164761357E+03  0.85497329257E+03  0.25500000000E-02 0. -1.
<mgrwt>
<rscale>  0 0.75337065E+02</rscale>
<asrwt>0</asrwt>
<pdfrwt beam="1">  1       11 0.10000000E+01 0.77113298E+02</pdfrwt>
<pdfrwt beam="2">  1       -2 0.18159802E-02 0.75337065E+02</pdfrwt>
<totfact> 0.60578012E+03</totfact>
</mgrwt>
</event>
<event>
 5    1  0.2804411E-003  0.2438911E+03  0.7818608E-02  0.1131451E+00
         11   -1    0    0    0    0  0.00000000000E+00  0.00000000000E+00  0.10003157470E+04  0.10003157470E+04  0.51100000000E-03 0. -1.
          2   -1    0    0  501    0 -0.00000000000E+00 -0.00000000000E+00 -0.54573096767E+02  0.54573096826E+02  0.25500000000E-02 0. -1.
         11    1    1    2    0    0 -0.12856987997E+03  0.11860428792E+03  0.30781467133E+03  0.35404387162E+03  0.51100000000E-03 0. -1.
         22    1    1    2    0    0 -0.65156466066E+02 -0.75616259692E+01  0.17466953252E+03  0.18657971178E+03  0.00000000000E+00 0. -1.
          2    1    1    2  501    0  0.19372634604E+03 -0.11104266195E+03  0.46325844641E+03  0.51426526045E+03  0.25500000000E-02 0. -1.
<mgrwt>
<rscale>  0 0.22329436E+03</rscale>
<asrwt>0</asrwt>
<pdfrwt beam="1">  1       11 0.10000000E+01 0.24389107E+03</pdfrwt>
<pdfrwt beam="2">  1        2 0.83985118E-02 0.22329436E+03</pdfrwt>
<totfact> 0.97231649E+02</totfact>
</mgrwt>
</event>
<event>
 5    1  0.2804411E-003  0.4178714E+03  0.7818608E-02  0.1174769E+00
         11   -1    0    0    0    0  0.00000000000E+00  0.00000000000E+00  0.99987151782E+03  0.99987151782E+03  0.51100000000E-03 0.  1.
          2   -1    0    0  501    0 -0.00000000000E+00 -0.00000000000E+00 -0.22371650788E+03  0.22371650790E+03  0.25500000000E-02 0.  1.
         11    1    1    2    0    0 -0.26481665496E+03  0.30345387216E+03  0.47752665203E+03  0.62469497891E+03  0.51100000000E-03 0.  1.
         22    1    1    2    0    0  0.19352255066E+02  0.68946846320E+02  0.26201754918E+02  0.76254241551E+02  0.00000000000E+00 0.  1.
          2    1    1    2  501    0  0.24546439989E+03 -0.37240071848E+03  0.27242660299E+03  0.52263880526E+03  0.25500000000E-02 0.  1.
<mgrwt>
<rscale>  0 0.17298644E+03</rscale>
<asrwt>0</asrwt>
<pdfrwt beam="1">  1       11 0.10000000E+01 0.41787136E+03</pdfrwt>
<pdfrwt beam="2">  1        2 0.34413501E-01 0.17298644E+03</pdfrwt>
<totfact> 0.18570905E+02</totfact>
</mgrwt>
</event>
<event>
 5    1  0.2804411E-003  0.1760592E+03  0.7818608E-02  0.1174939E+00
         11   -1    0    0    0    0  0.00000000000E+00  0.00000000000E+00  0.10001576877E+04  0.10001576877E+04  0.51100000000E-03 0. -1.
          2   -1    0    0  501    0 -0.00000000000E+00 -0.00000000000E+00 -0.28733019612E+03  0.28733019614E+03  0.25500000000E-02 0. -1.
         11    1    1    2    0    0  0.10471064739E+03  0.49521232412E+02  0.65941235568E+03  0.66950827251E+03  0.51100000000E-03 0. -1.
         22    1    1    2    0    0  0.59921454538E+02  0.30419929806E+01  0.30605779656E+03  0.31188332638E+03  0.00000000000E+00 0. -1.
          2    1    1    2  501    0 -0.16463210193E+03 -0.52563225392E+02 -0.25264266068E+03  0.30609628493E+03  0.25500000000E-02 0. -1.
<mgrwt>
<rscale>  0 0.17281962E+03</rscale>
<asrwt>0</asrwt>
<pdfrwt beam="1">  1       11 0.10000000E+01 0.17605924E+03</pdfrwt>
<pdfrwt beam="2">  1        2 0.44211615E-01 0.17281962E+03</pdfrwt>
<totfact> 0.14193219E+02</totfact>
</mgrwt>
</event>
<event>
 5    1  0.2804411E-003  0.3746046E+03  0.7818608E-02  0.1056802E+00
         11   -1    0    0    0    0  0.00000000000E+00  0.00000000000E+00  0.10002830601E+04  0.10002830601E+04  0.51100000000E-03 0. -1.
          2   -1    0    0  501    0 -0.00000000000E+00 -0.00000000000E+00 -0.80792093315E+03  0.80792093315E+03  0.25500000000E-02 0.  1.
         11    1    1    2    0    0  0.16274239436E+02 -0.10743655729E+03  0.17998392964E+03  0.21024195500E+03  0.51100000000E-03 0. -1.
         22    1    1    2    0    0  0.17294940911E+02 -0.25555147179E+03  0.74057453475E+03  0.78361745210E+03  0.00000000000E+00 0. -1.
          2    1    1    2  501    0 -0.33569180347E+02  0.36298802908E+03 -0.72819633744E+03  0.81434458615E+03  0.25500000000E-02 0.  1.
<mgrwt>
<rscale>  0 0.36453697E+03</rscale>
<asrwt>0</asrwt>
<pdfrwt beam="1">  1       11 0.10000000E+01 0.37460464E+03</pdfrwt>
<pdfrwt beam="2">  1        2 0.12433071E+00 0.36453697E+03</pdfrwt>
<totfact> 0.43278872E+01</totfact>
</mgrwt>
</event>
<event>
 5    1  0.2804411E-003  0.1862111E+03  0.7818608E-02  0.1161924E+00
         11   -1    0    0    0    0  0.00000000000E+00  0.00000000000E+00  0.10000189463E+04  0.10000189463E+04  0.51100000000E-03 0.  1.
         -2   -1    0    0    0  501 -0.00000000000E+00 -0.00000000000E+00 -0.47079509280E+03  0.47079509281E+03  0.25500000000E-02 0. -1.
         11    1    1    2    0    0 -0.32739078861E+02  0.19794737115E+02  0.62438587560E+02  0.73227427367E+02  0.51100000000E-03 0.  1.
         22    1    1    2    0    0 -0.78965871709E+01  0.16248066756E+03  0.90591078173E+03  0.92040027590E+03  0.00000000000E+00 0.  1.
         -2    1    1    2    0  501  0.40635666032E+02 -0.18227540467E+03 -0.43912551578E+03  0.47718633585E+03  0.25500000000E-02 0. -1.
<mgrwt>
<rscale>  0 0.18621110E+03</rscale>
<asrwt>0</asrwt>
<pdfrwt beam="1">  1       11 0.10000000E+01 0.38258057E+02</pdfrwt>
<pdfrwt beam="2">  1       -2 0.72431384E-01 0.18621110E+03</pdfrwt>
<totfact> 0.14474763E+01</totfact>
</mgrwt>
</event>
<event>
 5    1  0.2804411E-003  0.1242993E+03  0.7818608E-02  0.1236168E+00
         11   -1    0    0    0    0  0.00000000000E+00  0.00000000000E+00  0.99992267406E+03  0.99992267406E+03  0.51100000000E-03 0. -1.
         -2   -1    0    0    0  501 -0.00000000000E+00 -0.00000000000E+00 -0.99331927843E+02  0.99331927875E+02  0.25500000000E-02 0.  1.
         11    1    1    2    0    0  0.26537967249E+02 -0.11702615252E+03  0.62271870147E+03  0.63417502729E+03  0.51100000000E-03 0. -1.
         22    1    1    2    0    0  0.55981726450E+02  0.22431579647E+02  0.32533444981E+03  0.33087706735E+03  0.00000000000E+00 0. -1.
         -2    1    1    2    0  501 -0.82519693699E+02  0.94594572869E+02 -0.47462405063E+02  0.13420250730E+03  0.25500000000E-02 0.  1.
<mgrwt>
<rscale>  0 0.12429927E+03</rscale>
<asrwt>0</asrwt>
<pdfrwt beam="1">  1       11 0.10000000E+01 0.60308618E+02</pdfrwt>
<pdfrwt beam="2">  1       -2 0.15280653E-01 0.12429927E+03</pdfrwt>
<totfact> 0.25773038E+02</totfact>
</mgrwt>
</event>
<event>
 5    1  0.2804411E-003  0.5376557E+02  0.7818608E-02  0.1524191E+00
         11   -1    0    0    0    0  0.00000000000E+00  0.00000000000E+00  0.10001835613E+04  0.10001835613E+04  0.51100000000E-03 0.  1.
          2   -1    0    0  501    0 -0.00000000000E+00 -0.00000000000E+00 -0.57474524728E+01  0.57474530385E+01  0.25500000000E-02 0.  1.
         11    1    1    2    0    0 -0.50826513958E+02 -0.17332450313E+02  0.22634378083E+03  0.23262685889E+03  0.51100000000E-03 0.  1.
         22    1    1    2    0    0  0.12960965648E+02 -0.23375535385E+02  0.12568727435E+03  0.12849783352E+03  0.00000000000E+00 0.  1.
          2    1    1    2  501    0  0.37865548310E+02  0.40707985698E+02  0.64240505360E+03  0.64480632189E+03  0.25500000000E-02 0.  1.
<mgrwt>
<rscale>  0 0.37908600E+02</rscale>
<asrwt>0</asrwt>
<pdfrwt beam="1">  1       11 0.10000000E+01 0.53765574E+02</pdfrwt>
<pdfrwt beam="2">  1        2 0.88438578E-03 0.37908600E+02</pdfrwt>
<totfact> 0.15404485E+04</totfact>
</mgrwt>
</event>
<event>
 5    1  0.2804411E-003  0.2442298E+03  0.7818608E-02  0.1117007E+00
         11   -1    0    0    0    0  0.00000000000E+00  0.00000000000E+00  0.10001471028E+04  0.10001471028E+04  0.51100000000E-03 0.  1.
          2   -1    0    0  501    0 -0.00000000000E+00 -0.00000000000E+00 -0.18062160108E+03  0.18062160110E+03  0.25500000000E-02 0.  1.
         11    1    1    2    0    0  0.16094519644E+03 -0.17457235102E+03  0.86933231006E+03  0.90117563622E+03  0.51100000000E-03 0.  1.
         22    1    1    2    0    0  0.13914079862E+02  0.30129029435E+01  0.20298052628E+02  0.24792945430E+02  0.00000000000E+00 0.  1.
          2    1    1    2  501    0 -0.17485927630E+03  0.17155944808E+03 -0.70104861006E+02  0.25480012221E+03  0.25500000000E-02 0.  1.
<mgrwt>
<rscale>  0 0.24422984E+03</rscale>
<asrwt>0</asrwt>
<pdfrwt beam="1">  1       11 0.10000000E+01 0.14236545E+02</pdfrwt>
<pdfrwt beam="2">  1        2 0.27792026E-01 0.24422984E+03</pdfrwt>
<totfact> 0.23586020E+02</totfact>
</mgrwt>
</event>
<event>
 5    1  0.2804411E-003  0.3433165E+03  0.7818608E-02  0.1065392E+00
         11   -1    0    0    0    0  0.00000000000E+00  0.00000000000E+00  0.99972400101E+03  0.99972400101E+03  0.51100000000E-03 0. -1.
          2   -1    0    0  501    0 -0.00000000000E+00 -0.00000000000E+00 -0.39240981167E+03  0.39240981168E+03  0.25500000000E-02 0. -1.
         11    1    1    2    0    0 -0.23088677932E+01  0.29450781056E+03  0.59728254902E+03  0.66594791442E+03  0.51100000000E-03 0. -1.
         22    1    1    2    0    0 -0.10363732975E+03  0.41014519309E+02  0.26776520201E+03  0.29003636034E+03  0.00000000000E+00 0. -1.
          2    1    1    2  501    0  0.10594619754E+03 -0.33552232987E+03 -0.25773356169E+03  0.43614953794E+03  0.25500000000E-02 0. -1.
<mgrwt>
<rscale>  0 0.34331650E+03</rscale>
<asrwt>0</asrwt>
<pdfrwt beam="1">  1       11 0.10000000E+01 0.11145801E+03</pdfrwt>
<pdfrwt beam="2">  1        2 0.60354076E-01 0.34331650E+03</pdfrwt>
<totfact> 0.10123012E+02</totfact>
</mgrwt>
</event>
<event>
 5    1  0.2804411E-003  0.4079174E+03  0.7818608E-02  0.1041405E+00
         11   -1    0    0    0    0  0.00000000000E+00  0.00000000000E+00  0.99994850311E+03  0.99994850311E+03  0.51100000000E-03 0.  1.
          2   -1    0    0  501    0 -0.00000000000E+00 -0.00000000000E+00 -0.17841092301E+03  0.17841092303E+03  0.25500000000E-02 0.  1.
         11    1    1    2    0    0  0.32852637957E+03  0.22315496095E+03  0.54621091549E+03  0.67533257204E+03  0.51100000000E-03 0.  1.
         22    1    1    2    0    0  0.63000822287E+01  0.81131713258E+01  0.20394001212E+02  0.22834838963E+02  0.00000000000E+00 0. -1.
          2    1    1    2  501    0 -0.33482646179E+03 -0.23126813228E+03  0.25493266340E+03  0.48019201514E+03  0.25500000000E-02 0.  1.
<mgrwt>
<rscale>  0 0.40693207E+03</rscale>
<asrwt>0</asrwt>
<pdfrwt beam="1">  1       11 0.10000000E+01 0.40791740E+03</pdfrwt>
<pdfrwt beam="2">  1        2 0.27446420E-01 0.40693207E+03</pdfrwt>
<totfact> 0.24113349E+02</totfact>
</mgrwt>
</event>
<event>
 5    1  0.2804411E-003  0.2566571E+03  0.7818608E-02  0.1109169E+00
         11   -1    0    0    0    0  0.00000000000E+00  0.00000000000E+00  0.10007459790E+04  0.10007459790E+04  0.51100000000E-03 0.  1.
          2   -1    0    0  501    0 -0.00000000000E+00 -0.00000000000E+00 -0.19826573411E+04  0.19826573411E+04  0.25500000000E-02 0.  1.
         11    1    1    2    0    0  0.85419752649E+02  0.23885419181E+03  0.47115376902E+03  0.53510161012E+03  0.51100000000E-03 0.  1.
         22    1    1    2    0    0  0.10319675750E+03 -0.64017848986E+02  0.48157025069E+03  0.49664651624E+03  0.00000000000E+00 0.  1.
          2    1    1    2  501    0 -0.18861651015E+03 -0.17483634282E+03 -0.19346353818E+04  0.19516551937E+04  0.25500000000E-02 0.  1.
<mgrwt>
<rscale>  0 0.25665706E+03</rscale>
<asrwt>0</asrwt>
<pdfrwt beam="1">  1       11 0.10000000E+01 0.12144075E+03</pdfrwt>
<pdfrwt beam="2">  1        2 0.30525174E+00 0.25665706E+03</pdfrwt>
<totfact> 0.95464090E+00</totfact>
</mgrwt>
</event>
<event>
 5    1  0.2804411E-003  0.1065887E+03  0.7818608E-02  0.1275104E+00
         11   -1    0    0    0    0  0.00000000000E+00  0.00000000000E+00  0.10001964096E+04  0.10001964096E+04  0.51100000000E-03 0.  1.
          2   -1    0    0  501    0 -0.00000000000E+00 -0.00000000000E+00 -0.12108647893E+02  0.12108648161E+02  0.25500000000E-02 0.  1.
         11    1    1    2    0    0  0.71337125915E+02 -0.42335937595E+02  0.23706514014E+03  0.25115970579E+03  0.51100000000E-03 0.  1.
         22    1    1    2    0    0  0.20696551089E+02 -0.28100143381E+01  0.10768352777E+03  0.10969040779E+03  0.00000000000E+00 0.  1.
          2    1    1    2  501    0 -0.92033677004E+02  0.45145951933E+02  0.64333909376E+03  0.65145494414E+03  0.25500000000E-02 0.  1.
<mgrwt>
<rscale>  0 0.10251027E+03</rscale>
<asrwt>0</asrwt>
<pdfrwt beam="1">  1       11 0.10000000E+01 0.10658874E+03</pdfrwt>
<pdfrwt beam="2">  1        2 0.18632348E-02 0.10251027E+03</pdfrwt>
<totfact> 0.66481785E+03</totfact>
</mgrwt>
</event>
<event>
 5    1  0.2804411E-003  0.1941931E+03  0.7818608E-02  0.1160808E+00
         11   -1    0    0    0    0  0.00000000000E+00  0.00000000000E+00  0.99999017772E+03  0.99999017772E+03  0.51100000000E-03 0. -1.
          2   -1    0    0  501    0 -0.00000000000E+00 -0.00000000000E+00 -0.38829452525E+02  0.38829452609E+02  0.25500000000E-02 0. -1.
         11    1    1    2    0    0 -0.49554019676E+02  0.15157326685E+03  0.46640761115E+03  0.49291593181E+03  0.51100000000E-03 0. -1.
         22    1    1    2    0    0  0.69034959385E+01  0.30930675809E+02  0.15186455039E+03  0.15513609066E+03  0.00000000000E+00 0.  1.
          2    1    1    2  501    0  0.42650523738E+02 -0.18250394265E+03  0.34288856366E+03  0.39076760786E+03  0.25500000000E-02 0. -1.
<mgrwt>
<rscale>  0 0.18742133E+03</rscale>
<asrwt>0</asrwt>
<pdfrwt beam="1">  1       11 0.10000000E+01 0.19419309E+03</pdfrwt>
<pdfrwt beam="2">  1        2 0.59737031E-02 0.18742133E+03</pdfrwt>
<totfact> 0.14894138E+03</totfact>
</mgrwt>
</event>
<event>
 5    1  0.2804411E-003  0.1750315E+03  0.7818608E-02  0.1172700E+00
         11   -1    0    0    0    0  0.00000000000E+00  0.00000000000E+00  0.10001400126E+04  0.10001400126E+04  0.51100000000E-03 0. -1.
          2   -1    0    0  501    0 -0.00000000000E+00 -0.00000000000E+00 -0.54132425767E+02  0.54132425827E+02  0.25500000000E-02 0. -1.
         11    1    1    2    0    0  0.14919163497E+03 -0.54269560592E+02  0.48981105906E+03  0.51489630289E+03  0.51100000000E-03 0. -1.
         22    1    1    2    0    0 -0.21149796741E+02 -0.89088971699E+02  0.19135344195E+03  0.21213273799E+03  0.00000000000E+00 0. -1.
          2    1    1    2  501    0 -0.12804183823E+03  0.14335853229E+03  0.26484308579E+03  0.32724339751E+03  0.25500000000E-02 0. -1.
<mgrwt>
<rscale>  0 0.17503146E+03</rscale>
<asrwt>0</asrwt>
<pdfrwt beam="1">  1       11 0.10000000E+01 0.91565052E+02</pdfrwt>
<pdfrwt beam="2">  1        2 0.83292313E-02 0.17503146E+03</pdfrwt>
<totfact> 0.96892528E+02</totfact>
</mgrwt>
</event>
<event>
 5    1  0.2804411E-003  0.3042028E+03  0.7818608E-02  0.1083158E+00
         11   -1    0    0    0    0  0.00000000000E+00  0.00000000000E+00  0.10001053462E+04  0.10001053462E+04  0.51100000000E-03 0.  1.
          2   -1    0    0  501    0 -0.00000000000E+00 -0.00000000000E+00 -0.21962196381E+03  0.21962196382E+03  0.25500000000E-02 0.  1.
         11    1    1    2    0    0  0.11620255264E+03  0.21472338232E+03  0.17996000948E+03  0.30330639486E+03  0.51100000000E-03 0.  1.
         22    1    1    2    0    0  0.65657528172E+02  0.91399121205E+02  0.54445745310E+03  0.55596639161E+03  0.00000000000E+00 0.  1.
          2    1    1    2  501    0 -0.18186008081E+03 -0.30612250352E+03  0.56065919774E+02  0.36045452351E+03  0.25500000000E-02 0.  1.
<mgrwt>
<rscale>  0 0.30420285E+03</rscale>
<asrwt>0</asrwt>
<pdfrwt beam="1">  1       11 0.10000000E+01 0.11253760E+03</pdfrwt>
<pdfrwt beam="2">  1        2 0.33791553E-01 0.30420285E+03</pdfrwt>
<totfact> 0.19068521E+02</totfact>
</mgrwt>
</event>
<event>
 5    1  0.2804411E-003  0.3262943E+03  0.7818608E-02  0.1736911E+00
         11   -1    0    0    0    0  0.00000000000E+00  0.00000000000E+00  0.10002125111E+04  0.10002125111E+04  0.51100000000E-03 0.  1.
          2   -1    0    0  501    0 -0.00000000000E+00 -0.00000000000E+00 -0.27200291401E+03  0.27200291402E+03  0.25500000000E-02 0.  1.
         11    1    1    2    0    0  0.21184040982E+03  0.26128940845E+03  0.22268156729E+03  0.40340500073E+03  0.51100000000E-03 0.  1.
         22    1    1    2    0    0 -0.21385724262E+03 -0.24095925136E+03  0.64864161529E+03  0.72424597074E+03  0.00000000000E+00 0.  1.
          2    1    1    2  501    0  0.20168328083E+01 -0.20330157088E+02 -0.14311358549E+03  0.14456445366E+03  0.25500000000E-02 0.  1.
<mgrwt>
<rscale>  0 0.20429951E+02</rscale>
<asrwt>0</asrwt>
<pdfrwt beam="1">  1       11 0.10000000E+01 0.32629426E+03</pdfrwt>
<pdfrwt beam="2">  1        2 0.41855494E-01 0.20429951E+02</pdfrwt>
<totfact> 0.14574412E+02</totfact>
</mgrwt>
</event>
<event>
 5    1  0.2804411E-003  0.1830982E+03  0.7818608E-02  0.1164838E+00
         11   -1    0    0    0    0  0.00000000000E+00  0.00000000000E+00  0.10000535557E+04  0.10000535557E+04  0.51100000000E-03 0. -1.
          2   -1    0    0  501    0 -0.00000000000E+00 -0.00000000000E+00 -0.25742161193E+03  0.25742161194E+03  0.25500000000E-02 0. -1.
         11    1    1    2    0    0  0.72232094321E+01 -0.25265871275E+02  0.88261179155E+02  0.92090036116E+02  0.51100000000E-03 0. -1.
         22    1    1    2    0    0 -0.16586131240E+03 -0.66636694851E+02  0.86665223377E+03  0.88489350679E+03  0.00000000000E+00 0. -1.
          2    1    1    2  501    0  0.15863810297E+03  0.91902566126E+02 -0.21228146918E+03  0.28049162472E+03  0.25500000000E-02 0. -1.
<mgrwt>
<rscale>  0 0.18309819E+03</rscale>
<asrwt>0</asrwt>
<pdfrwt beam="1">  1       11 0.10000000E+01 0.26278109E+02</pdfrwt>
<pdfrwt beam="2">  1        2 0.39605445E-01 0.18309819E+03</pdfrwt>
<totfact> 0.15972540E+02</totfact>
</mgrwt>
</event>
<event>
 5    1  0.2804411E-003  0.1926356E+03  0.7818608E-02  0.1156105E+00
         11   -1    0    0    0    0  0.00000000000E+00  0.00000000000E+00  0.10004145015E+04  0.10004145015E+04  0.51100000000E-03 0.  1.
         -2   -1    0    0    0  501 -0.00000000000E+00 -0.00000000000E+00 -0.49674887254E+03  0.49674887255E+03  0.25500000000E-02 0. -1.
         11    1    1    2    0    0  0.80854399813E+02  0.99910545196E+02  0.48046926381E+03  0.49736331236E+03  0.51100000000E-03 0.  1.
         22    1    1    2    0    0 -0.63349682101E+02  0.95429118834E+02  0.48485968002E+03  0.49820558834E+03  0.00000000000E+00 0. -1.
         -2    1    1    2    0  501 -0.17504717712E+02 -0.19533966403E+03 -0.46166331483E+03  0.50159447340E+03  0.25500000000E-02 0. -1.
<mgrwt>
<rscale>  0 0.19263560E+03</rscale>
<asrwt>0</asrwt>
<pdfrwt beam="1">  1       11 0.10000000E+01 0.11454213E+03</pdfrwt>
<pdfrwt beam="2">  1       -2 0.76454579E-01 0.19263560E+03</pdfrwt>
<totfact> 0.12867942E+01</totfact>
</mgrwt>
</event>
<event>
 5    1  0.2804411E-003  0.2005050E+03  0.7818608E-02  0.1153115E+00
         11   -1    0    0    0    0  0.00000000000E+00  0.00000000000E+00  0.10003374874E+04  0.10003374874E+04  0.51100000000E-03 0.  1.
          2   -1    0    0  501    0 -0.00000000000E+00 -0.00000000000E+00 -0.66985468035E+02  0.66985468083E+02  0.25500000000E-02 0.  1.
         11    1    1    2    0    0 -0.50578888951E+02  0.13057081512E+03  0.67945720539E+02  0.15563927110E+03  0.51100000000E-03 0.  1.
         22    1    1    2    0    0 -0.11709945098E+02  0.55321286286E+02  0.58738659109E+02  0.81534027280E+02  0.00000000000E+00 0.  1.
          2    1    1    2  501    0  0.62288834049E+02 -0.18589210141E+03  0.80666763975E+03  0.83014965714E+03  0.25500000000E-02 0.  1.
<mgrwt>
<rscale>  0 0.19605043E+03</rscale>
<asrwt>0</asrwt>
<pdfrwt beam="1">  1       11 0.10000000E+01 0.20050497E+03</pdfrwt>
<pdfrwt beam="2">  1        2 0.10308934E-01 0.19605043E+03</pdfrwt>
<totfact> 0.74725601E+02</totfact>
</mgrwt>
</event>
<event>
 5    1  0.2804411E-003  0.9960209E+02  0.7818608E-02  0.1563437E+00
         11   -1    0    0    0    0  0.00000000000E+00  0.00000000000E+00  0.10003547373E+04  0.10003547373E+04  0.51100000000E-03 0.  1.
         -2   -1    0    0    0  501 -0.00000000000E+00 -0.00000000000E+00 -0.11140882443E+02  0.11140882735E+02  0.25500000000E-02 0.  1.
         11    1    1    2    0    0 -0.81954260044E+02  0.54743291081E+02  0.48811820701E+03  0.49796858603E+03  0.51100000000E-03 0.  1.
         22    1    1    2    0    0 -0.77342953726E+01 -0.80861130996E+01  0.47084029793E+02  0.48395355268E+02  0.00000000000E+00 0. -1.
         -2    1    1    2    0  501  0.89688555417E+02 -0.46657177982E+02  0.45401161807E+03  0.46513167875E+03  0.25500000000E-02 0.  1.
<mgrwt>
<rscale>  0 0.33384067E+02</rscale>
<asrwt>0</asrwt>
<pdfrwt beam="1">  1       11 0.10000000E+01 0.99602088E+02</pdfrwt>
<pdfrwt beam="2">  1       -2 0.17145899E-02 0.33384067E+02</pdfrwt>
<totfact> 0.57537806E+03</totfact>
</mgrwt>
</event>
<event>
 5    1  0.2804411E-003  0.2133283E+03  0.7818608E-02  0.1138957E+00
         11   -1    0    0    0    0  0.00000000000E+00  0.00000000000E+00  0.10001329722E+04  0.10001329722E+04  0.51100000000E-03 0. -1.
          2   -1    0    0  501    0 -0.00000000000E+00 -0.00000000000E+00 -0.48545919904E+03  0.48545919905E+03  0.25500000000E-02 0. -1.
         11    1    1    2    0    0  0.11941147491E+03  0.18257121021E+03  0.81001029393E+03  0.83887306752E+03  0.51100000000E-03 0. -1.
         22    1    1    2    0    0  0.27669447292E+02 -0.28106520290E+02  0.14884534973E+03  0.15398218381E+03  0.00000000000E+00 0.  1.
          2    1    1    2  501    0 -0.14708092221E+03 -0.15446468992E+03 -0.44418187053E+03  0.49273691989E+03  0.25500000000E-02 0. -1.
<mgrwt>
<rscale>  0 0.21332830E+03</rscale>
<asrwt>0</asrwt>
<pdfrwt beam="1">  1       11 0.10000000E+01 0.39440776E+02</pdfrwt>
<pdfrwt beam="2">  1        2 0.74695960E-01 0.21332830E+03</pdfrwt>
<totfact> 0.80419396E+01</totfact>
</mgrwt>
</event>
<event>
 5    1  0.3533703E-003  0.2114783E+03  0.7818608E-02  0.1142676E+00
         11   -1    0    0    0    0  0.00000000000E+00  0.00000000000E+00  0.10005615839E+04  0.10005615839E+04  0.51100000000E-03 0. -1.
          2   -1    0    0  501    0 -0.00000000000E+00 -0.00000000000E+00 -0.12881724036E+04  0.12881724036E+04  0.25500000000E-02 0. -1.
         11    1    1    2    0    0 -0.58506085217E+02 -0.17519740756E+03  0.88415720262E+03  0.90324473570E+03  0.51100000000E-03 0. -1.
         22    1    1    2    0    0 -0.17957166439E+02 -0.18888075361E+02  0.96614116235E+02  0.10006751058E+03  0.00000000000E+00 0. -1.
          2    1    1    2  501    0  0.76463251656E+02  0.19408548292E+03 -0.12683821385E+04  0.12854217412E+04  0.25500000000E-02 0. -1.
<mgrwt>
<rscale>  0 0.20860442E+03</rscale>
<asrwt>0</asrwt>
<pdfrwt beam="1">  1       11 0.10000000E+01 0.21147833E+03</pdfrwt>
<pdfrwt beam="2">  1        2 0.19829166E+00 0.20860442E+03</pdfrwt>
<totfact> 0.22677826E+01</totfact>
</mgrwt>
</event>
<event>
 5    1  0.2804411E-003  0.2239476E+03  0.7818608E-02  0.1131886E+00
         11   -1    0    0    0    0  0.00000000000E+00  0.00000000000E+00  0.10000495331E+04  0.10000495331E+04  0.51100000000E-03 0. -1.
          2   -1    0    0  501    0 -0.00000000000E+00 -0.00000000000E+00 -0.11602700732E+03  0.11602700735E+03  0.25500000000E-02 0. -1.
         11    1    1    2    0    0  0.39278629867E+02 -0.20966762735E+03  0.82709749898E+03  0.85416251238E+03  0.51100000000E-03 0. -1.
         22    1    1    2    0    0 -0.31820909000E+01 -0.10087885759E+02  0.36818486633E+02  0.38307859501E+02  0.00000000000E+00 0.  1.
          2    1    1    2  501    0 -0.36096538967E+02  0.21975551311E+03  0.20106540177E+02  0.22360616859E+03  0.25500000000E-02 0. -1.
<mgrwt>
<rscale>  0 0.22270035E+03</rscale>
<asrwt>0</asrwt>
<pdfrwt beam="1">  1       11 0.10000000E+01 0.22394762E+03</pdfrwt>
<pdfrwt beam="2">  1        2 0.17851192E-01 0.22270035E+03</pdfrwt>
<totfact> 0.38886710E+02</totfact>
</mgrwt>
</event>
<event>
 5    1  0.2804411E-003  0.1209055E+03  0.7818608E-02  0.1683205E+00
         11   -1    0    0    0    0  0.00000000000E+00  0.00000000000E+00  0.10003004596E+04  0.10003004596E+04  0.51100000000E-03 0. -1.
          2   -1    0    0  501    0 -0.00000000000E+00 -0.00000000000E+00 -0.47909962201E+02  0.47909962269E+02  0.25500000000E-02 0.  1.
         11    1    1    2    0    0  0.11584161418E+03  0.15729204239E+02  0.60222328261E+03  0.61346521463E+03  0.51100000000E-03 0. -1.
         22    1    1    2    0    0 -0.12405482486E+03 -0.37769411492E+02  0.37722582891E+03  0.39889278510E+03  0.00000000000E+00 0.  1.
          2    1    1    2  501    0  0.82132106750E+01  0.22040207253E+02 -0.27058614143E+02  0.35852422110E+02  0.25500000000E-02 0.  1.
<mgrwt>
<rscale>  0 0.23520790E+02</rscale>
<asrwt>0</asrwt>
<pdfrwt beam="1">  1       11 0.10000000E+01 0.12090553E+03</pdfrwt>
<pdfrwt beam="2">  1        2 0.73729778E-02 0.23520790E+02</pdfrwt>
<totfact> 0.95480341E+02</totfact>
</mgrwt>
</event>
<event>
 5    1  0.2804411E-003  0.9290227E+02  0.7818608E-02  0.1701957E+00
         11   -1    0    0    0    0  0.00000000000E+00  0.00000000000E+00  0.10000692809E+04  0.10000692809E+04  0.51100000000E-03 0.  1.
          2   -1    0    0  501    0 -0.00000000000E+00 -0.00000000000E+00 -0.45996533905E+03  0.45996533906E+03  0.25500000000E-02 0. -1.
         11    1    1    2    0    0  0.98470256804E+02  0.68610642431E+01  0.48609228833E+03  0.49601328455E+03  0.51100000000E-03 0.  1.
         22    1    1    2    0    0 -0.88328132356E+02  0.13075929203E+02  0.50482125384E+03  0.51265713418E+03  0.00000000000E+00 0. -1.
          2    1    1    2  501    0 -0.10142124448E+02 -0.19936993446E+02 -0.45080960033E+03  0.45136420123E+03  0.25500000000E-02 0. -1.
<mgrwt>
<rscale>  0 0.22368424E+02</rscale>
<asrwt>0</asrwt>
<pdfrwt beam="1">  1       11 0.10000000E+01 0.92902270E+02</pdfrwt>
<pdfrwt beam="2">  1        2 0.70768799E-01 0.22368424E+02</pdfrwt>
<totfact> 0.87031507E+01</totfact>
</mgrwt>
</event>
<event>
 5    1  0.2804411E-003  0.1202786E+03  0.7818608E-02  0.1242638E+00
         11   -1    0    0    0    0  0.00000000000E+00  0.00000000000E+00  0.10001861674E+04  0.10001861674E+04  0.51100000000E-03 0. -1.
          2   -1    0    0  501    0 -0.00000000000E+00 -0.00000000000E+00 -0.23603516487E+02  0.23603516625E+02  0.25500000000E-02 0. -1.
         11    1    1    2    0    0 -0.16010363527E+02 -0.10241458388E+03  0.38732288835E+03  0.40095398560E+03  0.51100000000E-03 0. -1.
         22    1    1    2    0    0  0.37764475730E+02 -0.31989949245E+02  0.28821074776E+03  0.29242938909E+03  0.00000000000E+00 0. -1.
          2    1    1    2  501    0 -0.21754112204E+02  0.13440453313E+03  0.30104901479E+03  0.33040630931E+03  0.25500000000E-02 0. -1.
<mgrwt>
<rscale>  0 0.12027855E+03</rscale>
<asrwt>0</asrwt>
<pdfrwt beam="1">  1       11 0.10000000E+01 0.49492550E+02</pdfrwt>
<pdfrwt beam="2">  1        2 0.36319862E-02 0.12027855E+03</pdfrwt>
<totfact> 0.27613944E+03</totfact>
</mgrwt>
</event>
<event>
 5    1  0.2804411E-003  0.2035190E+03  0.7818608E-02  0.1146804E+00
         11   -1    0    0    0    0  0.00000000000E+00  0.00000000000E+00  0.10006606603E+04  0.10006606603E+04  0.51100000000E-03 0. -1.
          2   -1    0    0  501    0 -0.00000000000E+00 -0.00000000000E+00 -0.77547472907E+02  0.77547472949E+02  0.25500000000E-02 0. -1.
         11    1    1    2    0    0  0.10057472906E+03  0.19551818740E+03  0.55444894137E+03  0.59645307134E+03  0.51100000000E-03 0. -1.
         22    1    1    2    0    0 -0.59239598390E+02  0.19162451980E+00  0.23213592324E+03  0.23957556970E+03  0.00000000000E+00 0.  1.
          2    1    1    2  501    0 -0.41335130670E+02 -0.19570981192E+03  0.13652832274E+03  0.24217949217E+03  0.25500000000E-02 0. -1.
<mgrwt>
<rscale>  0 0.20351899E+03</rscale>
<asrwt>0</asrwt>
<pdfrwt beam="1">  1       11 0.10000000E+01 0.59239908E+02</pdfrwt>
<pdfrwt beam="2">  1        2 0.11938262E-01 0.20351899E+03</pdfrwt>
<totfact> 0.62532387E+02</totfact>
</mgrwt>
</event>
<event>
 5    1  0.2804411E-003  0.1796168E+03  0.7818608E-02  0.1172033E+00
         11   -1    0    0    0    0  0.00000000000E+00  0.00000000000E+00  0.10003194363E+04  0.10003194363E+04  0.51100000000E-03 0. -1.
          2   -1    0    0  501    0 -0.00000000000E+00 -0.00000000000E+00 -0.32352480267E+02  0.32352480368E+02  0.25500000000E-02 0. -1.
         11    1    1    2    0    0 -0.23392674051E+02  0.15793696278E+03  0.52113563187E+03  0.54504462956E+03  0.51100000000E-03 0. -1.
         22    1    1    2    0    0  0.91326122699E+01  0.17180679973E+02  0.49271009084E+02  0.52973698261E+02  0.00000000000E+00 0.  1.
          2    1    1    2  501    0  0.14260061781E+02 -0.17511764275E+03  0.39756031511E+03  0.43465358888E+03  0.25500000000E-02 0. -1.
<mgrwt>
<rscale>  0 0.17569729E+03</rscale>
<asrwt>0</asrwt>
<pdfrwt beam="1">  1       11 0.10000000E+01 0.17961677E+03</pdfrwt>
<pdfrwt beam="2">  1        2 0.49788945E-02 0.17569729E+03</pdfrwt>
<totfact> 0.18810522E+03</totfact>
</mgrwt>
</event>
<event>
 5    1  0.2804411E-003  0.6733648E+03  0.7818608E-02  0.9763898E-01
         11   -1    0    0    0    0  0.00000000000E+00  0.00000000000E+00  0.10004691583E+04  0.10004691583E+04  0.51100000000E-03 0.  1.
          2   -1    0    0  501    0 -0.00000000000E+00 -0.00000000000E+00 -0.16483702379E+04  0.16483702379E+04  0.25500000000E-02 0.  1.
         11    1    1    2    0    0  0.41284900749E+03 -0.40547646356E+03  0.48429813524E+03  0.75458607812E+03  0.51100000000E-03 0.  1.
         22    1    1    2    0    0  0.17583102448E+03  0.50647296842E+02  0.27375407032E+03  0.32927646267E+03  0.00000000000E+00 0.  1.
          2    1    1    2  501    0 -0.58868003198E+03  0.35482916672E+03 -0.14059532852E+04  0.15649768553E+04  0.25500000000E-02 0.  1.
<mgrwt>
<rscale>  0 0.67336476E+03</rscale>
<asrwt>0</asrwt>
<pdfrwt beam="1">  1       11 0.10000000E+01 0.18298005E+03</pdfrwt>
<pdfrwt beam="2">  1        2 0.25371439E+00 0.67336476E+03</pdfrwt>
<totfact> 0.13269968E+01</totfact>
</mgrwt>
</event>
<event>
 5    1  0.2804411E-003  0.3075725E+03  0.7818608E-02  0.1305999E+00
         11   -1    0    0    0    0  0.00000000000E+00  0.00000000000E+00  0.10008784798E+04  0.10008784798E+04  0.51100000000E-03 0. -1.
          2   -1    0    0  501    0 -0.00000000000E+00 -0.00000000000E+00 -0.23181812280E+04  0.23181812280E+04  0.25500000000E-02 0. -1.
         11    1    1    2    0    0 -0.21936201800E+03  0.18819043196E+03  0.25638065369E+03  0.38635006563E+03  0.51100000000E-03 0. -1.
         22    1    1    2    0    0  0.29194105609E+03 -0.13717841046E+03  0.64029453831E+03  0.71695508389E+03  0.00000000000E+00 0. -1.
          2    1    1    2  501    0 -0.72579038089E+02 -0.51012021496E+02 -0.22139779402E+04  0.22157545584E+04  0.25500000000E-02 0. -1.
<mgrwt>
<rscale>  0 0.88712700E+02</rscale>
<asrwt>0</asrwt>
<pdfrwt beam="1">  1       11 0.10000000E+01 0.30757255E+03</pdfrwt>
<pdfrwt beam="2">  1        2 0.35695656E+00 0.88712700E+02</pdfrwt>
<totfact> 0.71950289E+00</totfact>
</mgrwt>
</event>
<event>
 5    1  0.2804411E-003  0.1973159E+03  0.7818608E-02  0.1153111E+00
         11   -1    0    0    0    0  0.00000000000E+00  0.00000000000E+00  0.10001326074E+04  0.10001326074E+04  0.51100000000E-03 0.  1.
          2   -1    0    0  501    0 -0.00000000000E+00 -0.00000000000E+00 -0.78412394168E+02  0.78412394209E+02  0.25500000000E-02 0.  1.
         11    1    1    2    0    0 -0.54933880504E+01 -0.12738850947E+02  0.40265098990E+02  0.42587954079E+02  0.51100000000E-03 0.  1.
         22    1    1    2    0    0 -0.41780747451E+02 -0.17753148524E+03  0.80519589132E+03  0.82559280672E+03  0.00000000000E+00 0.  1.
          2    1    1    2  501    0  0.47274135502E+02  0.19027033619E+03  0.76259222904E+02  0.21036424079E+03  0.25500000000E-02 0.  1.
<mgrwt>
<rscale>  0 0.19605521E+03</rscale>
<asrwt>0</asrwt>
<pdfrwt beam="1">  1       11 0.10000000E+01 0.19731586E+03</pdfrwt>
<pdfrwt beam="2">  1        2 0.12065045E-01 0.19605521E+03</pdfrwt>
<totfact> 0.61632236E+02</totfact>
</mgrwt>
</event>
<event>
 5    1  0.2804411E-003  0.5324491E+02  0.7818608E-02  0.1449366E+00
         11   -1    0    0    0    0  0.00000000000E+00  0.00000000000E+00  0.10001495944E+04  0.10001495944E+04  0.51100000000E-03 0. -1.
         -2   -1    0    0    0  501 -0.00000000000E+00 -0.00000000000E+00 -0.35973112075E+01  0.35973121113E+01  0.25500000000E-02 0. -1.
         11    1    1    2    0    0 -0.26576595307E+02  0.15559693730E+02  0.17347080098E+03  0.17618325199E+03  0.51100000000E-03 0. -1.
         22    1    1    2    0    0 -0.21105217210E+02 -0.31850204842E+01  0.78367086935E+02  0.81221763486E+02  0.00000000000E+00 0. -1.
         -2    1    1    2    0  501  0.47681812518E+02 -0.12374673246E+02  0.74471439531E+03  0.74634189108E+03  0.25500000000E-02 0. -1.
<mgrwt>
<rscale>  0 0.49261423E+02</rscale>
<asrwt>0</asrwt>
<pdfrwt beam="1">  1       11 0.10000000E+01 0.53244908E+02</pdfrwt>
<pdfrwt beam="2">  1       -2 0.55351534E-03 0.49261423E+02</pdfrwt>
<totfact> 0.29622547E+04</totfact>
</mgrwt>
</event>
<event>
 5    1  0.2804411E-003  0.1862926E+03  0.7818608E-02  0.1166324E+00
         11   -1    0    0    0    0  0.00000000000E+00  0.00000000000E+00  0.10003029335E+04  0.10003029335E+04  0.51100000000E-03 0.  1.
          2   -1    0    0  501    0 -0.00000000000E+00 -0.00000000000E+00 -0.38734004866E+02  0.38734004950E+02  0.25500000000E-02 0.  1.
         11    1    1    2    0    0 -0.13761353638E+03 -0.53843104509E+02  0.23944341612E+03  0.28137113360E+03  0.51100000000E-03 0.  1.
         22    1    1    2    0    0 -0.22885546604E+02 -0.30983077961E+02  0.61631191762E+02  0.72678078959E+02  0.00000000000E+00 0. -1.
          2    1    1    2  501    0  0.16049908299E+03  0.84826182470E+02  0.66049432077E+03  0.68498772591E+03  0.25500000000E-02 0.  1.
<mgrwt>
<rscale>  0 0.18153632E+03</rscale>
<asrwt>0</asrwt>
<pdfrwt beam="1">  1       11 0.10000000E+01 0.18629258E+03</pdfrwt>
<pdfrwt beam="2">  1        2 0.59608827E-02 0.18153632E+03</pdfrwt>
<totfact> 0.14902166E+03</totfact>
</mgrwt>
</event>
<event>
 5    1  0.2804411E-003  0.1430432E+03  0.7818608E-02  0.1213689E+00
         11   -1    0    0    0    0  0.00000000000E+00  0.00000000000E+00  0.10000670788E+04  0.10000670788E+04  0.51100000000E-03 0. -1.
          2   -1    0    0  501    0 -0.00000000000E+00 -0.00000000000E+00 -0.34281527512E+02  0.34281527607E+02  0.25500000000E-02 0. -1.
         11    1    1    2    0    0  0.12720352107E+02  0.60752044422E+01  0.54631262487E+02  0.56420654976E+02  0.51100000000E-03 0. -1.
         22    1    1    2    0    0  0.12649666465E+03 -0.18070419402E+02  0.76547633746E+03  0.77606827627E+03  0.00000000000E+00 0. -1.
          2    1    1    2  501    0 -0.13921701676E+03  0.11995214959E+02  0.14567795130E+03  0.20185967512E+03  0.25500000000E-02 0. -1.
<mgrwt>
<rscale>  0 0.13973283E+03</rscale>
<asrwt>0</asrwt>
<pdfrwt beam="1">  1       11 0.10000000E+01 0.14304316E+03</pdfrwt>
<pdfrwt beam="2">  1        2 0.52744348E-02 0.13973283E+03</pdfrwt>
<totfact> 0.17132928E+03</totfact>
</mgrwt>
</event>
<event>
 5    1  0.2804411E-003  0.3649783E+03  0.7818608E-02  0.1056630E+00
         11   -1    0    0    0    0  0.00000000000E+00  0.00000000000E+00  0.10003730485E+04  0.10003730485E+04  0.51100000000E-03 0. -1.
          2   -1    0    0  501    0 -0.00000000000E+00 -0.00000000000E+00 -0.22838705447E+04  0.22838705447E+04  0.25500000000E-02 0. -1.
         11    1    1    2    0    0  0.25725534702E+03 -0.24411464637E+03  0.87206111815E+03  0.94141535357E+03  0.51100000000E-03 0. -1.
         22    1    1    2    0    0  0.18384202709E+02  0.46164716244E+01  0.77667031767E+02  0.79946598070E+02  0.00000000000E+00 0. -1.
          2    1    1    2  501    0 -0.27563954973E+03  0.23949817474E+03 -0.22332256461E+04  0.22628816415E+04  0.25500000000E-02 0. -1.
<mgrwt>
<rscale>  0 0.36497827E+03</rscale>
<asrwt>0</asrwt>
<pdfrwt beam="1">  1       11 0.10000000E+01 0.18954966E+02</pdfrwt>
<pdfrwt beam="2">  1        2 0.35149577E+00 0.36497827E+03</pdfrwt>
<totfact> 0.63680803E+00</totfact>
</mgrwt>
</event>
<event>
 5    1  0.2804411E-003  0.2080464E+03  0.7818608E-02  0.1147501E+00
         11   -1    0    0    0    0  0.00000000000E+00  0.00000000000E+00  0.10010877121E+04  0.10010877121E+04  0.51100000000E-03 0.  1.
          2   -1    0    0  501    0 -0.00000000000E+00 -0.00000000000E+00 -0.14146726779E+04  0.14146726779E+04  0.25500000000E-02 0.  1.
         11    1    1    2    0    0 -0.45602367825E+02 -0.14384463151E+03  0.81924238413E+03  0.83302397199E+03  0.51100000000E-03 0.  1.
         22    1    1    2    0    0 -0.15842966267E+02 -0.49292789768E+02  0.16364117853E+03  0.17163686671E+03  0.00000000000E+00 0. -1.
          2    1    1    2  501    0  0.61445334092E+02  0.19313742128E+03 -0.13964685284E+04  0.14110995512E+04  0.25500000000E-02 0.  1.
<mgrwt>
<rscale>  0 0.20267608E+03</rscale>
<asrwt>0</asrwt>
<pdfrwt beam="1">  1       11 0.10000000E+01 0.20804640E+03</pdfrwt>
<pdfrwt beam="2">  1        2 0.21787868E+00 0.20267608E+03</pdfrwt>
<totfact> 0.19377474E+01</totfact>
</mgrwt>
</event>
<event>
 5    1  0.2804411E-003  0.9383318E+02  0.7818608E-02  0.1344589E+00
         11   -1    0    0    0    0  0.00000000000E+00  0.00000000000E+00  0.10002656393E+04  0.10002656393E+04  0.51100000000E-03 0. -1.
         -2   -1    0    0    0  501 -0.00000000000E+00 -0.00000000000E+00 -0.26068838055E+02  0.26068838180E+02  0.25500000000E-02 0.  1.
         11    1    1    2    0    0 -0.41453130663E+02 -0.89468194680E+02  0.50071755627E+03  0.51033419547E+03  0.51100000000E-03 0. -1.
         22    1    1    2    0    0 -0.43694837745E+02  0.40499705567E+02  0.40549372553E+02  0.72067444877E+02  0.00000000000E+00 0.  1.
         -2    1    1    2    0  501  0.85147968408E+02  0.48968489112E+02  0.43292987242E+03  0.44393283714E+03  0.25500000000E-02 0.  1.
<mgrwt>
<rscale>  0 0.74768546E+02</rscale>
<asrwt>0</asrwt>
<pdfrwt beam="1">  1       11 0.10000000E+01 0.93833177E+02</pdfrwt>
<pdfrwt beam="2">  1       -2 0.40116557E-02 0.74768546E+02</pdfrwt>
<totfact> 0.19300680E+03</totfact>
</mgrwt>
</event>
<event>
 5    1  0.2804411E-003  0.1739548E+03  0.7818608E-02  0.1178774E+00
         11   -1    0    0    0    0  0.00000000000E+00  0.00000000000E+00  0.10000447667E+04  0.10000447667E+04  0.51100000000E-03 0. -1.
         -2   -1    0    0    0  501 -0.00000000000E+00 -0.00000000000E+00 -0.32284058186E+02  0.32284058287E+02  0.25500000000E-02 0.  1.
         11    1    1    2    0    0  0.10889463605E+02 -0.14611545330E+03  0.59608241823E+03  0.61382616060E+03  0.51100000000E-03 0. -1.
         22    1    1    2    0    0 -0.39614496056E+01 -0.22857588004E+02  0.47666442968E+02  0.53011811868E+02  0.00000000000E+00 0. -1.
         -2    1    1    2    0  501 -0.69280139992E+01  0.16897304131E+03  0.32401184729E+03  0.36549085250E+03  0.25500000000E-02 0.  1.
<mgrwt>
<rscale>  0 0.16911501E+03</rscale>
<asrwt>0</asrwt>
<pdfrwt beam="1">  1       11 0.10000000E+01 0.17395484E+03</pdfrwt>
<pdfrwt beam="2">  1       -2 0.49670004E-02 0.16911501E+03</pdfrwt>
<totfact> 0.15201912E+03</totfact>
</mgrwt>
</event>
<event>
 5    1  0.2804411E-003  0.3177884E+03  0.7818608E-02  0.1076672E+00
         11   -1    0    0    0    0  0.00000000000E+00  0.00000000000E+00  0.10002024826E+04  0.10002024826E+04  0.51100000000E-03 0. -1.
          2   -1    0    0  501    0 -0.00000000000E+00 -0.00000000000E+00 -0.73419524995E+03  0.73419524995E+03  0.25500000000E-02 0.  1.
         11    1    1    2    0    0  0.32179410484E+02 -0.19056957953E+03  0.56865609686E+03  0.60060139493E+03  0.51100000000E-03 0. -1.
         22    1    1    2    0    0  0.26367120660E+03  0.48484898771E+02  0.32753871470E+03  0.42326693732E+03  0.00000000000E+00 0.  1.
          2    1    1    2  501    0 -0.29585061708E+03  0.14208468076E+03 -0.63018757888E+03  0.71052940032E+03  0.25500000000E-02 0.  1.
<mgrwt>
<rscale>  0 0.31778836E+03</rscale>
<asrwt>0</asrwt>
<pdfrwt beam="1">  1       11 0.10000000E+01 0.19326738E+03</pdfrwt>
<pdfrwt beam="2">  1        2 0.11297598E+00 0.31778836E+03</pdfrwt>
<totfact> 0.49113452E+01</totfact>
</mgrwt>
</event>
<event>
 5    1  0.2804411E-003  0.8766288E+03  0.7818608E-02  0.9455277E-01
         11   -1    0    0    0    0  0.00000000000E+00  0.00000000000E+00  0.10001872917E+04  0.10001872917E+04  0.51100000000E-03 0. -1.
          2   -1    0    0  501    0 -0.00000000000E+00 -0.00000000000E+00 -0.98425510475E+03  0.98425510475E+03  0.25500000000E-02 0. -1.
         11    1    1    2    0    0 -0.66546528837E+03  0.55992009295E+03  0.42273063620E+03  0.96698280817E+03  0.51100000000E-03 0. -1.
         22    1    1    2    0    0 -0.29708360575E+02 -0.21029164188E+02  0.18070010477E+02  0.40636654798E+02  0.00000000000E+00 0. -1.
          2    1    1    2  501    0  0.69517364894E+03 -0.53889092876E+03 -0.42486845973E+03  0.97682293348E+03  0.25500000000E-02 0. -1.
<mgrwt>
<rscale>  0 0.87662883E+03</rscale>
<asrwt>0</asrwt>
<pdfrwt beam="1">  1       11 0.10000000E+01 0.36397973E+02</pdfrwt>
<pdfrwt beam="2">  1        2 0.15145222E+00 0.87662883E+03</pdfrwt>
<totfact> 0.31832287E+01</totfact>
</mgrwt>
</event>
<event>
 5    1  0.2804411E-003  0.1593718E+03  0.7818608E-02  0.1193651E+00
         11   -1    0    0    0    0  0.00000000000E+00  0.00000000000E+00  0.10001281680E+04  0.10001281680E+04  0.51100000000E-03 0. -1.
          2   -1    0    0  501    0 -0.00000000000E+00 -0.00000000000E+00 -0.26273512194E+02  0.26273512317E+02  0.25500000000E-02 0. -1.
         11    1    1    2    0    0  0.36722540254E+02  0.97154273419E+02  0.23466999685E+03  0.25662717165E+03  0.51100000000E-03 0. -1.
         22    1    1    2    0    0  0.39995502019E+02  0.38321279455E+02  0.13663063445E+03  0.14743164827E+03  0.00000000000E+00 0. -1.
          2    1    1    2  501    0 -0.76718042273E+02 -0.13547555287E+03  0.60255402448E+03  0.62234286038E+03  0.25500000000E-02 0. -1.
<mgrwt>
<rscale>  0 0.15568970E+03</rscale>
<asrwt>0</asrwt>
<pdfrwt beam="1">  1       11 0.10000000E+01 0.15937180E+03</pdfrwt>
<pdfrwt beam="2">  1        2 0.40425968E-02 0.15568970E+03</pdfrwt>
<totfact> 0.24531242E+03</totfact>
</mgrwt>
</event>
<event>
 5    1  0.2804411E-003  0.9214359E+02  0.7818608E-02  0.1301815E+00
         11   -1    0    0    0    0  0.00000000000E+00  0.00000000000E+00  0.10004002679E+04  0.10004002679E+04  0.51100000000E-03 0. -1.
          2   -1    0    0  501    0 -0.00000000000E+00 -0.00000000000E+00 -0.98185170763E+01  0.98185174075E+01  0.25500000000E-02 0. -1.
         11    1    1    2    0    0  0.64851978152E+02 -0.21690493283E+02  0.22074101629E+03  0.23109057281E+03  0.51100000000E-03 0. -1.
         22    1    1    2    0    0  0.17183124370E+02 -0.16358995004E+02  0.81825570949E+02  0.85195660346E+02  0.00000000000E+00 0. -1.
          2    1    1    2  501    0 -0.82035102522E+02  0.38049488287E+02  0.68801516354E+03  0.69393255211E+03  0.25500000000E-02 0. -1.
<mgrwt>
<rscale>  0 0.90429650E+02</rscale>
<asrwt>0</asrwt>
<pdfrwt beam="1">  1       11 0.10000000E+01 0.92143592E+02</pdfrwt>
<pdfrwt beam="2">  1        2 0.15111457E-02 0.90429650E+02</pdfrwt>
<totfact> 0.86866941E+03</totfact>
</mgrwt>
</event>
<event>
 5    1  0.2804411E-003  0.3349765E+03  0.7818608E-02  0.1078287E+00
         11   -1    0    0    0    0  0.00000000000E+00  0.00000000000E+00  0.10003730958E+04  0.10003730958E+04  0.51100000000E-03 0.  1.
          2   -1    0    0  501    0 -0.00000000000E+00 -0.00000000000E+00 -0.13249544654E+03  0.13249544656E+03  0.25500000000E-02 0.  1.
         11    1    1    2    0    0 -0.11389312051E+03 -0.23497891064E+03  0.45465978180E+03  0.52431121343E+03  0.51100000000E-03 0.  1.
         22    1    1    2    0    0 -0.39862884459E+02 -0.39183724034E+02  0.24647829730E+03  0.25273694788E+03  0.00000000000E+00 0.  1.
          2    1    1    2  501    0  0.15375600497E+03  0.27416263468E+03  0.16673957020E+03  0.35582038108E+03  0.25500000000E-02 0.  1.
<mgrwt>
<rscale>  0 0.31433431E+03</rscale>
<asrwt>0</asrwt>
<pdfrwt beam="1">  1       11 0.10000000E+01 0.33497648E+03</pdfrwt>
<pdfrwt beam="2">  1        2 0.20391519E-01 0.31433431E+03</pdfrwt>
<totfact> 0.33656012E+02</totfact>
</mgrwt>
</event>
<event>
 5    1  0.2804411E-003  0.4839134E+03  0.7818608E-02  0.1018065E+00
         11   -1    0    0    0    0  0.00000000000E+00  0.00000000000E+00  0.10004432924E+04  0.10004432924E+04  0.51100000000E-03 0. -1.
          2   -1    0    0  501    0 -0.00000000000E+00 -0.00000000000E+00 -0.31804837062E+03  0.31804837063E+03  0.25500000000E-02 0. -1.
         11    1    1    2    0    0  0.40144631136E+03 -0.19505497229E+03  0.16221990663E+03  0.47489038864E+03  0.51100000000E-03 0. -1.
         22    1    1    2    0    0  0.95157453947E+02 -0.23054335950E+02  0.17548685006E+03  0.20095292482E+03  0.00000000000E+00 0. -1.
          2    1    1    2  501    0 -0.49660376530E+03  0.21810930824E+03  0.34468816510E+03  0.64264834958E+03  0.25500000000E-02 0. -1.
<mgrwt>
<rscale>  0 0.48391343E+03</rscale>
<asrwt>0</asrwt>
<pdfrwt beam="1">  1       11 0.10000000E+01 0.97910385E+02</pdfrwt>
<pdfrwt beam="2">  1        2 0.48952208E-01 0.48391343E+03</pdfrwt>
<totfact> 0.12722187E+02</totfact>
</mgrwt>
</event>
<event>
 5    1  0.2804411E-003  0.2463506E+03  0.7818608E-02  0.1115633E+00
         11   -1    0    0    0    0  0.00000000000E+00  0.00000000000E+00  0.10002660684E+04  0.10002660684E+04  0.51100000000E-03 0. -1.
         -2   -1    0    0    0  501 -0.00000000000E+00 -0.00000000000E+00 -0.10110429638E+03  0.10110429641E+03  0.25500000000E-02 0.  1.
         11    1    1    2    0    0 -0.21996431377E+03  0.56980402611E+02  0.57327197014E+03  0.61666183388E+03  0.51100000000E-03 0. -1.
         22    1    1    2    0    0 -0.32659417481E+02 -0.32185083745E+02  0.19264047070E+03  0.19802239297E+03  0.00000000000E+00 0.  1.
         -2    1    1    2    0  501  0.25262373125E+03 -0.24795318866E+02  0.13324933116E+03  0.28668613795E+03  0.25500000000E-02 0.  1.
<mgrwt>
<rscale>  0 0.24635064E+03</rscale>
<asrwt>0</asrwt>
<pdfrwt beam="1">  1       11 0.10000000E+01 0.45853213E+02</pdfrwt>
<pdfrwt beam="2">  1       -2 0.15558645E-01 0.24635064E+03</pdfrwt>
<totfact> 0.25722963E+02</totfact>
</mgrwt>
</event>
<event>
 5    1  0.2804411E-003  0.6959861E+02  0.7818608E-02  0.1373833E+00
         11   -1    0    0    0    0  0.00000000000E+00  0.00000000000E+00  0.99984807678E+03  0.99984807678E+03  0.51100000000E-03 0.  1.
         -2   -1    0    0    0  501 -0.00000000000E+00 -0.00000000000E+00 -0.49910921407E+01  0.49910927921E+01  0.25500000000E-02 0.  1.
         11    1    1    2    0    0 -0.48882369805E+01  0.38822716910E+02  0.20057244472E+03  0.20435362436E+03  0.51100000000E-03 0.  1.
         22    1    1    2    0    0  0.14871934256E+02  0.26532069208E+02  0.16896801694E+03  0.17168376707E+03  0.00000000000E+00 0.  1.
         -2    1    1    2    0  501 -0.99836972758E+01 -0.65354786118E+02  0.62531652298E+03  0.62880177815E+03  0.25500000000E-02 0.  1.
<mgrwt>
<rscale>  0 0.66112951E+02</rscale>
<asrwt>0</asrwt>
<pdfrwt beam="1">  1       11 0.10000000E+01 0.69598613E+02</pdfrwt>
<pdfrwt beam="2">  1       -2 0.76774370E-03 0.66112951E+02</pdfrwt>
<totfact> 0.19956110E+04</totfact>
</mgrwt>
</event>
<event>
 5    1  0.2804411E-003  0.3088127E+03  0.7818608E-02  0.1091889E+00
         11   -1    0    0    0    0  0.00000000000E+00  0.00000000000E+00  0.10001111264E+04  0.10001111264E+04  0.51100000000E-03 0.  1.
          2   -1    0    0  501    0 -0.00000000000E+00 -0.00000000000E+00 -0.98673522644E+02  0.98673522677E+02  0.25500000000E-02 0.  1.
         11    1    1    2    0    0  0.87164965361E+02 -0.23229714612E+03  0.45332736400E+03  0.51678370159E+03  0.51100000000E-03 0.  1.
         22    1    1    2    0    0 -0.22197540569E+02 -0.47325085691E+02  0.18622593540E+03  0.19342309469E+03  0.00000000000E+00 0.  1.
          2    1    1    2  501    0 -0.64967424792E+02  0.27962223181E+03  0.26188430436E+03  0.38857785280E+03  0.25500000000E-02 0.  1.
<mgrwt>
<rscale>  0 0.28707030E+03</rscale>
<asrwt>0</asrwt>
<pdfrwt beam="1">  1       11 0.10000000E+01 0.30881268E+03</pdfrwt>
<pdfrwt beam="2">  1        2 0.15182228E-01 0.28707030E+03</pdfrwt>
<totfact> 0.47449168E+02</totfact>
</mgrwt>
</event>
<event>
 5    1  0.2804411E-003  0.3812655E+03  0.7818608E-02  0.1055336E+00
         11   -1    0    0    0    0  0.00000000000E+00  0.00000000000E+00  0.10003371075E+04  0.10003371075E+04  0.51100000000E-03 0.  1.
          2   -1    0    0  501    0 -0.00000000000E+00 -0.00000000000E+00 -0.25807111334E+03  0.25807111335E+03  0.25500000000E-02 0.  1.
         11    1    1    2    0    0 -0.27448892781E+03 -0.17735262761E+03  0.62551264447E+03  0.70573663246E+03  0.51100000000E-03 0.  1.
         22    1    1    2    0    0 -0.22638274599E+02 -0.40309249140E+02  0.17390186153E+03  0.17994216984E+03  0.00000000000E+00 0.  1.
          2    1    1    2  501    0  0.29712720241E+03  0.21766187675E+03 -0.57148511872E+02  0.37272941851E+03  0.25500000000E-02 0.  1.
<mgrwt>
<rscale>  0 0.36832223E+03</rscale>
<asrwt>0</asrwt>
<pdfrwt beam="1">  1       11 0.10000000E+01 0.38126551E+03</pdfrwt>
<pdfrwt beam="2">  1        2 0.39716631E-01 0.36832223E+03</pdfrwt>
<totfact> 0.15994990E+02</totfact>
</mgrwt>
</event>
<event>
 5    1  0.2804411E-003  0.2247239E+03  0.7818608E-02  0.1134426E+00
         11   -1    0    0    0    0  0.00000000000E+00  0.00000000000E+00  0.10000588664E+04  0.10000588664E+04  0.51100000000E-03 0.  1.
          2   -1    0    0  501    0 -0.00000000000E+00 -0.00000000000E+00 -0.49504426766E+02  0.49504426832E+02  0.25500000000E-02 0.  1.
         11    1    1    2    0    0  0.15951589829E+03  0.71607337623E+02  0.36807233412E+03  0.40749254687E+03  0.51100000000E-03 0.  1.
         22    1    1    2    0    0  0.30291378065E+02  0.38184306581E+02  0.77726986494E+02  0.91744718015E+02  0.00000000000E+00 0.  1.
          2    1    1    2  501    0 -0.18980727635E+03 -0.10979164420E+03  0.50475511901E+03  0.55032602834E+03  0.25500000000E-02 0.  1.
<mgrwt>
<rscale>  0 0.21927382E+03</rscale>
<asrwt>0</asrwt>
<pdfrwt beam="1">  1       11 0.10000000E+01 0.22472386E+03</pdfrwt>
<pdfrwt beam="2">  1        2 0.76165138E-02 0.21927382E+03</pdfrwt>
<totfact> 0.10999088E+03</totfact>
</mgrwt>
</event>
<event>
 5    1  0.2804411E-003  0.1101946E+03  0.7818608E-02  0.1278225E+00
         11   -1    0    0    0    0  0.00000000000E+00  0.00000000000E+00  0.10003140207E+04  0.10003140207E+04  0.51100000000E-03 0. -1.
          2   -1    0    0  501    0 -0.00000000000E+00 -0.00000000000E+00 -0.13242903543E+02  0.13242903789E+02  0.25500000000E-02 0. -1.
         11    1    1    2    0    0  0.73131099569E+02 -0.28721377840E+02  0.20206013500E+03  0.21679800143E+03  0.51100000000E-03 0. -1.
         22    1    1    2    0    0  0.97028669379E+01 -0.29052519174E+02  0.10810006462E+03  0.11235576740E+03  0.00000000000E+00 0. -1.
          2    1    1    2  501    0 -0.82833966507E+02  0.57773897015E+02  0.67691091753E+03  0.68440315564E+03  0.25500000000E-02 0. -1.
<mgrwt>
<rscale>  0 0.10099153E+03</rscale>
<asrwt>0</asrwt>
<pdfrwt beam="1">  1       11 0.10000000E+01 0.11019462E+03</pdfrwt>
<pdfrwt beam="2">  1        2 0.20380095E-02 0.10099153E+03</pdfrwt>
<totfact> 0.58769257E+03</totfact>
</mgrwt>
</event>
<event>
 5    1  0.2804411E-003  0.9719041E+02  0.7818608E-02  0.1286318E+00
         11   -1    0    0    0    0  0.00000000000E+00  0.00000000000E+00  0.10002360711E+04  0.10002360711E+04  0.51100000000E-03 0. -1.
          2   -1    0    0  501    0 -0.00000000000E+00 -0.00000000000E+00 -0.10786728883E+02  0.10786729184E+02  0.25500000000E-02 0. -1.
         11    1    1    2    0    0 -0.18189562042E+01 -0.10094261340E+02  0.25619490465E+02  0.27596394794E+02  0.51100000000E-03 0. -1.
         22    1    1    2    0    0 -0.94943784475E+02  0.21074510234E+02  0.52337216296E+03  0.53233154909E+03  0.00000000000E+00 0. -1.
          2    1    1    2  501    0  0.96762740680E+02 -0.10980248893E+02  0.44045768877E+03  0.45109485638E+03  0.25500000000E-02 0. -1.
<mgrwt>
<rscale>  0 0.97190411E+02</rscale>
<asrwt>0</asrwt>
<pdfrwt beam="1">  1       11 0.10000000E+01 0.10256843E+02</pdfrwt>
<pdfrwt beam="2">  1        2 0.16598885E-02 0.97190411E+02</pdfrwt>
<totfact> 0.77227910E+03</totfact>
</mgrwt>
</event>
<event>
 5    1  0.2804411E-003  0.9987526E+02  0.7818608E-02  0.1286776E+00
         11   -1    0    0    0    0  0.00000000000E+00  0.00000000000E+00  0.99992698934E+03  0.99992698934E+03  0.51100000000E-03 0.  1.
          2   -1    0    0  501    0 -0.00000000000E+00 -0.00000000000E+00 -0.11952629106E+02  0.11952629378E+02  0.25500000000E-02 0.  1.
         11    1    1    2    0    0 -0.27791986464E+02 -0.22541475912E+00  0.52873350734E+02  0.59733043967E+02  0.51100000000E-03 0.  1.
         22    1    1    2    0    0 -0.68050879618E+02 -0.14588671292E+02  0.22683486639E+03  0.23727159155E+03  0.00000000000E+00 0.  1.
          2    1    1    2  501    0  0.95842866083E+02  0.14814086051E+02  0.70826614311E+03  0.71487498320E+03  0.25500000000E-02 0.  1.
<mgrwt>
<rscale>  0 0.96980989E+02</rscale>
<asrwt>0</asrwt>
<pdfrwt beam="1">  1       11 0.10000000E+01 0.99875256E+02</pdfrwt>
<pdfrwt beam="2">  1        2 0.18387317E-02 0.96980989E+02</pdfrwt>
<totfact> 0.67200376E+03</totfact>
</mgrwt>
</event>
<event>
 5    1  0.2804411E-003  0.5271451E+02  0.7818608E-02  0.1457954E+00
         11   -1    0    0    0    0  0.00000000000E+00  0.00000000000E+00  0.10002405047E+04  0.10002405047E+04  0.51100000000E-03 0.  1.
          2   -1    0    0  501    0 -0.00000000000E+00 -0.00000000000E+00 -0.56223108620E+01  0.56223114403E+01  0.25500000000E-02 0.  1.
         11    1    1    2    0    0  0.25516929167E+02 -0.60116450037E+01  0.45297031246E+02  0.52336169040E+02  0.51100000000E-03 0.  1.
         22    1    1    2    0    0  0.17349867791E+02 -0.14990662765E+02  0.89803028187E+02  0.92683988661E+02  0.00000000000E+00 0.  1.
          2    1    1    2  501    0 -0.42866796958E+02  0.21002307769E+02  0.85951813440E+03  0.86084265843E+03  0.25500000000E-02 0.  1.
<mgrwt>
<rscale>  0 0.47735304E+02</rscale>
<asrwt>0</asrwt>
<pdfrwt beam="1">  1       11 0.10000000E+01 0.52714515E+02</pdfrwt>
<pdfrwt beam="2">  1        2 0.86517895E-03 0.47735304E+02</pdfrwt>
<totfact> 0.16603479E+04</totfact>
</mgrwt>
</event>
<event>
 5    1  0.2804411E-003  0.5239298E+02  0.7818608E-02  0.1441260E+00
         11   -1    0    0    0    0  0.00000000000E+00  0.00000000000E+00  0.99987916577E+03  0.99987916577E+03  0.51100000000E-03 0.  1.
          2   -1    0    0  501    0 -0.00000000000E+00 -0.00000000000E+00 -0.74299212930E+01  0.74299217306E+01  0.25500000000E-02 0.  1.
         11    1    1    2    0    0 -0.19324161287E+02 -0.11818068153E+02  0.50841266923E+02  0.55659000772E+02  0.51100000000E-03 0.  1.
         22    1    1    2    0    0 -0.17337356048E+02 -0.23295862743E+02  0.44686790135E+02  0.53293436258E+02  0.00000000000E+00 0.  1.
          2    1    1    2  501    0  0.36661517335E+02  0.35113930897E+02  0.89692118742E+03  0.89835665047E+03  0.25500000000E-02 0.  1.
<mgrwt>
<rscale>  0 0.50764702E+02</rscale>
<asrwt>0</asrwt>
<pdfrwt beam="1">  1       11 0.10000000E+01 0.52392975E+02</pdfrwt>
<pdfrwt beam="2">  1        2 0.11429267E-02 0.50764702E+02</pdfrwt>
<totfact> 0.11557965E+04</totfact>
</mgrwt>
</event>
<event>
 5    1  0.2804411E-003  0.5201420E+02  0.7818608E-02  0.1452353E+00
         11   -1    0    0    0    0  0.00000000000E+00  0.00000000000E+00  0.10002018784E+04  0.10002018784E+04  0.51100000000E-03 0. -1.
          2   -1    0    0  501    0 -0.00000000000E+00 -0.00000000000E+00 -0.39155339132E+01  0.39155347436E+01  0.25500000000E-02 0. -1.
         11    1    1    2    0    0 -0.30628464490E+02 -0.22324355548E+01  0.14446343633E+03  0.14769147248E+03  0.51100000000E-03 0. -1.
         22    1    1    2    0    0 -0.17300256891E+02  0.10994761578E+02  0.66371983724E+02  0.69465271137E+02  0.00000000000E+00 0. -1.
          2    1    1    2  501    0  0.47928721381E+02 -0.87623260229E+01  0.78545092444E+03  0.78696066953E+03  0.25500000000E-02 0. -1.
<mgrwt>
<rscale>  0 0.48723102E+02</rscale>
<asrwt>0</asrwt>
<pdfrwt beam="1">  1       11 0.10000000E+01 0.52014199E+02</pdfrwt>
<pdfrwt beam="2">  1        2 0.60251149E-03 0.48723102E+02</pdfrwt>
<totfact> 0.27136593E+04</totfact>
</mgrwt>
</event>
<event>
 5    1  0.2804411E-003  0.9524287E+02  0.7818608E-02  0.1290630E+00
         11   -1    0    0    0    0  0.00000000000E+00  0.00000000000E+00  0.10002331400E+04  0.10002331400E+04  0.51100000000E-03 0.  1.
          2   -1    0    0  501    0 -0.00000000000E+00 -0.00000000000E+00 -0.31426524326E+02  0.31426524429E+02  0.25500000000E-02 0.  1.
         11    1    1    2    0    0 -0.15343795588E+02  0.58038022620E+02  0.24816145616E+03  0.25531931469E+03  0.51100000000E-03 0.  1.
         22    1    1    2    0    0 -0.76504067192E+02 -0.82066004043E+02  0.64572827948E+03  0.65540270997E+03  0.00000000000E+00 0.  1.
          2    1    1    2  501    0  0.91847862780E+02  0.24027981423E+02  0.74916880009E+02  0.12093763974E+03  0.25500000000E-02 0.  1.
<mgrwt>
<rscale>  0 0.95242870E+02</rscale>
<asrwt>0</asrwt>
<pdfrwt beam="1">  1       11 0.10000000E+01 0.60032026E+02</pdfrwt>
<pdfrwt beam="2">  1        2 0.48359770E-02 0.95242870E+02</pdfrwt>
<totfact> 0.18559438E+03</totfact>
</mgrwt>
</event>
<event>
 5    1  0.2804411E-003  0.1750134E+03  0.7818608E-02  0.1172718E+00
         11   -1    0    0    0    0  0.00000000000E+00  0.00000000000E+00  0.10002346997E+04  0.10002346997E+04  0.51100000000E-03 0. -1.
          2   -1    0    0  501    0 -0.00000000000E+00 -0.00000000000E+00 -0.30296750598E+03  0.30296750599E+03  0.25500000000E-02 0. -1.
         11    1    1    2    0    0  0.76015169692E+02 -0.11050896921E+03  0.76535387910E+03  0.77701808123E+03  0.51100000000E-03 0. -1.
         22    1    1    2    0    0 -0.38659611770E+02 -0.62280358562E+02  0.19550793560E+03  0.20879837530E+03  0.00000000000E+00 0.  1.
          2    1    1    2  501    0 -0.37355557922E+02  0.17278932777E+03 -0.26359462103E+03  0.31738574911E+03  0.25500000000E-02 0. -1.
<mgrwt>
<rscale>  0 0.17501344E+03</rscale>
<asrwt>0</asrwt>
<pdfrwt beam="1">  1       11 0.10000000E+01 0.73303538E+02</pdfrwt>
<pdfrwt beam="2">  1        2 0.46621324E-01 0.17501344E+03</pdfrwt>
<totfact> 0.13411835E+02</totfact>
</mgrwt>
</event>
<event>
 5    1  0.2804411E-003  0.1459210E+03  0.7818608E-02  0.1205577E+00
         11   -1    0    0    0    0  0.00000000000E+00  0.00000000000E+00  0.99998736143E+03  0.99998736143E+03  0.51100000000E-03 0. -1.
         -2   -1    0    0    0  501 -0.00000000000E+00 -0.00000000000E+00 -0.36070670233E+02  0.36070670323E+02  0.25500000000E-02 0.  1.
         11    1    1    2    0    0  0.39133111087E+02  0.12516605609E+03  0.37125972435E+03  0.39374068231E+03  0.51100000000E-03 0. -1.
         22    1    1    2    0    0 -0.47447134745E+02  0.35776902459E+02  0.32100495590E+03  0.32645887805E+03  0.00000000000E+00 0. -1.
         -2    1    1    2    0  501  0.83140236577E+01 -0.16094295854E+03  0.27165201094E+03  0.31585847139E+03  0.25500000000E-02 0.  1.
<mgrwt>
<rscale>  0 0.14592102E+03</rscale>
<asrwt>0</asrwt>
<pdfrwt beam="1">  1       11 0.10000000E+01 0.59424047E+02</pdfrwt>
<pdfrwt beam="2">  1       -2 0.55492636E-02 0.14592102E+03</pdfrwt>
<totfact> 0.12702599E+03</totfact>
</mgrwt>
</event>
<event>
 5    1  0.2804411E-003  0.1922538E+03  0.7818608E-02  0.1655880E+00
         11   -1    0    0    0    0  0.00000000000E+00  0.00000000000E+00  0.10006185864E+04  0.10006185864E+04  0.51100000000E-03 0.  1.
         -2   -1    0    0    0  501 -0.00000000000E+00 -0.00000000000E+00 -0.73972110224E+03  0.73972110224E+03  0.25500000000E-02 0. -1.
         11    1    1    2    0    0 -0.43556270898E+02  0.18031366539E+03  0.82328646542E+02  0.20294869476E+03  0.51100000000E-03 0.  1.
         22    1    1    2    0    0  0.21332279261E+02 -0.19253006797E+03  0.84680282232E+03  0.86867595403E+03  0.00000000000E+00 0.  1.
         -2    1    1    2    0  501  0.22223991637E+02  0.12216402581E+02 -0.66823398467E+03  0.66871503989E+03  0.25500000000E-02 0. -1.
<mgrwt>
<rscale>  0 0.25360329E+02</rscale>
<asrwt>0</asrwt>
<pdfrwt beam="1">  1       11 0.10000000E+01 0.19225376E+03</pdfrwt>
<pdfrwt beam="2">  1       -2 0.11387364E+00 0.25360329E+02</pdfrwt>
<totfact> 0.55178400E+00</totfact>
</mgrwt>
</event>
<event>
 5    1  0.2804411E-003  0.1629481E+03  0.7818608E-02  0.1190304E+00
         11   -1    0    0    0    0  0.00000000000E+00  0.00000000000E+00  0.10002038000E+04  0.10002038000E+04  0.51100000000E-03 0. -1.
         -2   -1    0    0    0  501 -0.00000000000E+00 -0.00000000000E+00 -0.26314965294E+02  0.26314965418E+02  0.25500000000E-02 0.  1.
         11    1    1    2    0    0 -0.28078481699E+01 -0.14707797794E+02  0.58541539657E+02  0.60426113502E+02  0.51100000000E-03 0. -1.
         22    1    1    2    0    0 -0.12403862034E+03 -0.80470594098E+02  0.50380617552E+03  0.52505405279E+03  0.00000000000E+00 0. -1.
         -2    1    1    2    0  501  0.12684646851E+03  0.95178391892E+02  0.41154111952E+03  0.44103859913E+03  0.25500000000E-02 0.  1.
<mgrwt>
<rscale>  0 0.15858421E+03</rscale>
<asrwt>0</asrwt>
<pdfrwt beam="1">  1       11 0.10000000E+01 0.16294807E+03</pdfrwt>
<pdfrwt beam="2">  1       -2 0.40492812E-02 0.15858421E+03</pdfrwt>
<totfact> 0.20540924E+03</totfact>
</mgrwt>
</event>
<event>
 5    1  0.2804411E-003  0.9346084E+02  0.7818608E-02  0.1543927E+00
         11   -1    0    0    0    0  0.00000000000E+00  0.00000000000E+00  0.10000906784E+04  0.10000906784E+04  0.51100000000E-03 0.  1.
         -2   -1    0    0    0  501 -0.00000000000E+00 -0.00000000000E+00 -0.35491017689E+02  0.35491017780E+02  0.25500000000E-02 0.  1.
         11    1    1    2    0    0  0.83440097429E+02  0.15369164051E+02  0.48554190599E+03  0.49289897904E+03  0.51100000000E-03 0.  1.
         22    1    1    2    0    0 -0.99009871908E+02 -0.47308156663E+02  0.49258774025E+03  0.50466196436E+03  0.00000000000E+00 0.  1.
         -2    1    1    2    0  501  0.15569774479E+02  0.31938992612E+02 -0.13529985542E+02  0.38020752776E+02  0.25500000000E-02 0.  1.
<mgrwt>
<rscale>  0 0.35531917E+02</rscale>
<asrwt>0</asrwt>
<pdfrwt beam="1">  1       11 0.10000000E+01 0.93460840E+02</pdfrwt>
<pdfrwt beam="2">  1       -2 0.54606515E-02 0.35531917E+02</pdfrwt>
<totfact> 0.11296876E+03</totfact>
</mgrwt>
</event>
<event>
 5    1  0.2804411E-003  0.7136853E+02  0.7818608E-02  0.1366405E+00
         11   -1    0    0    0    0  0.00000000000E+00  0.00000000000E+00  0.10002479597E+04  0.10002479597E+04  0.51100000000E-03 0.  1.
          2   -1    0    0  501    0 -0.00000000000E+00 -0.00000000000E+00 -0.74283923895E+01  0.74283928272E+01  0.25500000000E-02 0.  1.
         11    1    1    2    0    0  0.39502631042E+02  0.23706385679E+02  0.11288613132E+03  0.12192509679E+03  0.51100000000E-03 0.  1.
         22    1    1    2    0    0  0.23359495991E+02  0.26837857063E+01  0.95157704767E+02  0.98019679326E+02  0.00000000000E+00 0. -1.
          2    1    1    2  501    0 -0.62862127033E+02 -0.26390171386E+02  0.78477573125E+03  0.78773157645E+03  0.25500000000E-02 0.  1.
<mgrwt>
<rscale>  0 0.68176889E+02</rscale>
<asrwt>0</asrwt>
<pdfrwt beam="1">  1       11 0.10000000E+01 0.71368528E+02</pdfrwt>
<pdfrwt beam="2">  1        2 0.11431130E-02 0.68176889E+02</pdfrwt>
<totfact> 0.12149268E+04</totfact>
</mgrwt>
</event>
<event>
 5    1  0.2804411E-003  0.4791432E+02  0.7818608E-02  0.1463713E+00
         11   -1    0    0    0    0  0.00000000000E+00  0.00000000000E+00  0.99970845534E+03  0.99970845534E+03  0.51100000000E-03 0.  1.
          2   -1    0    0  501    0 -0.00000000000E+00 -0.00000000000E+00 -0.44236523082E+01  0.44236530432E+01  0.25500000000E-02 0.  1.
         11    1    1    2    0    0  0.24331445378E+01  0.27011304990E+02  0.82076975012E+02  0.86441660194E+02  0.51100000000E-03 0.  1.
         22    1    1    2    0    0 -0.72025077544E+01  0.19493082167E+02  0.66011342489E+02  0.69205156655E+02  0.00000000000E+00 0.  1.
          2    1    1    2  501    0  0.47693632166E+01 -0.46504387157E+02  0.84719648553E+03  0.84848529153E+03  0.25500000000E-02 0.  1.
<mgrwt>
<rscale>  0 0.46748314E+02</rscale>
<asrwt>0</asrwt>
<pdfrwt beam="1">  1       11 0.10000000E+01 0.47914317E+02</pdfrwt>
<pdfrwt beam="2">  1        2 0.68036352E-03 0.46748314E+02</pdfrwt>
<totfact> 0.22841596E+04</totfact>
</mgrwt>
</event>
<event>
 5    1  0.2804411E-003  0.1083591E+03  0.7818608E-02  0.1671848E+00
         11   -1    0    0    0    0  0.00000000000E+00  0.00000000000E+00  0.10002830647E+04  0.10002830647E+04  0.51100000000E-03 0. -1.
          2   -1    0    0  501    0 -0.00000000000E+00 -0.00000000000E+00 -0.19692949136E+03  0.19692949138E+03  0.25500000000E-02 0. -1.
         11    1    1    2    0    0  0.32111787902E+02 -0.11747773694E+03  0.54225109448E+03  0.55575933196E+03  0.51100000000E-03 0. -1.
         22    1    1    2    0    0 -0.29080758799E+02  0.93406741212E+02  0.44517059884E+03  0.45579312403E+03  0.00000000000E+00 0. -1.
          2    1    1    2  501    0 -0.30310291031E+01  0.24070995723E+02 -0.18406811998E+03  0.18566010010E+03  0.25500000000E-02 0. -1.
<mgrwt>
<rscale>  0 0.24261080E+02</rscale>
<asrwt>0</asrwt>
<pdfrwt beam="1">  1       11 0.10000000E+01 0.10835908E+03</pdfrwt>
<pdfrwt beam="2">  1        2 0.30305420E-01 0.24261080E+02</pdfrwt>
<totfact> 0.20224820E+02</totfact>
</mgrwt>
</event>
<event>
 5    1  0.2804411E-003  0.1230429E+03  0.7818608E-02  0.1286554E+00
         11   -1    0    0    0    0  0.00000000000E+00  0.00000000000E+00  0.10000596041E+04  0.10000596041E+04  0.51100000000E-03 0. -1.
          2   -1    0    0  501    0 -0.00000000000E+00 -0.00000000000E+00 -0.37144273022E+02  0.37144273110E+02  0.25500000000E-02 0. -1.
         11    1    1    2    0    0 -0.73862819367E+01  0.11011200087E+03  0.49394776491E+03  0.50612607556E+03  0.51100000000E-03 0. -1.
         22    1    1    2    0    0 -0.61384227607E+02  0.45818711346E+02  0.11434791196E+03  0.13763292730E+03  0.00000000000E+00 0. -1.
          2    1    1    2  501    0  0.68770509544E+02 -0.15593071221E+03  0.35461965417E+03  0.39344487432E+03  0.25500000000E-02 0. -1.
<mgrwt>
<rscale>  0 0.97082147E+02</rscale>
<asrwt>0</asrwt>
<pdfrwt beam="1">  1       11 0.10000000E+01 0.12304295E+03</pdfrwt>
<pdfrwt beam="2">  1        2 0.57148440E-02 0.97082147E+02</pdfrwt>
<totfact> 0.14994892E+03</totfact>
</mgrwt>
</event>
<event>
 5    1  0.2804411E-003  0.6127571E+03  0.7818608E-02  0.1411470E+00
         11   -1    0    0    0    0  0.00000000000E+00  0.00000000000E+00  0.10004579823E+04  0.10004579823E+04  0.51100000000E-03 0.  1.
          2   -1    0    0  501    0 -0.00000000000E+00 -0.00000000000E+00 -0.44517702009E+03  0.44517702010E+03  0.25500000000E-02 0.  1.
         11    1    1    2    0    0  0.59276430971E+03 -0.17382252385E+02  0.42384922333E+03  0.72891689079E+03  0.51100000000E-03 0.  1.
         22    1    1    2    0    0 -0.64739257377E+03  0.15829301901E+01  0.12649876042E+03  0.65963746606E+03  0.00000000000E+00 0.  1.
          2    1    1    2  501    0  0.54628264065E+02  0.15799322195E+02  0.49329784812E+01  0.57080645580E+02  0.25500000000E-02 0.  1.
<mgrwt>
<rscale>  0 0.56867089E+02</rscale>
<asrwt>0</asrwt>
<pdfrwt beam="1">  1       11 0.10000000E+01 0.61275715E+03</pdfrwt>
<pdfrwt beam="2">  1        2 0.68520137E-01 0.56867089E+02</pdfrwt>
<totfact> 0.89550069E+01</totfact>
</mgrwt>
</event>
<event>
 5    1  0.2804411E-003  0.9212768E+02  0.7818608E-02  0.1305497E+00
         11   -1    0    0    0    0  0.00000000000E+00  0.00000000000E+00  0.10004013264E+04  0.10004013264E+04  0.51100000000E-03 0.  1.
          2   -1    0    0  501    0 -0.00000000000E+00 -0.00000000000E+00 -0.19683206598E+02  0.19683206763E+02  0.25500000000E-02 0.  1.
         11    1    1    2    0    0 -0.38616470035E+02 -0.49467838494E+02  0.55901112275E+02  0.84043043478E+02  0.51100000000E-03 0.  1.
         22    1    1    2    0    0 -0.12850684402E+02 -0.23039326206E+02  0.48375681939E+02  0.55101336143E+02  0.00000000000E+00 0.  1.
          2    1    1    2  501    0  0.51467154437E+02  0.72507164701E+02  0.87644132562E+03  0.88094015358E+03  0.25500000000E-02 0.  1.
<mgrwt>
<rscale>  0 0.88916573E+02</rscale>
<asrwt>0</asrwt>
<pdfrwt beam="1">  1       11 0.10000000E+01 0.92127675E+02</pdfrwt>
<pdfrwt beam="2">  1        2 0.30294008E-02 0.88916573E+02</pdfrwt>
<totfact> 0.34035845E+03</totfact>
</mgrwt>
</event>
<event>
 5    1  0.2804411E-003  0.2800793E+03  0.7818608E-02  0.1108365E+00
         11   -1    0    0    0    0  0.00000000000E+00  0.00000000000E+00  0.10002211974E+04  0.10002211974E+04  0.51100000000E-03 0. -1.
          2   -1    0    0  501    0 -0.00000000000E+00 -0.00000000000E+00 -0.14828586211E+03  0.14828586214E+03  0.25500000000E-02 0. -1.
         11    1    1    2    0    0 -0.15952143795E+03 -0.56915211440E+02  0.46029522431E+03  0.49046725067E+03  0.51100000000E-03 0. -1.
         22    1    1    2    0    0 -0.98236258865E+02  0.46276617489E+02  0.38495313832E+03  0.39997600752E+03  0.00000000000E+00 0.  1.
          2    1    1    2  501    0  0.25775769681E+03  0.10638593952E+02  0.66869726310E+01  0.25806380133E+03  0.25500000000E-02 0. -1.
<mgrwt>
<rscale>  0 0.25797715E+03</rscale>
<asrwt>0</asrwt>
<pdfrwt beam="1">  1       11 0.10000000E+01 0.28007928E+03</pdfrwt>
<pdfrwt beam="2">  1        2 0.22818255E-01 0.25797715E+03</pdfrwt>
<totfact> 0.29456104E+02</totfact>
</mgrwt>
</event>
<event>
 5    1  0.2804411E-003  0.2219487E+03  0.7818608E-02  0.1136919E+00
         11   -1    0    0    0    0  0.00000000000E+00  0.00000000000E+00  0.10002585198E+04  0.10002585198E+04  0.51100000000E-03 0.  1.
          2   -1    0    0  501    0 -0.00000000000E+00 -0.00000000000E+00 -0.68143212001E+02  0.68143212048E+02  0.25500000000E-02 0.  1.
         11    1    1    2    0    0 -0.51706628665E+02 -0.19157369739E+03  0.67101691303E+03  0.69974120541E+03  0.51100000000E-03 0.  1.
         22    1    1    2    0    0 -0.19908120930E+02 -0.12183432538E+02  0.90422540617E+02  0.93386322119E+02  0.00000000000E+00 0.  1.
          2    1    1    2  501    0  0.71614749594E+02  0.20375712993E+03  0.17067585411E+03  0.27527420428E+03  0.25500000000E-02 0.  1.
<mgrwt>
<rscale>  0 0.21597602E+03</rscale>
<asrwt>0</asrwt>
<pdfrwt beam="1">  1       11 0.10000000E+01 0.22194872E+03</pdfrwt>
<pdfrwt beam="2">  1        2 0.10486281E-01 0.21597602E+03</pdfrwt>
<totfact> 0.73515557E+02</totfact>
</mgrwt>
</event>
<event>
 5    1  0.2804411E-003  0.1334450E+03  0.7818608E-02  0.1222432E+00
         11   -1    0    0    0    0  0.00000000000E+00  0.00000000000E+00  0.10001195056E+04  0.10001195056E+04  0.51100000000E-03 0. -1.
          2   -1    0    0  501    0 -0.00000000000E+00 -0.00000000000E+00 -0.37108273289E+02  0.37108273377E+02  0.25500000000E-02 0. -1.
         11    1    1    2    0    0 -0.12826989100E+03  0.45242387654E+02  0.68073887875E+03  0.69419410803E+03  0.51100000000E-03 0. -1.
         22    1    1    2    0    0 -0.44868978401E+01 -0.30880891359E+02  0.15655242215E+03  0.15963214771E+03  0.00000000000E+00 0.  1.
          2    1    1    2  501    0  0.13275678884E+03 -0.14361496295E+02  0.12571993137E+03  0.18340152319E+03  0.25500000000E-02 0. -1.
<mgrwt>
<rscale>  0 0.13344498E+03</rscale>
<asrwt>0</asrwt>
<pdfrwt beam="1">  1       11 0.10000000E+01 0.31205155E+02</pdfrwt>
<pdfrwt beam="2">  1        2 0.57096472E-02 0.13344498E+03</pdfrwt>
<totfact> 0.15403677E+03</totfact>
</mgrwt>
</event>
<event>
 5    1  0.2804411E-003  0.1761451E+03  0.7818608E-02  0.1171587E+00
         11   -1    0    0    0    0  0.00000000000E+00  0.00000000000E+00  0.10001497133E+04  0.10001497133E+04  0.51100000000E-03 0.  1.
         -2   -1    0    0    0  501 -0.00000000000E+00 -0.00000000000E+00 -0.60867676339E+02  0.60867676393E+02  0.25500000000E-02 0. -1.
         11    1    1    2    0    0  0.18611039987E+03  0.51732580456E+01  0.76791166879E+03  0.79015958806E+03  0.51100000000E-03 0.  1.
         22    1    1    2    0    0 -0.12561283820E+02  0.97938081413E+01  0.64625733068E+02  0.66559671752E+02  0.00000000000E+00 0.  1.
         -2    1    1    2    0  501 -0.17354911605E+03 -0.14967066187E+02  0.10674463516E+03  0.20429812993E+03  0.25500000000E-02 0. -1.
<mgrwt>
<rscale>  0 0.17614512E+03</rscale>
<asrwt>0</asrwt>
<pdfrwt beam="1">  1       11 0.10000000E+01 0.15928105E+02</pdfrwt>
<pdfrwt beam="2">  1       -2 0.93656596E-02 0.17614512E+03</pdfrwt>
<totfact> 0.57470742E+02</totfact>
</mgrwt>
</event>
<event>
 5    1  0.2804411E-003  0.2501693E+03  0.7818608E-02  0.1113198E+00
         11   -1    0    0    0    0  0.00000000000E+00  0.00000000000E+00  0.10002460950E+04  0.10002460950E+04  0.51100000000E-03 0.  1.
         -2   -1    0    0    0  501 -0.00000000000E+00 -0.00000000000E+00 -0.20534452060E+03  0.20534452062E+03  0.25500000000E-02 0. -1.
         11    1    1    2    0    0  0.25980119769E+03  0.32033945483E+02  0.39254031610E+03  0.47181642166E+03  0.51100000000E-03 0.  1.
         22    1    1    2    0    0 -0.53138486433E+02 -0.19790404770E+03  0.42090061820E+03  0.46813143586E+03  0.00000000000E+00 0.  1.
         -2    1    1    2    0  501 -0.20666271126E+03  0.16587010221E+03 -0.18539359947E+02  0.26564275805E+03  0.25500000000E-02 0. -1.
<mgrwt>
<rscale>  0 0.25016931E+03</rscale>
<asrwt>0</asrwt>
<pdfrwt beam="1">  1       11 0.10000000E+01 0.20491391E+03</pdfrwt>
<pdfrwt beam="2">  1       -2 0.31599238E-01 0.25016931E+03</pdfrwt>
<totfact> 0.74895979E+01</totfact>
</mgrwt>
</event>
<event>
 5    1  0.2804411E-003  0.1614264E+03  0.7818608E-02  0.1187096E+00
         11   -1    0    0    0    0  0.00000000000E+00  0.00000000000E+00  0.10005226310E+04  0.10005226310E+04  0.51100000000E-03 0. -1.
         -2   -1    0    0    0  501 -0.00000000000E+00 -0.00000000000E+00 -0.39377212357E+03  0.39377212358E+03  0.25500000000E-02 0. -1.
         11    1    1    2    0    0  0.74323879169E+02  0.99001233542E+02  0.15256583512E+03  0.19647294293E+03  0.51100000000E-03 0. -1.
         22    1    1    2    0    0  0.21672650708E+02 -0.22779975757E+03  0.79165853378E+03  0.82406654310E+03  0.00000000000E+00 0. -1.
         -2    1    1    2    0  501 -0.95996529877E+02  0.12879852403E+03 -0.33747386150E+03  0.37375526852E+03  0.25500000000E-02 0. -1.
<mgrwt>
<rscale>  0 0.16142643E+03</rscale>
<asrwt>0</asrwt>
<pdfrwt beam="1">  1       11 0.10000000E+01 0.12379533E+03</pdfrwt>
<pdfrwt beam="2">  1       -2 0.60611986E-01 0.16142643E+03</pdfrwt>
<totfact> 0.21111157E+01</totfact>
</mgrwt>
</event>
<event>
 5    1  0.2804411E-003  0.4831567E+03  0.7818608E-02  0.1018271E+00
         11   -1    0    0    0    0  0.00000000000E+00  0.00000000000E+00  0.10000373457E+04  0.10000373457E+04  0.51100000000E-03 0. -1.
          2   -1    0    0  501    0 -0.00000000000E+00 -0.00000000000E+00 -0.15998342655E+04  0.15998342655E+04  0.25500000000E-02 0. -1.
         11    1    1    2    0    0  0.69994917551E+02  0.32322931426E+02  0.71965115784E+02  0.10546581564E+03  0.51100000000E-03 0. -1.
         22    1    1    2    0    0 -0.21946950062E+02  0.45009187042E+03  0.81462457562E+03  0.93095518670E+03  0.00000000000E+00 0. -1.
          2    1    1    2  501    0 -0.48047967489E+02 -0.48241480185E+03 -0.14863866112E+04  0.15634506089E+04  0.25500000000E-02 0. -1.
<mgrwt>
<rscale>  0 0.48315671E+03</rscale>
<asrwt>0</asrwt>
<pdfrwt beam="1">  1       11 0.10000000E+01 0.77097733E+02</pdfrwt>
<pdfrwt beam="2">  1        2 0.24613753E+00 0.48315671E+03</pdfrwt>
<totfact> 0.14472986E+01</totfact>
</mgrwt>
</event>
<event>
 5    1  0.2804411E-003  0.2065617E+03  0.7818608E-02  0.1145446E+00
         11   -1    0    0    0    0  0.00000000000E+00  0.00000000000E+00  0.10001533108E+04  0.10001533108E+04  0.51100000000E-03 0.  1.
          2   -1    0    0  501    0 -0.00000000000E+00 -0.00000000000E+00 -0.29359417073E+03  0.29359417074E+03  0.25500000000E-02 0.  1.
         11    1    1    2    0    0 -0.14141700627E+03 -0.13173150215E+03  0.91133569169E+03  0.93160329608E+03  0.51100000000E-03 0.  1.
         22    1    1    2    0    0 -0.59922400468E+01 -0.10979956431E+02  0.40488727474E+02  0.42376921036E+02  0.00000000000E+00 0.  1.
          2    1    1    2  501    0  0.14740924632E+03  0.14271145858E+03 -0.24526527905E+03  0.31976726447E+03  0.25500000000E-02 0.  1.
<mgrwt>
<rscale>  0 0.20517321E+03</rscale>
<asrwt>0</asrwt>
<pdfrwt beam="1">  1       11 0.10000000E+01 0.20656171E+03</pdfrwt>
<pdfrwt beam="2">  1        2 0.45175257E-01 0.20517321E+03</pdfrwt>
<totfact> 0.13879118E+02</totfact>
</mgrwt>
</event>
<event>
 5    1  0.2804411E-003  0.1830969E+03  0.7818608E-02  0.1168573E+00
         11   -1    0    0    0    0  0.00000000000E+00  0.00000000000E+00  0.99991563145E+03  0.99991563145E+03  0.51100000000E-03 0. -1.
          2   -1    0    0  501    0 -0.00000000000E+00 -0.00000000000E+00 -0.52905046454E+02  0.52905046515E+02  0.25500000000E-02 0. -1.
         11    1    1    2    0    0 -0.31996371535E+02 -0.93201758499E+02  0.50349174664E+03  0.51304412531E+03  0.51100000000E-03 0. -1.
         22    1    1    2    0    0 -0.66823827391E+01 -0.81780851246E+02  0.29751531493E+03  0.30862294874E+03  0.00000000000E+00 0. -1.
          2    1    1    2  501    0  0.38678754274E+02  0.17498260975E+03  0.14600352342E+03  0.23115360392E+03  0.25500000000E-02 0. -1.
<mgrwt>
<rscale>  0 0.17920647E+03</rscale>
<asrwt>0</asrwt>
<pdfrwt beam="1">  1       11 0.10000000E+01 0.18309688E+03</pdfrwt>
<pdfrwt beam="2">  1        2 0.81385510E-02 0.17920647E+03</pdfrwt>
<totfact> 0.99904260E+02</totfact>
</mgrwt>
</event>
<event>
 5    1  0.2804411E-003  0.3923386E+03  0.7818608E-02  0.1053187E+00
         11   -1    0    0    0    0  0.00000000000E+00  0.00000000000E+00  0.10002034417E+04  0.10002034417E+04  0.51100000000E-03 0. -1.
         -2   -1    0    0    0  501 -0.00000000000E+00 -0.00000000000E+00 -0.17385949394E+03  0.17385949396E+03  0.25500000000E-02 0.  1.
         11    1    1    2    0    0 -0.60133603876E+02  0.74445056904E+01  0.20646533858E+03  0.21517296999E+03  0.51100000000E-03 0. -1.
         22    1    1    2    0    0 -0.31162675043E+03 -0.47998296717E+02  0.44670848839E+03  0.54677558621E+03  0.00000000000E+00 0. -1.
         -2    1    1    2    0  501  0.37176035431E+03  0.40553791027E+02  0.17317012075E+03  0.41211437943E+03  0.25500000000E-02 0.  1.
<mgrwt>
<rscale>  0 0.37396574E+03</rscale>
<asrwt>0</asrwt>
<pdfrwt beam="1">  1       11 0.10000000E+01 0.39233857E+03</pdfrwt>
<pdfrwt beam="2">  1       -2 0.26753055E-01 0.37396574E+03</pdfrwt>
<totfact> 0.10186985E+02</totfact>
</mgrwt>
</event>
<event>
 5    1  0.2804411E-003  0.1362686E+03  0.7818608E-02  0.1218440E+00
         11   -1    0    0    0    0  0.00000000000E+00  0.00000000000E+00  0.10001463397E+04  0.10001463397E+04  0.51100000000E-03 0. -1.
          2   -1    0    0  501    0 -0.00000000000E+00 -0.00000000000E+00 -0.48037909279E+02  0.48037909347E+02  0.25500000000E-02 0. -1.
         11    1    1    2    0    0  0.33965201502E+02  0.12748809087E+03  0.50968345822E+03  0.52648274028E+03  0.51100000000E-03 0. -1.
         22    1    1    2    0    0  0.57714968022E+02 -0.21483480793E+02  0.34634902608E+03  0.35178147385E+03  0.00000000000E+00 0. -1.
          2    1    1    2  501    0 -0.91680169524E+02 -0.10600461008E+03  0.96075946163E+02  0.16992003496E+03  0.25500000000E-02 0. -1.
<mgrwt>
<rscale>  0 0.13626864E+03</rscale>
<asrwt>0</asrwt>
<pdfrwt beam="1">  1       11 0.10000000E+01 0.61583744E+02</pdfrwt>
<pdfrwt beam="2">  1        2 0.73915289E-02 0.13626864E+03</pdfrwt>
<totfact> 0.11089021E+03</totfact>
</mgrwt>
</event>
<event>
 5    1  0.2804411E-003  0.4317604E+02  0.7818608E-02  0.1486060E+00
         11   -1    0    0    0    0  0.00000000000E+00  0.00000000000E+00  0.10003458154E+04  0.10003458154E+04  0.51100000000E-03 0.  1.
          2   -1    0    0  501    0 -0.00000000000E+00 -0.00000000000E+00 -0.70137770064E+01  0.70137774699E+01  0.25500000000E-02 0.  1.
         11    1    1    2    0    0  0.14063039337E+02 -0.74524510211E+01  0.15911793966E+02  0.22505405775E+02  0.51100000000E-03 0.  1.
         22    1    1    2    0    0  0.17139178722E+02 -0.37477029989E+02  0.14794912972E+03  0.15358132767E+03  0.00000000000E+00 0.  1.
          2    1    1    2  501    0 -0.31202218059E+02  0.44929481010E+02  0.82947111470E+03  0.83127285942E+03  0.25500000000E-02 0.  1.
<mgrwt>
<rscale>  0 0.43176042E+02</rscale>
<asrwt>0</asrwt>
<pdfrwt beam="1">  1       11 0.10000000E+01 0.15915664E+02</pdfrwt>
<pdfrwt beam="2">  1        2 0.10794158E-02 0.43176042E+02</pdfrwt>
<totfact> 0.12115001E+04</totfact>
</mgrwt>
</event>
<event>
 5    1  0.2804411E-003  0.1163149E+03  0.7818608E-02  0.1249303E+00
         11   -1    0    0    0    0  0.00000000000E+00  0.00000000000E+00  0.10000529817E+04  0.10000529817E+04  0.51100000000E-03 0. -1.
          2   -1    0    0  501    0 -0.00000000000E+00 -0.00000000000E+00 -0.90666942656E+03  0.90666942657E+03  0.25500000000E-02 0. -1.
         11    1    1    2    0    0  0.66551829295E+02 -0.96090723104E+02  0.64834936659E+03  0.65880154387E+03  0.51100000000E-03 0. -1.
         22    1    1    2    0    0 -0.73402563319E+02 -0.20162326663E+02  0.33847162096E+03  0.34692577580E+03  0.00000000000E+00 0. -1.
          2    1    1    2  501    0  0.68507340246E+01  0.11625304977E+03 -0.89343743238E+03  0.90099508863E+03  0.25500000000E-02 0. -1.
<mgrwt>
<rscale>  0 0.11631494E+03</rscale>
<asrwt>0</asrwt>
<pdfrwt beam="1">  1       11 0.10000000E+01 0.76121322E+02</pdfrwt>
<pdfrwt beam="2">  1        2 0.13949499E+00 0.11631494E+03</pdfrwt>
<totfact> 0.39007320E+01</totfact>
</mgrwt>
</event>
<event>
 5    1  0.2804411E-003  0.1960523E+03  0.7818608E-02  0.1154158E+00
         11   -1    0    0    0    0  0.00000000000E+00  0.00000000000E+00  0.10005562622E+04  0.10005562622E+04  0.51100000000E-03 0.  1.
          2   -1    0    0  501    0 -0.00000000000E+00 -0.00000000000E+00 -0.12552404363E+03  0.12552404366E+03  0.25500000000E-02 0.  1.
         11    1    1    2    0    0 -0.30779618447E+02  0.18225120167E+03  0.85512911265E+03  0.87487638254E+03  0.51100000000E-03 0.  1.
         22    1    1    2    0    0  0.34560525175E+01  0.10674135324E+02  0.52465033156E+02  0.53651292324E+02  0.00000000000E+00 0.  1.
          2    1    1    2  501    0  0.27323565929E+02 -0.19292533700E+03 -0.32561927213E+02  0.19755263101E+03  0.25500000000E-02 0.  1.
<mgrwt>
<rscale>  0 0.19485062E+03</rscale>
<asrwt>0</asrwt>
<pdfrwt beam="1">  1       11 0.10000000E+01 0.19605231E+03</pdfrwt>
<pdfrwt beam="2">  1        2 0.19322133E-01 0.19485062E+03</pdfrwt>
<totfact> 0.35343832E+02</totfact>
</mgrwt>
</event>
<event>
 5    1  0.2804411E-003  0.1902142E+03  0.7818608E-02  0.1160906E+00
         11   -1    0    0    0    0  0.00000000000E+00  0.00000000000E+00  0.10002493480E+04  0.10002493480E+04  0.51100000000E-03 0. -1.
          2   -1    0    0  501    0 -0.00000000000E+00 -0.00000000000E+00 -0.20918847892E+03  0.20918847894E+03  0.25500000000E-02 0. -1.
         11    1    1    2    0    0 -0.51411909366E+02 -0.14247406129E+03  0.82208823923E+03  0.83592530507E+03  0.51100000000E-03 0. -1.
         22    1    1    2    0    0 -0.15194370501E+02 -0.32598742273E+02  0.12478484368E+03  0.12986456062E+03  0.00000000000E+00 0. -1.
          2    1    1    2  501    0  0.66606279867E+02  0.17507280356E+03 -0.15581221380E+03  0.24364796129E+03  0.25500000000E-02 0. -1.
<mgrwt>
<rscale>  0 0.18731493E+03</rscale>
<asrwt>0</asrwt>
<pdfrwt beam="1">  1       11 0.10000000E+01 0.19021417E+03</pdfrwt>
<pdfrwt beam="2">  1        2 0.32190867E-01 0.18731493E+03</pdfrwt>
<totfact> 0.19986859E+02</totfact>
</mgrwt>
</event>
<event>
 5    1  0.2804411E-003  0.8376361E+02  0.7818608E-02  0.1548100E+00
         11   -1    0    0    0    0  0.00000000000E+00  0.00000000000E+00  0.99993407569E+03  0.99993407569E+03  0.51100000000E-03 0. -1.
          2   -1    0    0  501    0 -0.00000000000E+00 -0.00000000000E+00 -0.28923712879E+02  0.28923712991E+02  0.25500000000E-02 0. -1.
         11    1    1    2    0    0  0.20259359528E+02  0.99373419753E+02  0.54450062654E+03  0.55386501109E+03  0.51100000000E-03 0. -1.
         22    1    1    2    0    0  0.29982275843E+01 -0.73142866329E+02  0.43316754638E+03  0.43930967608E+03  0.00000000000E+00 0. -1.
          2    1    1    2  501    0 -0.23257587112E+02 -0.26230553425E+02 -0.66578101128E+01  0.35683101508E+02  0.25500000000E-02 0. -1.
<mgrwt>
<rscale>  0 0.35056487E+02</rscale>
<asrwt>0</asrwt>
<pdfrwt beam="1">  1       11 0.10000000E+01 0.83763606E+02</pdfrwt>
<pdfrwt beam="2">  1        2 0.44495085E-02 0.35056487E+02</pdfrwt>
<totfact> 0.18556807E+03</totfact>
</mgrwt>
</event>
<event>
 5    1  0.2804411E-003  0.5122694E+02  0.7818608E-02  0.1599404E+00
         11   -1    0    0    0    0  0.00000000000E+00  0.00000000000E+00  0.99991840866E+03  0.99991840866E+03  0.51100000000E-03 0.  1.
          2   -1    0    0  501    0 -0.00000000000E+00 -0.00000000000E+00 -0.43746956470E+01  0.43746963902E+01  0.25500000000E-02 0.  1.
         11    1    1    2    0    0 -0.14710763676E+02 -0.48470811964E+02  0.25608449753E+03  0.26104615695E+03  0.51100000000E-03 0.  1.
         22    1    1    2    0    0  0.17006882507E+02 -0.38180304584E+01  0.89348907176E+02  0.91033173200E+02  0.00000000000E+00 0.  1.
          2    1    1    2  501    0 -0.22961188312E+01  0.52288842422E+02  0.65011030830E+03  0.65221377490E+03  0.25500000000E-02 0.  1.
<mgrwt>
<rscale>  0 0.29881344E+02</rscale>
<asrwt>0</asrwt>
<pdfrwt beam="1">  1       11 0.10000000E+01 0.51226942E+02</pdfrwt>
<pdfrwt beam="2">  1        2 0.67297522E-03 0.29881344E+02</pdfrwt>
<totfact> 0.21027648E+04</totfact>
</mgrwt>
</event>
<event>
 5    1  0.2804411E-003  0.1572358E+03  0.7818608E-02  0.1197848E+00
         11   -1    0    0    0    0  0.00000000000E+00  0.00000000000E+00  0.10000438872E+04  0.10000438872E+04  0.51100000000E-03 0. -1.
          2   -1    0    0  501    0 -0.00000000000E+00 -0.00000000000E+00 -0.24631105718E+02  0.24631105850E+02  0.25500000000E-02 0. -1.
         11    1    1    2    0    0  0.12477042229E+03 -0.64533575341E+02  0.49876551524E+03  0.51816916140E+03  0.51100000000E-03 0. -1.
         22    1    1    2    0    0  0.50399664374E+01 -0.14844904230E+02  0.83152646089E+02  0.84617580886E+02  0.00000000000E+00 0.  1.
          2    1    1    2  501    0 -0.12981038873E+03  0.79378479572E+02  0.39349462012E+03  0.42188825074E+03  0.25500000000E-02 0. -1.
<mgrwt>
<rscale>  0 0.15215676E+03</rscale>
<asrwt>0</asrwt>
<pdfrwt beam="1">  1       11 0.10000000E+01 0.15723584E+03</pdfrwt>
<pdfrwt beam="2">  1        2 0.37895671E-02 0.15215676E+03</pdfrwt>
<totfact> 0.26679548E+03</totfact>
</mgrwt>
</event>
<event>
 5    1  0.2804411E-003  0.1420971E+03  0.7818608E-02  0.1210535E+00
         11   -1    0    0    0    0  0.00000000000E+00  0.00000000000E+00  0.10001647187E+04  0.10001647187E+04  0.51100000000E-03 0. -1.
          2   -1    0    0  501    0 -0.00000000000E+00 -0.00000000000E+00 -0.76740479200E+03  0.76740479200E+03  0.25500000000E-02 0. -1.
         11    1    1    2    0    0  0.25100495463E+02  0.45658099664E+02  0.38484345610E+02  0.64774545886E+02  0.51100000000E-03 0. -1.
         22    1    1    2    0    0 -0.16543003413E+03 -0.66524333581E+02  0.93334899555E+03  0.95022783092E+03  0.00000000000E+00 0. -1.
          2    1    1    2  501    0  0.14032953866E+03  0.20866233917E+02 -0.73907341443E+03  0.75256713393E+03  0.25500000000E-02 0. -1.
<mgrwt>
<rscale>  0 0.14209711E+03</rscale>
<asrwt>0</asrwt>
<pdfrwt beam="1">  1       11 0.10000000E+01 0.52102754E+02</pdfrwt>
<pdfrwt beam="2">  1        2 0.11808172E+00 0.14209711E+03</pdfrwt>
<totfact> 0.47763926E+01</totfact>
</mgrwt>
</event>
<event>
 5    1  0.2804411E-003  0.3205175E+02  0.7818608E-02  0.1576457E+00
         11   -1    0    0    0    0  0.00000000000E+00  0.00000000000E+00  0.10002225510E+04  0.10002225510E+04  0.51100000000E-03 0.  1.
          2   -1    0    0  501    0 -0.00000000000E+00 -0.00000000000E+00 -0.79061333372E+01  0.79061337484E+01  0.25500000000E-02 0.  1.
         11    1    1    2    0    0 -0.32125021537E+02 -0.29210960236E+01  0.32679576066E+02  0.45918454926E+02  0.51100000000E-03 0.  1.
         22    1    1    2    0    0  0.29714645754E+01  0.21355753639E+02  0.12391604019E+03  0.12577791075E+03  0.00000000000E+00 0. -1.
          2    1    1    2  501    0  0.29153556961E+02 -0.18434657615E+02  0.83572080143E+03  0.83643231910E+03  0.25500000000E-02 0.  1.
<mgrwt>
<rscale>  0 0.32051750E+02</rscale>
<asrwt>0</asrwt>
<pdfrwt beam="1">  1       11 0.10000000E+01 0.21561489E+02</pdfrwt>
<pdfrwt beam="2">  1        2 0.12165989E-02 0.32051750E+02</pdfrwt>
<totfact> 0.97660114E+03</totfact>
</mgrwt>
</event>
<event>
 5    1  0.2804411E-003  0.2954763E+03  0.7818608E-02  0.1088907E+00
         11   -1    0    0    0    0  0.00000000000E+00  0.00000000000E+00  0.10001413467E+04  0.10001413467E+04  0.51100000000E-03 0. -1.
          2   -1    0    0  501    0 -0.00000000000E+00 -0.00000000000E+00 -0.65355057739E+03  0.65355057739E+03  0.25500000000E-02 0. -1.
         11    1    1    2    0    0  0.25007555751E+03  0.95315795898E+02  0.83440924080E+03  0.87627716309E+03  0.51100000000E-03 0. -1.
         22    1    1    2    0    0  0.19572309850E+02  0.18745323259E+02  0.10917738733E+03  0.11249073012E+03  0.00000000000E+00 0. -1.
          2    1    1    2  501    0 -0.26964786736E+03 -0.11406111916E+03 -0.59699585887E+03  0.66492403084E+03  0.25500000000E-02 0. -1.
<mgrwt>
<rscale>  0 0.29277963E+03</rscale>
<asrwt>0</asrwt>
<pdfrwt beam="1">  1       11 0.10000000E+01 0.29547626E+03</pdfrwt>
<pdfrwt beam="2">  1        2 0.10056045E+00 0.29277963E+03</pdfrwt>
<totfact> 0.56754980E+01</totfact>
</mgrwt>
</event>
<event>
 5    1  0.2804411E-003  0.1638587E+03  0.7818608E-02  0.1184408E+00
         11   -1    0    0    0    0  0.00000000000E+00  0.00000000000E+00  0.10003977360E+04  0.10003977360E+04  0.51100000000E-03 0. -1.
          2   -1    0    0  501    0 -0.00000000000E+00 -0.00000000000E+00 -0.39073243049E+03  0.39073243050E+03  0.25500000000E-02 0. -1.
         11    1    1    2    0    0  0.27166205515E+02  0.10534712214E+03  0.53853505032E+03  0.54941425108E+03  0.51100000000E-03 0. -1.
         22    1    1    2    0    0 -0.65522940191E+02  0.56264270342E+02  0.43406733089E+03  0.44257583707E+03  0.00000000000E+00 0. -1.
          2    1    1    2  501    0  0.38356734677E+02 -0.16161139248E+03 -0.36293707567E+03  0.39914007839E+03  0.25500000000E-02 0. -1.
<mgrwt>
<rscale>  0 0.16385869E+03</rscale>
<asrwt>0</asrwt>
<pdfrwt beam="1">  1       11 0.10000000E+01 0.86365061E+02</pdfrwt>
<pdfrwt beam="2">  1        2 0.60136589E-01 0.16385869E+03</pdfrwt>
<totfact> 0.10214713E+02</totfact>
</mgrwt>
</event>
<event>
 5    1  0.2804411E-003  0.9277837E+03  0.7818608E-02  0.9399803E-01
         11   -1    0    0    0    0  0.00000000000E+00  0.00000000000E+00  0.10001194896E+04  0.10001194896E+04  0.51100000000E-03 0. -1.
          2   -1    0    0  501    0 -0.00000000000E+00 -0.00000000000E+00 -0.94296980450E+03  0.94296980450E+03  0.25500000000E-02 0. -1.
         11    1    1    2    0    0 -0.83142951410E+03 -0.37870160663E+03 -0.26384708570E+03  0.95094964557E+03  0.51100000000E-03 0. -1.
         22    1    1    2    0    0 -0.11603108717E+02  0.80430873923E+01 -0.53623845840E+01  0.15102269867E+02  0.00000000000E+00 0.  1.
          2    1    1    2  501    0  0.84303262282E+03  0.37065851924E+03  0.32635915540E+03  0.97703737868E+03  0.25500000000E-02 0. -1.
<mgrwt>
<rscale>  0 0.92091897E+03</rscale>
<asrwt>0</asrwt>
<pdfrwt beam="1">  1       11 0.10000000E+01 0.92778368E+03</pdfrwt>
<pdfrwt beam="2">  1        2 0.14508961E+00 0.92091897E+03</pdfrwt>
<totfact> 0.33804997E+01</totfact>
</mgrwt>
</event>
<event>
 5    1  0.2804411E-003  0.1165548E+03  0.7818608E-02  0.1248891E+00
         11   -1    0    0    0    0  0.00000000000E+00  0.00000000000E+00  0.10000801645E+04  0.10000801645E+04  0.51100000000E-03 0. -1.
         -2   -1    0    0    0  501 -0.00000000000E+00 -0.00000000000E+00 -0.23927763151E+03  0.23927763152E+03  0.25500000000E-02 0.  1.
         11    1    1    2    0    0 -0.96973083095E+02 -0.12032233593E+03  0.72594054898E+03  0.74220679330E+03  0.51100000000E-03 0. -1.
         22    1    1    2    0    0  0.35400746992E+02  0.22225664641E+02  0.24965070322E+03  0.25312579220E+03  0.00000000000E+00 0.  1.
         -2    1    1    2    0  501  0.61572336103E+02  0.98096671287E+02 -0.21478871918E+03  0.24402521055E+03  0.25500000000E-02 0.  1.
<mgrwt>
<rscale>  0 0.11655485E+03</rscale>
<asrwt>0</asrwt>
<pdfrwt beam="1">  1       11 0.10000000E+01 0.41799438E+02</pdfrwt>
<pdfrwt beam="2">  1       -2 0.36814893E-01 0.11655485E+03</pdfrwt>
<totfact> 0.56000494E+01</totfact>
</mgrwt>
</event>
<event>
 5    1  0.2804411E-003  0.4279922E+02  0.7818608E-02  0.1604759E+00
         11   -1    0    0    0    0  0.00000000000E+00  0.00000000000E+00  0.10003542068E+04  0.10003542068E+04  0.51100000000E-03 0. -1.
          2   -1    0    0  501    0 -0.00000000000E+00 -0.00000000000E+00 -0.15543856176E+02  0.15543856386E+02  0.25500000000E-02 0. -1.
         11    1    1    2    0    0 -0.13589284728E+02  0.28482378075E+02  0.16500615896E+02  0.35611583023E+02  0.51100000000E-03 0. -1.
         22    1    1    2    0    0  0.13475267265E+02  0.15052170445E+02  0.13084684806E+02  0.24069890723E+02  0.00000000000E+00 0.  1.
          2    1    1    2  501    0  0.11401746337E+00 -0.43534548520E+02  0.95522504989E+03  0.95621658941E+03  0.25500000000E-02 0. -1.
<mgrwt>
<rscale>  0 0.29405119E+02</rscale>
<asrwt>0</asrwt>
<pdfrwt beam="1">  1       11 0.10000000E+01 0.42799218E+02</pdfrwt>
<pdfrwt beam="2">  1        2 0.23922095E-02 0.29405119E+02</pdfrwt>
<totfact> 0.39863385E+03</totfact>
</mgrwt>
</event>
<event>
 5    1  0.2804411E-003  0.1750177E+03  0.7818608E-02  0.1192622E+00
         11   -1    0    0    0    0  0.00000000000E+00  0.00000000000E+00  0.10000050451E+04  0.10000050451E+04  0.51100000000E-03 0. -1.
          2   -1    0    0  501    0 -0.00000000000E+00 -0.00000000000E+00 -0.80674165851E+02  0.80674165891E+02  0.25500000000E-02 0. -1.
         11    1    1    2    0    0 -0.10941777924E+03  0.10525271193E+03  0.38017770370E+03  0.40937204371E+03  0.51100000000E-03 0. -1.
         22    1    1    2    0    0 -0.13317891447E+03 -0.43397629211E+02  0.12700351085E+03  0.18907635825E+03  0.00000000000E+00 0.  1.
          2    1    1    2  501    0  0.24259669371E+03 -0.61855082718E+02  0.41214966466E+03  0.48223080900E+03  0.25500000000E-02 0. -1.
<mgrwt>
<rscale>  0 0.15657254E+03</rscale>
<asrwt>0</asrwt>
<pdfrwt beam="1">  1       11 0.10000000E+01 0.17501769E+03</pdfrwt>
<pdfrwt beam="2">  1        2 0.12411472E-01 0.15657254E+03</pdfrwt>
<totfact> 0.58945227E+02</totfact>
</mgrwt>
</event>
<event>
 5    1  0.2804411E-003  0.2451194E+03  0.7818608E-02  0.1118854E+00
         11   -1    0    0    0    0  0.00000000000E+00  0.00000000000E+00  0.10002757013E+04  0.10002757013E+04  0.51100000000E-03 0. -1.
          2   -1    0    0  501    0 -0.00000000000E+00 -0.00000000000E+00 -0.61774153916E+02  0.61774153969E+02  0.25500000000E-02 0. -1.
         11    1    1    2    0    0  0.14180856125E+03 -0.17245653145E+03  0.51817292273E+03  0.56422876667E+03  0.51100000000E-03 0. -1.
         22    1    1    2    0    0  0.23842778292E+01 -0.21165875064E+02  0.63680625642E+02  0.67148351657E+02  0.00000000000E+00 0. -1.
          2    1    1    2  501    0 -0.14419283908E+03  0.19362240651E+03  0.35664799901E+03  0.43067273694E+03  0.25500000000E-02 0. -1.
<mgrwt>
<rscale>  0 0.24141502E+03</rscale>
<asrwt>0</asrwt>
<pdfrwt beam="1">  1       11 0.10000000E+01 0.24511939E+03</pdfrwt>
<pdfrwt beam="2">  1        2 0.95063359E-02 0.24141502E+03</pdfrwt>
<totfact> 0.83523135E+02</totfact>
</mgrwt>
</event>
<event>
 5    1  0.2804411E-003  0.1338680E+03  0.7818608E-02  0.1221827E+00
         11   -1    0    0    0    0  0.00000000000E+00  0.00000000000E+00  0.10003448291E+04  0.10003448291E+04  0.51100000000E-03 0. -1.
          2   -1    0    0  501    0 -0.00000000000E+00 -0.00000000000E+00 -0.49991061568E+02  0.49991061633E+02  0.25500000000E-02 0. -1.
         11    1    1    2    0    0  0.29054116368E+02 -0.46137757126E+02 -0.34537177199E+01  0.54632979755E+02  0.51100000000E-03 0. -1.
         22    1    1    2    0    0 -0.70514514521E+02 -0.10332568873E+03  0.33037135773E+03  0.35326155850E+03  0.00000000000E+00 0. -1.
          2    1    1    2  501    0  0.41460398152E+02  0.14946344585E+03  0.62343612756E+03  0.64244135251E+03  0.25500000000E-02 0. -1.
<mgrwt>
<rscale>  0 0.13386797E+03</rscale>
<asrwt>0</asrwt>
<pdfrwt beam="1">  1       11 0.10000000E+01 0.54523731E+02</pdfrwt>
<pdfrwt beam="2">  1        2 0.76935844E-02 0.13386797E+03</pdfrwt>
<totfact> 0.10530048E+03</totfact>
</mgrwt>
</event>
<event>
 5    1  0.2804411E-003  0.1535902E+03  0.7818608E-02  0.1200793E+00
         11   -1    0    0    0    0  0.00000000000E+00  0.00000000000E+00  0.10002297176E+04  0.10002297176E+04  0.51100000000E-03 0.  1.
          2   -1    0    0  501    0 -0.00000000000E+00 -0.00000000000E+00 -0.39966391412E+02  0.39966391494E+02  0.25500000000E-02 0.  1.
         11    1    1    2    0    0  0.57964526892E+02  0.12612354826E+02  0.28712057874E+03  0.29318455725E+03  0.51100000000E-03 0.  1.
         22    1    1    2    0    0  0.91580174735E+02 -0.20247875678E+02  0.53540258210E+03  0.54355572833E+03  0.00000000000E+00 0.  1.
          2    1    1    2  501    0 -0.14954470163E+03  0.76355208516E+01  0.13774016531E+03  0.20345582348E+03  0.25500000000E-02 0.  1.
<mgrwt>
<rscale>  0 0.14973950E+03</rscale>
<asrwt>0</asrwt>
<pdfrwt beam="1">  1       11 0.10000000E+01 0.15359022E+03</pdfrwt>
<pdfrwt beam="2">  1        2 0.61500879E-02 0.14973950E+03</pdfrwt>
<totfact> 0.14116126E+03</totfact>
</mgrwt>
</event>
<event>
 5    1  0.2804411E-003  0.5209575E+02  0.7818608E-02  0.1440183E+00
         11   -1    0    0    0    0  0.00000000000E+00  0.00000000000E+00  0.10002588067E+04  0.10002588067E+04  0.51100000000E-03 0.  1.
          2   -1    0    0  501    0 -0.00000000000E+00 -0.00000000000E+00 -0.35584440862E+01  0.35584449999E+01  0.25500000000E-02 0.  1.
         11    1    1    2    0    0  0.14843275834E+02 -0.49056321067E+01  0.75478759044E+02  0.77080679362E+02  0.51100000000E-03 0.  1.
         22    1    1    2    0    0  0.36125960296E+02  0.49399194386E+01  0.17403625157E+03  0.17781480442E+03  0.00000000000E+00 0.  1.
          2    1    1    2  501    0 -0.50969236131E+02 -0.34287331829E-01  0.74718535202E+03  0.74892176794E+03  0.25500000000E-02 0.  1.
<mgrwt>
<rscale>  0 0.50969248E+02</rscale>
<asrwt>0</asrwt>
<pdfrwt beam="1">  1       11 0.10000000E+01 0.52095750E+02</pdfrwt>
<pdfrwt beam="2">  1        2 0.54759468E-03 0.50969248E+02</pdfrwt>
<totfact> 0.31168773E+04</totfact>
</mgrwt>
</event>
<event>
 5    1  0.2804411E-003  0.3909580E+02  0.7818608E-02  0.1526184E+00
         11   -1    0    0    0    0  0.00000000000E+00  0.00000000000E+00  0.10000818686E+04  0.10000818686E+04  0.51100000000E-03 0. -1.
          2   -1    0    0  501    0 -0.00000000000E+00 -0.00000000000E+00 -0.36907883664E+01  0.36907892473E+01  0.25500000000E-02 0. -1.
         11    1    1    2    0    0  0.31710726120E+01 -0.14057945134E+02  0.30242330174E+02  0.33500448617E+02  0.51100000000E-03 0. -1.
         22    1    1    2    0    0  0.11886040124E+02 -0.20459488418E+02  0.82624978004E+02  0.85946236720E+02  0.00000000000E+00 0.  1.
          2    1    1    2  501    0 -0.15057112736E+02  0.34517433553E+02  0.88352377208E+03  0.88432597254E+03  0.25500000000E-02 0. -1.
<mgrwt>
<rscale>  0 0.37658596E+02</rscale>
<asrwt>0</asrwt>
<pdfrwt beam="1">  1       11 0.10000000E+01 0.39095798E+02</pdfrwt>
<pdfrwt beam="2">  1        2 0.56786013E-03 0.37658596E+02</pdfrwt>
<totfact> 0.27787548E+04</totfact>
</mgrwt>
</event>
<event>
 5    1  0.2804411E-003  0.2399759E+03  0.7818608E-02  0.1129937E+00
         11   -1    0    0    0    0  0.00000000000E+00  0.00000000000E+00  0.99996714705E+03  0.99996714705E+03  0.51100000000E-03 0. -1.
         -2   -1    0    0    0  501 -0.00000000000E+00 -0.00000000000E+00 -0.64457418227E+02  0.64457418277E+02  0.25500000000E-02 0. -1.
         11    1    1    2    0    0 -0.91672010570E+02  0.67567336365E+02  0.40545950431E+03  0.42114903787E+03  0.51100000000E-03 0. -1.
         22    1    1    2    0    0 -0.41181385609E+02  0.11448930953E+03  0.28746122988E+03  0.31215007160E+03  0.00000000000E+00 0. -1.
         -2    1    1    2    0  501  0.13285339618E+03 -0.18205664589E+03  0.24258899463E+03  0.33112545585E+03  0.25500000000E-02 0. -1.
<mgrwt>
<rscale>  0 0.22537668E+03</rscale>
<asrwt>0</asrwt>
<pdfrwt beam="1">  1       11 0.10000000E+01 0.23997592E+03</pdfrwt>
<pdfrwt beam="2">  1       -2 0.99161998E-02 0.22537668E+03</pdfrwt>
<totfact> 0.53237585E+02</totfact>
</mgrwt>
</event>
<event>
 5    1  0.2804411E-003  0.3264859E+02  0.7818608E-02  0.1778342E+00
         11   -1    0    0    0    0  0.00000000000E+00  0.00000000000E+00  0.10000136924E+04  0.10000136924E+04  0.51100000000E-03 0. -1.
          2   -1    0    0  501    0 -0.00000000000E+00 -0.00000000000E+00 -0.34046141801E+01  0.34046151350E+01  0.25500000000E-02 0. -1.
         11    1    1    2    0    0  0.27917821826E+02 -0.11195169983E-01  0.73384793598E+02  0.78515812627E+02  0.51100000000E-03 0. -1.
         22    1    1    2    0    0  0.40400934720E+01 -0.95947932000E+01  0.51605014553E+02  0.52644657268E+02  0.00000000000E+00 0. -1.
          2    1    1    2  501    0 -0.31957915298E+02  0.96059883700E+01  0.87161927005E+03  0.87225783762E+03  0.25500000000E-02 0. -1.
<mgrwt>
<rscale>  0 0.18436216E+02</rscale>
<asrwt>0</asrwt>
<pdfrwt beam="1">  1       11 0.10000000E+01 0.32648587E+02</pdfrwt>
<pdfrwt beam="2">  1        2 0.52379403E-03 0.18436216E+02</pdfrwt>
<totfact> 0.25846190E+04</totfact>
</mgrwt>
</event>
<event>
 5    1  0.2804411E-003  0.2249864E+03  0.7818608E-02  0.1130219E+00
         11   -1    0    0    0    0  0.00000000000E+00  0.00000000000E+00  0.99993750301E+03  0.99993750301E+03  0.51100000000E-03 0. -1.
          2   -1    0    0  501    0 -0.00000000000E+00 -0.00000000000E+00 -0.37905948165E+03  0.37905948166E+03  0.25500000000E-02 0. -1.
         11    1    1    2    0    0 -0.20021326914E+03 -0.93292944198E+02  0.84388511211E+03  0.87231359557E+03  0.51100000000E-03 0. -1.
         22    1    1    2    0    0  0.12386898758E+02 -0.31039741732E+02  0.10420695054E+03  0.10943486358E+03  0.00000000000E+00 0.  1.
          2    1    1    2  501    0  0.18782637038E+03  0.12433268593E+03 -0.32721404129E+03  0.39724852551E+03  0.25500000000E-02 0. -1.
<mgrwt>
<rscale>  0 0.22498643E+03</rscale>
<asrwt>0</asrwt>
<pdfrwt beam="1">  1       11 0.10000000E+01 0.33420066E+02</pdfrwt>
<pdfrwt beam="2">  1        2 0.58313197E-01 0.22498643E+03</pdfrwt>
<totfact> 0.10540737E+02</totfact>
</mgrwt>
</event>
<event>
 5    1  0.2804411E-003  0.2393037E+03  0.7818608E-02  0.1122616E+00
         11   -1    0    0    0    0  0.00000000000E+00  0.00000000000E+00  0.10004872656E+04  0.10004872656E+04  0.51100000000E-03 0. -1.
          2   -1    0    0  501    0 -0.00000000000E+00 -0.00000000000E+00 -0.26825998044E+03  0.26825998045E+03  0.25500000000E-02 0. -1.
         11    1    1    2    0    0  0.18300939649E+03  0.78125170274E+02  0.73247776347E+03  0.75902546427E+03  0.51100000000E-03 0. -1.
         22    1    1    2    0    0  0.28562825450E+02  0.26005536587E+02  0.19794800695E+03  0.20168177009E+03  0.00000000000E+00 0. -1.
          2    1    1    2  501    0 -0.21157222194E+03 -0.10413070686E+03 -0.19819848529E+03  0.30804001166E+03  0.25500000000E-02 0. -1.
<mgrwt>
<rscale>  0 0.23580926E+03</rscale>
<asrwt>0</asrwt>
<pdfrwt beam="1">  1       11 0.10000000E+01 0.23930373E+03</pdfrwt>
<pdfrwt beam="2">  1        2 0.41290875E-01 0.23580926E+03</pdfrwt>
<totfact> 0.15298875E+02</totfact>
</mgrwt>
</event>
<event>
 5    1  0.2804411E-003  0.2653809E+03  0.7818608E-02  0.1108650E+00
         11   -1    0    0    0    0  0.00000000000E+00  0.00000000000E+00  0.10002677589E+04  0.10002677589E+04  0.51100000000E-03 0. -1.
          2   -1    0    0  501    0 -0.00000000000E+00 -0.00000000000E+00 -0.11641637540E+03  0.11641637543E+03  0.25500000000E-02 0. -1.
         11    1    1    2    0    0  0.16175653275E+03 -0.15911158380E+03  0.74605199898E+03  0.77979180373E+03  0.51100000000E-03 0. -1.
         22    1    1    2    0    0  0.31665713832E+02 -0.10882880914E+02  0.58580393295E+02  0.67474565638E+02  0.00000000000E+00 0. -1.
          2    1    1    2  501    0 -0.19342224658E+03  0.16999446471E+03  0.79218991246E+02  0.26941776497E+03  0.25500000000E-02 0. -1.
<mgrwt>
<rscale>  0 0.25750783E+03</rscale>
<asrwt>0</asrwt>
<pdfrwt beam="1">  1       11 0.10000000E+01 0.26538088E+03</pdfrwt>
<pdfrwt beam="2">  1        2 0.17915007E-01 0.25750783E+03</pdfrwt>
<totfact> 0.38898183E+02</totfact>
</mgrwt>
</event>
<event>
 5    1  0.2804411E-003  0.3517926E+02  0.7818608E-02  0.1561562E+00
         11   -1    0    0    0    0  0.00000000000E+00  0.00000000000E+00  0.10003657390E+04  0.10003657390E+04  0.51100000000E-03 0. -1.
          2   -1    0    0  501    0 -0.00000000000E+00 -0.00000000000E+00 -0.20905531354E+01  0.20905546906E+01  0.25500000000E-02 0. -1.
         11    1    1    2    0    0  0.24020978595E+02  0.63471826691E+01  0.12033256040E+03  0.12287074198E+03  0.51100000000E-03 0. -1.
         22    1    1    2    0    0  0.62536256132E+01  0.81864405547E+01  0.54905541114E+02  0.55863620427E+02  0.00000000000E+00 0. -1.
          2    1    1    2  501    0 -0.30274604209E+02 -0.14533623224E+02  0.82303708434E+03  0.82372193128E+03  0.25500000000E-02 0. -1.
<mgrwt>
<rscale>  0 0.33582404E+02</rscale>
<asrwt>0</asrwt>
<pdfrwt beam="1">  1       11 0.10000000E+01 0.35179256E+02</pdfrwt>
<pdfrwt beam="2">  1        2 0.32174130E-03 0.33582404E+02</pdfrwt>
<totfact> 0.57739315E+04</totfact>
</mgrwt>
</event>
<event>
 5    1  0.2804411E-003  0.1444473E+03  0.7818608E-02  0.1210079E+00
         11   -1    0    0    0    0  0.00000000000E+00  0.00000000000E+00  0.10003757466E+04  0.10003757466E+04  0.51100000000E-03 0. -1.
          2   -1    0    0  501    0 -0.00000000000E+00 -0.00000000000E+00 -0.34854701696E+02  0.34854701789E+02  0.25500000000E-02 0. -1.
         11    1    1    2    0    0  0.48094710280E+02 -0.10980606479E+03  0.11511168541E+03  0.16619618870E+03  0.51100000000E-03 0. -1.
         22    1    1    2    0    0  0.11514434331E+02 -0.19564705599E+02  0.38260938784E+02  0.44488867593E+02  0.00000000000E+00 0.  1.
          2    1    1    2  501    0 -0.59609144611E+02  0.12937077039E+03  0.81214842073E+03  0.82454539211E+03  0.25500000000E-02 0. -1.
<mgrwt>
<rscale>  0 0.14244313E+03</rscale>
<asrwt>0</asrwt>
<pdfrwt beam="1">  1       11 0.10000000E+01 0.14444733E+03</pdfrwt>
<pdfrwt beam="2">  1        2 0.53642765E-02 0.14244313E+03</pdfrwt>
<totfact> 0.16785887E+03</totfact>
</mgrwt>
</event>
<event>
 5    1  0.2804411E-003  0.1348189E+03  0.7818608E-02  0.1225993E+00
         11   -1    0    0    0    0  0.00000000000E+00  0.00000000000E+00  0.99967949052E+03  0.99967949052E+03  0.51100000000E-03 0. -1.
         -2   -1    0    0    0  501 -0.00000000000E+00 -0.00000000000E+00 -0.18472206663E+02  0.18472206839E+02  0.25500000000E-02 0.  1.
         11    1    1    2    0    0 -0.66928149239E+02  0.22022060176E+01  0.20742874685E+03  0.21796997933E+03  0.51100000000E-03 0. -1.
         22    1    1    2    0    0 -0.59491341982E+02  0.32100509747E+02  0.18381346537E+03  0.19584956612E+03  0.00000000000E+00 0.  1.
         -2    1    1    2    0  501  0.12641949122E+03 -0.34302715765E+02  0.58996507164E+03  0.60433215191E+03  0.25500000000E-02 0.  1.
<mgrwt>
<rscale>  0 0.13099070E+03</rscale>
<asrwt>0</asrwt>
<pdfrwt beam="1">  1       11 0.10000000E+01 0.13481894E+03</pdfrwt>
<pdfrwt beam="2">  1       -2 0.28409670E-02 0.13099070E+03</pdfrwt>
<totfact> 0.34029856E+03</totfact>
</mgrwt>
</event>
<event>
 5    1  0.2804411E-003  0.1936719E+03  0.7818608E-02  0.1155191E+00
         11   -1    0    0    0    0  0.00000000000E+00  0.00000000000E+00  0.10002309734E+04  0.10002309734E+04  0.51100000000E-03 0. -1.
          2   -1    0    0  501    0 -0.00000000000E+00 -0.00000000000E+00 -0.26963150835E+03  0.26963150836E+03  0.25500000000E-02 0. -1.
         11    1    1    2    0    0 -0.37513564862E+02 -0.15143787658E+02  0.47516345543E+02  0.62405167633E+02  0.51100000000E-03 0. -1.
         22    1    1    2    0    0 -0.14523813004E+03  0.82732764290E+02  0.90028164175E+03  0.91566689313E+03  0.00000000000E+00 0. -1.
          2    1    1    2  501    0  0.18275169491E+03 -0.67588976632E+02 -0.21719852221E+03  0.29179042104E+03  0.25500000000E-02 0. -1.
<mgrwt>
<rscale>  0 0.19367189E+03</rscale>
<asrwt>0</asrwt>
<pdfrwt beam="1">  1       11 0.10000000E+01 0.40454936E+02</pdfrwt>
<pdfrwt beam="2">  1        2 0.41491351E-01 0.19367189E+03</pdfrwt>
<totfact> 0.15201545E+02</totfact>
</mgrwt>
</event>
<event>
 5    1  0.2804411E-003  0.7922869E+02  0.7818608E-02  0.1544013E+00
         11   -1    0    0    0    0  0.00000000000E+00  0.00000000000E+00  0.99997279520E+03  0.99997279520E+03  0.51100000000E-03 0. -1.
          2   -1    0    0  501    0 -0.00000000000E+00 -0.00000000000E+00 -0.11567238481E+02  0.11567238762E+02  0.25500000000E-02 0. -1.
         11    1    1    2    0    0 -0.76409262650E+02 -0.70232102736E+01  0.17958925955E+03  0.19529465699E+03  0.51100000000E-03 0. -1.
         22    1    1    2    0    0 -0.33421181973E+01  0.15571662253E+02  0.37125050979E+02  0.40396977976E+02  0.00000000000E+00 0. -1.
          2    1    1    2  501    0  0.79751380848E+02 -0.85484519793E+01  0.77169124618E+03  0.77584839899E+03  0.25500000000E-02 0. -1.
<mgrwt>
<rscale>  0 0.35522073E+02</rscale>
<asrwt>0</asrwt>
<pdfrwt beam="1">  1       11 0.10000000E+01 0.79228687E+02</pdfrwt>
<pdfrwt beam="2">  1        2 0.17795267E-02 0.35522073E+02</pdfrwt>
<totfact> 0.60407381E+03</totfact>
</mgrwt>
</event>
<event>
 5    1  0.2804411E-003  0.3011065E+03  0.7818608E-02  0.1086901E+00
         11   -1    0    0    0    0  0.00000000000E+00  0.00000000000E+00  0.10000904918E+04  0.10000904918E+04  0.51100000000E-03 0. -1.
          2   -1    0    0  501    0 -0.00000000000E+00 -0.00000000000E+00 -0.28789396067E+03  0.28789396068E+03  0.25500000000E-02 0. -1.
         11    1    1    2    0    0  0.16615705436E+03  0.23292758074E+03  0.83841404176E+03  0.88589024715E+03  0.51100000000E-03 0. -1.
         22    1    1    2    0    0 -0.24120545017E+01  0.14497566553E+02  0.53315177621E+02  0.55303757627E+02  0.00000000000E+00 0. -1.
          2    1    1    2  501    0 -0.16374499986E+03 -0.24742514729E+03 -0.17953268822E+03  0.34679044773E+03  0.25500000000E-02 0. -1.
<mgrwt>
<rscale>  0 0.29670124E+03</rscale>
<asrwt>0</asrwt>
<pdfrwt beam="1">  1       11 0.10000000E+01 0.30110655E+03</pdfrwt>
<pdfrwt beam="2">  1        2 0.44295385E-01 0.29670124E+03</pdfrwt>
<totfact> 0.14191626E+02</totfact>
</mgrwt>
</event>
<event>
 5    1  0.2804411E-003  0.1463267E+03  0.7818608E-02  0.1205061E+00
         11   -1    0    0    0    0  0.00000000000E+00  0.00000000000E+00  0.10002874485E+04  0.10002874485E+04  0.51100000000E-03 0. -1.
          2   -1    0    0  501    0 -0.00000000000E+00 -0.00000000000E+00 -0.67621472901E+02  0.67621472949E+02  0.25500000000E-02 0. -1.
         11    1    1    2    0    0  0.89095782733E+02  0.22604331147E+02  0.34044517156E+03  0.35263568895E+03  0.51100000000E-03 0. -1.
         22    1    1    2    0    0  0.21820317399E+02  0.91774189612E+02  0.53915066164E+03  0.54734090298E+03  0.00000000000E+00 0. -1.
          2    1    1    2  501    0 -0.11091610013E+03 -0.11437852076E+03  0.53070142423E+02  0.16793232953E+03  0.25500000000E-02 0. -1.
<mgrwt>
<rscale>  0 0.14632666E+03</rscale>
<asrwt>0</asrwt>
<pdfrwt beam="1">  1       11 0.10000000E+01 0.91918520E+02</pdfrwt>
<pdfrwt beam="2">  1        2 0.10406294E-01 0.14632666E+03</pdfrwt>
<totfact> 0.72745200E+02</totfact>
</mgrwt>
</event>
<event>
 5    1  0.2804411E-003  0.5257486E+03  0.7818608E-02  0.1011615E+00
         11   -1    0    0    0    0  0.00000000000E+00  0.00000000000E+00  0.99991875794E+03  0.99991875794E+03  0.51100000000E-03 0. -1.
          2   -1    0    0  501    0 -0.00000000000E+00 -0.00000000000E+00 -0.83231642748E+03  0.83231642748E+03  0.25500000000E-02 0. -1.
         11    1    1    2    0    0  0.15128364347E+03  0.55365242343E+02  0.39243631926E+03  0.42421494023E+03  0.51100000000E-03 0. -1.
         22    1    1    2    0    0  0.33453355364E+03  0.94405336055E+02  0.44654124394E+03  0.56588351145E+03  0.00000000000E+00 0.  1.
          2    1    1    2  501    0 -0.48581719710E+03 -0.14977057840E+03 -0.67137523275E+03  0.84213673374E+03  0.25500000000E-02 0. -1.
<mgrwt>
<rscale>  0 0.50837936E+03</rscale>
<asrwt>0</asrwt>
<pdfrwt beam="1">  1       11 0.10000000E+01 0.52574860E+03</pdfrwt>
<pdfrwt beam="2">  1        2 0.12803827E+00 0.50837936E+03</pdfrwt>
<totfact> 0.41133201E+01</totfact>
</mgrwt>
</event>
<event>
 5    1  0.2804411E-003  0.6756132E+02  0.7818608E-02  0.1537784E+00
         11   -1    0    0    0    0  0.00000000000E+00  0.00000000000E+00  0.10000660287E+04  0.10000660287E+04  0.51100000000E-03 0.  1.
          2   -1    0    0  501    0 -0.00000000000E+00 -0.00000000000E+00 -0.74051962577E+01  0.74051966968E+01  0.25500000000E-02 0.  1.
         11    1    1    2    0    0 -0.46757250109E+02  0.42485033851E+02  0.22288995745E+03  0.23167035130E+03  0.51100000000E-03 0.  1.
         22    1    1    2    0    0  0.96484905644E+01  0.16886335952E+02  0.73887683390E+02  0.76404394303E+02  0.00000000000E+00 0. -1.
          2    1    1    2  501    0  0.37108759545E+02 -0.59371369804E+02  0.69588319161E+03  0.69939647980E+03  0.25500000000E-02 0.  1.
<mgrwt>
<rscale>  0 0.36248607E+02</rscale>
<asrwt>0</asrwt>
<pdfrwt beam="1">  1       11 0.10000000E+01 0.67561325E+02</pdfrwt>
<pdfrwt beam="2">  1        2 0.11393362E-02 0.36248607E+02</pdfrwt>
<totfact> 0.10907484E+04</totfact>
</mgrwt>
</event>
<event>
 5    1  0.2804411E-003  0.1850510E+03  0.7818608E-02  0.1163836E+00
         11   -1    0    0    0    0  0.00000000000E+00  0.00000000000E+00  0.10003992979E+04  0.10003992979E+04  0.51100000000E-03 0.  1.
          2   -1    0    0  501    0 -0.00000000000E+00 -0.00000000000E+00 -0.42202626995E+02  0.42202627072E+02  0.25500000000E-02 0.  1.
         11    1    1    2    0    0  0.88628136637E+02  0.14994073841E+03  0.67417633081E+03  0.69631235567E+03  0.51100000000E-03 0.  1.
         22    1    1    2    0    0  0.85285135578E+01  0.65064700489E+01  0.34755615775E+02  0.36373376581E+02  0.00000000000E+00 0.  1.
          2    1    1    2  501    0 -0.97156650195E+02 -0.15644720846E+03  0.24926472431E+03  0.30991619271E+03  0.25500000000E-02 0.  1.
<mgrwt>
<rscale>  0 0.18416065E+03</rscale>
<asrwt>0</asrwt>
<pdfrwt beam="1">  1       11 0.10000000E+01 0.18505101E+03</pdfrwt>
<pdfrwt beam="2">  1        2 0.64953042E-02 0.18416065E+03</pdfrwt>
<totfact> 0.13347689E+03</totfact>
</mgrwt>
</event>
<event>
 5    1  0.2804411E-003  0.3525611E+03  0.7818608E-02  0.1070690E+00
         11   -1    0    0    0    0  0.00000000000E+00  0.00000000000E+00  0.99987554158E+03  0.99987554158E+03  0.51100000000E-03 0. -1.
          2   -1    0    0  501    0 -0.00000000000E+00 -0.00000000000E+00 -0.62863462267E+03  0.62863462268E+03  0.25500000000E-02 0.  1.
         11    1    1    2    0    0  0.24854147295E+03 -0.14104361857E+03  0.65835957747E+03  0.71770711253E+03  0.51100000000E-03 0. -1.
         22    1    1    2    0    0  0.54869227743E+02  0.87156180763E+01  0.26298450334E+03  0.26878884491E+03  0.00000000000E+00 0.  1.
          2    1    1    2  501    0 -0.30341070070E+03  0.13232800050E+03 -0.55010316191E+03  0.64201420682E+03  0.25500000000E-02 0.  1.
<mgrwt>
<rscale>  0 0.33101171E+03</rscale>
<asrwt>0</asrwt>
<pdfrwt beam="1">  1       11 0.10000000E+01 0.35256114E+03</pdfrwt>
<pdfrwt beam="2">  1        2 0.96700979E-01 0.33101171E+03</pdfrwt>
<totfact> 0.59280204E+01</totfact>
</mgrwt>
</event>
<event>
 5    1  0.2804411E-003  0.1562178E+03  0.7818608E-02  0.1193034E+00
         11   -1    0    0    0    0  0.00000000000E+00  0.00000000000E+00  0.10000778909E+04  0.10000778909E+04  0.51100000000E-03 0.  1.
         -2   -1    0    0    0  501 -0.00000000000E+00 -0.00000000000E+00 -0.50250022170E+02  0.50250022235E+02  0.25500000000E-02 0. -1.
         11    1    1    2    0    0  0.13541476591E+03 -0.49027695281E+02  0.85614362696E+03  0.86817209338E+03  0.51100000000E-03 0.  1.
         22    1    1    2    0    0 -0.76972975187E+02  0.26622797136E+02  0.87057465088E+02  0.11921667024E+03  0.00000000000E+00 0. -1.
         -2    1    1    2    0  501 -0.58441790722E+02  0.22404898145E+02  0.66267766597E+01  0.62939149495E+02  0.25500000000E-02 0. -1.
<mgrwt>
<rscale>  0 0.15621781E+03</rscale>
<asrwt>0</asrwt>
<pdfrwt beam="1">  1       11 0.10000000E+01 0.14401692E+03</pdfrwt>
<pdfrwt beam="2">  1       -2 0.77313746E-02 0.15621781E+03</pdfrwt>
<totfact> 0.76910615E+02</totfact>
</mgrwt>
</event>
<event>
 5    1  0.2804411E-003  0.1288663E+03  0.7818608E-02  0.1229148E+00
         11   -1    0    0    0    0  0.00000000000E+00  0.00000000000E+00  0.10001844471E+04  0.10001844471E+04  0.51100000000E-03 0. -1.
          2   -1    0    0  501    0 -0.00000000000E+00 -0.00000000000E+00 -0.33433257733E+02  0.33433257830E+02  0.25500000000E-02 0. -1.
         11    1    1    2    0    0  0.77913512383E+02  0.23294781563E+01  0.11092094649E+03  0.13557063934E+03  0.51100000000E-03 0. -1.
         22    1    1    2    0    0  0.70725360345E+02 -0.58393953080E+02  0.50032513382E+03  0.50866213727E+03  0.00000000000E+00 0. -1.
          2    1    1    2  501    0 -0.14863887273E+03  0.56064474923E+02  0.35550510902E+03  0.38938492829E+03  0.25500000000E-02 0. -1.
<mgrwt>
<rscale>  0 0.12886633E+03</rscale>
<asrwt>0</asrwt>
<pdfrwt beam="1">  1       11 0.10000000E+01 0.77948367E+02</pdfrwt>
<pdfrwt beam="2">  1        2 0.51445267E-02 0.12886633E+03</pdfrwt>
<totfact> 0.17582777E+03</totfact>
</mgrwt>
</event>
<event>
 5    1  0.2804411E-003  0.1105190E+03  0.7818608E-02  0.1404019E+00
         11   -1    0    0    0    0  0.00000000000E+00  0.00000000000E+00  0.10001492392E+04  0.10001492392E+04  0.51100000000E-03 0. -1.
          2   -1    0    0  501    0 -0.00000000000E+00 -0.00000000000E+00 -0.16522746780E+02  0.16522746976E+02  0.25500000000E-02 0. -1.
         11    1    1    2    0    0  0.20712585855E+02 -0.10690252578E+03  0.36612172509E+03  0.38197156807E+03  0.51100000000E-03 0. -1.
         22    1    1    2    0    0 -0.30373322642E+02 -0.62924378283E+01  0.93110573214E+02  0.98141287674E+02  0.00000000000E+00 0.  1.
          2    1    1    2  501    0  0.96607367864E+01  0.11319496360E+03  0.52439419407E+03  0.53655913039E+03  0.25500000000E-02 0. -1.
<mgrwt>
<rscale>  0 0.58550033E+02</rscale>
<asrwt>0</asrwt>
<pdfrwt beam="1">  1       11 0.10000000E+01 0.11051897E+03</pdfrwt>
<pdfrwt beam="2">  1        2 0.25423403E-02 0.58550033E+02</pdfrwt>
<totfact> 0.40768756E+03</totfact>
</mgrwt>
</event>
<event>
 5    1  0.2804411E-003  0.9698439E+02  0.7818608E-02  0.1383822E+00
         11   -1    0    0    0    0  0.00000000000E+00  0.00000000000E+00  0.10001027173E+04  0.10001027173E+04  0.51100000000E-03 0.  1.
         -2   -1    0    0    0  501 -0.00000000000E+00 -0.00000000000E+00 -0.76541934746E+02  0.76541934789E+02  0.25500000000E-02 0. -1.
         11    1    1    2    0    0 -0.16686410292E+02 -0.10698072421E+03  0.40740003385E+03  0.42154252362E+03  0.51100000000E-03 0.  1.
         22    1    1    2    0    0  0.68185227831E+02  0.69882506400E+02  0.56602712938E+03  0.57438619516E+03  0.00000000000E+00 0.  1.
         -2    1    1    2    0  501 -0.51498817539E+02  0.37098217814E+02 -0.49866380631E+02  0.80715933351E+02  0.25500000000E-02 0. -1.
<mgrwt>
<rscale>  0 0.63469725E+02</rscale>
<asrwt>0</asrwt>
<pdfrwt beam="1">  1       11 0.10000000E+01 0.96984390E+02</pdfrwt>
<pdfrwt beam="2">  1       -2 0.11776892E-01 0.63469725E+02</pdfrwt>
<totfact> 0.37612568E+02</totfact>
</mgrwt>
</event>
<event>
 5    1  0.2804411E-003  0.4880250E+03  0.7818608E-02  0.1250718E+00
         11   -1    0    0    0    0  0.00000000000E+00  0.00000000000E+00  0.10005525374E+04  0.10005525374E+04  0.51100000000E-03 0.  1.
          2   -1    0    0  501    0 -0.00000000000E+00 -0.00000000000E+00 -0.95864457773E+03  0.95864457773E+03  0.25500000000E-02 0.  1.
         11    1    1    2    0    0 -0.22452514044E+03  0.37985529863E+03 -0.13065337227E+03  0.46018679932E+03  0.51100000000E-03 0.  1.
         22    1    1    2    0    0  0.16023572767E+03 -0.47580398841E+03  0.75419439118E+03  0.90602102818E+03  0.00000000000E+00 0.  1.
          2    1    1    2  501    0  0.64289412773E+02  0.95948689787E+02 -0.58163305923E+03  0.59298928765E+03  0.25500000000E-02 0.  1.
<mgrwt>
<rscale>  0 0.11549580E+03</rscale>
<asrwt>0</asrwt>
<pdfrwt beam="1">  1       11 0.10000000E+01 0.48802497E+03</pdfrwt>
<pdfrwt beam="2">  1        2 0.14756527E+00 0.11549580E+03</pdfrwt>
<totfact> 0.36229798E+01</totfact>
</mgrwt>
</event>
<event>
 5    1  0.2804411E-003  0.2037506E+03  0.7818608E-02  0.1152772E+00
         11   -1    0    0    0    0  0.00000000000E+00  0.00000000000E+00  0.10002973103E+04  0.10002973103E+04  0.51100000000E-03 0. -1.
          2   -1    0    0  501    0 -0.00000000000E+00 -0.00000000000E+00 -0.47863216309E+02  0.47863216377E+02  0.25500000000E-02 0.  1.
         11    1    1    2    0    0  0.65403254266E+02 -0.73664590857E+02  0.43082750918E+03  0.44194615088E+03  0.51100000000E-03 0. -1.
         22    1    1    2    0    0  0.44972043665E+02 -0.88843178712E+02  0.26467487402E+03  0.28278681732E+03  0.00000000000E+00 0. -1.
          2    1    1    2  501    0 -0.11037529793E+03  0.16250776957E+03  0.25693171082E+03  0.32342755849E+03  0.25500000000E-02 0.  1.
<mgrwt>
<rscale>  0 0.19644715E+03</rscale>
<asrwt>0</asrwt>
<pdfrwt beam="1">  1       11 0.10000000E+01 0.20375061E+03</pdfrwt>
<pdfrwt beam="2">  1        2 0.73657608E-02 0.19644715E+03</pdfrwt>
<totfact> 0.11404437E+03</totfact>
</mgrwt>
</event>
<event>
 5    1  0.2804411E-003  0.2143697E+03  0.7818608E-02  0.1138152E+00
         11   -1    0    0    0    0  0.00000000000E+00  0.00000000000E+00  0.10000858510E+04  0.10000858510E+04  0.51100000000E-03 0. -1.
          2   -1    0    0  501    0 -0.00000000000E+00 -0.00000000000E+00 -0.54750272560E+02  0.54750272619E+02  0.25500000000E-02 0. -1.
         11    1    1    2    0    0 -0.10769156599E+03 -0.17452552310E+03  0.38331656140E+03  0.43472775140E+03  0.51100000000E-03 0. -1.
         22    1    1    2    0    0 -0.24308285164E+02 -0.76891938178E+01  0.13551860480E+03  0.13789600674E+03  0.00000000000E+00 0.  1.
          2    1    1    2  501    0  0.13199985116E+03  0.18221471691E+03  0.42650041227E+03  0.48221236549E+03  0.25500000000E-02 0. -1.
<mgrwt>
<rscale>  0 0.21436967E+03</rscale>
<asrwt>0</asrwt>
<pdfrwt beam="1">  1       11 0.10000000E+01 0.25495420E+02</pdfrwt>
<pdfrwt beam="2">  1        2 0.84238418E-02 0.21436967E+03</pdfrwt>
<totfact> 0.96641037E+02</totfact>
</mgrwt>
</event>
<event>
 5    1  0.2804411E-003  0.3448144E+03  0.7818608E-02  0.1066121E+00
         11   -1    0    0    0    0  0.00000000000E+00  0.00000000000E+00  0.10001057842E+04  0.10001057842E+04  0.51100000000E-03 0. -1.
          2   -1    0    0  501    0 -0.00000000000E+00 -0.00000000000E+00 -0.21137947182E+03  0.21137947183E+03  0.25500000000E-02 0. -1.
         11    1    1    2    0    0 -0.32252070678E+03  0.71545300573E+02 -0.15552066149E+02  0.33072678013E+03  0.51100000000E-03 0. -1.
         22    1    1    2    0    0 -0.10146180369E+02  0.60169823978E+01  0.78574014669E+01  0.14173489728E+02  0.00000000000E+00 0.  1.
          2    1    1    2  501    0  0.33266688715E+03 -0.77562282970E+02  0.79642097711E+03  0.86658498621E+03  0.25500000000E-02 0. -1.
<mgrwt>
<rscale>  0 0.34158918E+03</rscale>
<asrwt>0</asrwt>
<pdfrwt beam="1">  1       11 0.10000000E+01 0.34481443E+03</pdfrwt>
<pdfrwt beam="2">  1        2 0.32523358E-01 0.34158918E+03</pdfrwt>
<totfact> 0.19913935E+02</totfact>
</mgrwt>
</event>
<event>
 5    1  0.2804411E-003  0.6940855E+02  0.7818608E-02  0.1362116E+00
         11   -1    0    0    0    0  0.00000000000E+00  0.00000000000E+00  0.10000610970E+04  0.10000610970E+04  0.51100000000E-03 0.  1.
          2   -1    0    0  501    0 -0.00000000000E+00 -0.00000000000E+00 -0.16589558632E+02  0.16589558828E+02  0.25500000000E-02 0.  1.
         11    1    1    2    0    0  0.67783619909E+02  0.36459574747E+01  0.72539865101E+02  0.99347592639E+02  0.51100000000E-03 0.  1.
         22    1    1    2    0    0  0.16751939693E+02 -0.32505328086E+01  0.66654848159E+02  0.68804521872E+02  0.00000000000E+00 0. -1.
          2    1    1    2  501    0 -0.84535559602E+02 -0.39542466618E+00  0.84427682512E+03  0.84849854133E+03  0.25500000000E-02 0.  1.
<mgrwt>
<rscale>  0 0.69408552E+02</rscale>
<asrwt>0</asrwt>
<pdfrwt beam="1">  1       11 0.10000000E+01 0.17064391E+02</pdfrwt>
<pdfrwt beam="2">  1        2 0.25523957E-02 0.69408552E+02</pdfrwt>
<totfact> 0.41465759E+03</totfact>
</mgrwt>
</event>
<event>
 5    1  0.2804411E-003  0.1420625E+03  0.7818608E-02  0.1218883E+00
         11   -1    0    0    0    0  0.00000000000E+00  0.00000000000E+00  0.10001294012E+04  0.10001294012E+04  0.51100000000E-03 0. -1.
          2   -1    0    0  501    0 -0.00000000000E+00 -0.00000000000E+00 -0.24917887682E+02  0.24917887812E+02  0.25500000000E-02 0. -1.
         11    1    1    2    0    0  0.10668640138E+03 -0.39974628873E+01  0.61974065946E+03  0.62886918587E+03  0.51100000000E-03 0. -1.
         22    1    1    2    0    0  0.27536506360E+02 -0.17613412313E+02  0.11904405729E+03  0.12345031006E+03  0.00000000000E+00 0. -1.
          2    1    1    2  501    0 -0.13422290774E+03  0.21610875201E+02  0.23642679678E+03  0.27272779310E+03  0.25500000000E-02 0. -1.
<mgrwt>
<rscale>  0 0.13595153E+03</rscale>
<asrwt>0</asrwt>
<pdfrwt beam="1">  1       11 0.10000000E+01 0.14206254E+03</pdfrwt>
<pdfrwt beam="2">  1        2 0.38340171E-02 0.13595153E+03</pdfrwt>
<totfact> 0.26000682E+03</totfact>
</mgrwt>
</event>
<event>
 5    1  0.2804411E-003  0.2571120E+03  0.7818608E-02  0.1108891E+00
         11   -1    0    0    0    0  0.00000000000E+00  0.00000000000E+00  0.10000827823E+04  0.10000827823E+04  0.51100000000E-03 0. -1.
          2   -1    0    0  501    0 -0.00000000000E+00 -0.00000000000E+00 -0.31761423036E+03  0.31761423037E+03  0.25500000000E-02 0. -1.
         11    1    1    2    0    0 -0.18706084171E+03  0.14294787643E+03  0.83829040082E+03  0.87072191312E+03  0.51100000000E-03 0. -1.
         22    1    1    2    0    0 -0.40019766755E+02 -0.18973472975E+02  0.83513766693E+02  0.94531072326E+02  0.00000000000E+00 0. -1.
          2    1    1    2  501    0  0.22708060846E+03 -0.12397440346E+03 -0.23933561556E+03  0.35244402724E+03  0.25500000000E-02 0. -1.
<mgrwt>
<rscale>  0 0.25711204E+03</rscale>
<asrwt>0</asrwt>
<pdfrwt beam="1">  1       11 0.10000000E+01 0.44289665E+02</pdfrwt>
<pdfrwt beam="2">  1        2 0.48867771E-01 0.25711204E+03</pdfrwt>
<totfact> 0.12757178E+02</totfact>
</mgrwt>
</event>
<event>
 5    1  0.2804411E-003  0.1764723E+03  0.7818608E-02  0.1171262E+00
         11   -1    0    0    0    0  0.00000000000E+00  0.00000000000E+00  0.99990958542E+03  0.99990958542E+03  0.51100000000E-03 0. -1.
          2   -1    0    0  501    0 -0.00000000000E+00 -0.00000000000E+00 -0.10751165850E+03  0.10751165853E+03  0.25500000000E-02 0.  1.
         11    1    1    2    0    0 -0.40537705300E+01 -0.16890340359E+03  0.86182397463E+03  0.87822853293E+03  0.51100000000E-03 0. -1.
         22    1    1    2    0    0  0.13492992741E+02 -0.80518696609E+01  0.48594728171E+02  0.51071920505E+02  0.00000000000E+00 0.  1.
          2    1    1    2  501    0 -0.94392222108E+01  0.17695527325E+03 -0.18020775883E+02  0.17812079052E+03  0.25500000000E-02 0.  1.
<mgrwt>
<rscale>  0 0.17647226E+03</rscale>
<asrwt>0</asrwt>
<pdfrwt beam="1">  1       11 0.10000000E+01 0.15712844E+02</pdfrwt>
<pdfrwt beam="2">  1        2 0.16538759E-01 0.17647226E+03</pdfrwt>
<totfact> 0.42168554E+02</totfact>
</mgrwt>
</event>
<event>
 5    1  0.2804411E-003  0.5379786E+02  0.7818608E-02  0.1549570E+00
         11   -1    0    0    0    0  0.00000000000E+00  0.00000000000E+00  0.10003874157E+04  0.10003874157E+04  0.51100000000E-03 0. -1.
          2   -1    0    0  501    0 -0.00000000000E+00 -0.00000000000E+00 -0.47654356197E+01  0.47654363020E+01  0.25500000000E-02 0. -1.
         11    1    1    2    0    0  0.48632374670E+02  0.18647605831E+02  0.30234719293E+03  0.30680069450E+03  0.51100000000E-03 0. -1.
         22    1    1    2    0    0 -0.83278853442E+01  0.21040823095E+02  0.10769678515E+03  0.11004847769E+03  0.00000000000E+00 0. -1.
          2    1    1    2  501    0 -0.40304489326E+02 -0.39688428927E+02  0.58557800196E+03  0.58830367977E+03  0.25500000000E-02 0. -1.
<mgrwt>
<rscale>  0 0.34891104E+02</rscale>
<asrwt>0</asrwt>
<pdfrwt beam="1">  1       11 0.10000000E+01 0.53797862E+02</pdfrwt>
<pdfrwt beam="2">  1        2 0.73342800E-03 0.34891104E+02</pdfrwt>
<totfact> 0.19421626E+04</totfact>
</mgrwt>
</event>
<event>
 5    1  0.2804411E-003  0.1690366E+03  0.7818608E-02  0.1199362E+00
         11   -1    0    0    0    0  0.00000000000E+00  0.00000000000E+00  0.10002648593E+04  0.10002648593E+04  0.51100000000E-03 0.  1.
          2   -1    0    0  501    0 -0.00000000000E+00 -0.00000000000E+00 -0.31115679662E+02  0.31115679767E+02  0.25500000000E-02 0.  1.
         11    1    1    2    0    0  0.70534914374E+02  0.64146667875E+02  0.34891414217E+03  0.36170574747E+03  0.51100000000E-03 0.  1.
         22    1    1    2    0    0  0.70365852701E+02 -0.10107489191E+02  0.37537570649E+03  0.38204768758E+03  0.00000000000E+00 0. -1.
          2    1    1    2  501    0 -0.14090076708E+03 -0.54039178684E+02  0.24485933102E+03  0.28762710406E+03  0.25500000000E-02 0.  1.
<mgrwt>
<rscale>  0 0.15090811E+03</rscale>
<asrwt>0</asrwt>
<pdfrwt beam="1">  1       11 0.10000000E+01 0.16903664E+03</pdfrwt>
<pdfrwt beam="2">  1        2 0.47882954E-02 0.15090811E+03</pdfrwt>
<totfact> 0.19562910E+03</totfact>
</mgrwt>
</event>
<event>
 5    1  0.2804411E-003  0.1382542E+03  0.7818608E-02  0.1225607E+00
         11   -1    0    0    0    0  0.00000000000E+00  0.00000000000E+00  0.10007322625E+04  0.10007322625E+04  0.51100000000E-03 0. -1.
          2   -1    0    0  501    0 -0.00000000000E+00 -0.00000000000E+00 -0.18228548681E+02  0.18228548860E+02  0.25500000000E-02 0. -1.
         11    1    1    2    0    0  0.32635377102E+02 -0.64467793739E+02  0.25357529896E+03  0.26366948347E+03  0.51100000000E-03 0. -1.
         22    1    1    2    0    0 -0.88888518102E+01 -0.64620390820E+02  0.28477507070E+03  0.29215004277E+03  0.00000000000E+00 0.  1.
          2    1    1    2  501    0 -0.23746525292E+02  0.12908818456E+03  0.44415334416E+03  0.46314128513E+03  0.25500000000E-02 0. -1.
<mgrwt>
<rscale>  0 0.13125417E+03</rscale>
<asrwt>0</asrwt>
<pdfrwt beam="1">  1       11 0.10000000E+01 0.13825421E+03</pdfrwt>
<pdfrwt beam="2">  1        2 0.28064456E-02 0.13125417E+03</pdfrwt>
<totfact> 0.39330019E+03</totfact>
</mgrwt>
</event>
<event>
 5    1  0.2804411E-003  0.1111892E+03  0.7818608E-02  0.1513588E+00
         11   -1    0    0    0    0  0.00000000000E+00  0.00000000000E+00  0.10002278627E+04  0.10002278627E+04  0.51100000000E-03 0. -1.
          2   -1    0    0  501    0 -0.00000000000E+00 -0.00000000000E+00 -0.17061378354E+02  0.17061378545E+02  0.25500000000E-02 0. -1.
         11    1    1    2    0    0  0.97247537896E+02 -0.52577449397E+02  0.28578650675E+03  0.30642356184E+03  0.51100000000E-03 0. -1.
         22    1    1    2    0    0 -0.63150759119E+01 -0.12355255284E+02  0.20061171630E+02  0.24392275910E+02  0.00000000000E+00 0. -1.
          2    1    1    2  501    0 -0.90932461984E+02  0.64932704681E+02  0.67731880593E+03  0.68647340346E+03  0.25500000000E-02 0. -1.
<mgrwt>
<rscale>  0 0.39278703E+02</rscale>
<asrwt>0</asrwt>
<pdfrwt beam="1">  1       11 0.10000000E+01 0.11118916E+03</pdfrwt>
<pdfrwt beam="2">  1        2 0.26254255E-02 0.39278703E+02</pdfrwt>
<totfact> 0.36969129E+03</totfact>
</mgrwt>
</event>
<event>
 5    1  0.2804411E-003  0.9818071E+02  0.7818608E-02  0.1286634E+00
         11   -1    0    0    0    0  0.00000000000E+00  0.00000000000E+00  0.99990143332E+03  0.99990143332E+03  0.51100000000E-03 0. -1.
          2   -1    0    0  501    0 -0.00000000000E+00 -0.00000000000E+00 -0.99035277481E+01  0.99035280764E+01  0.25500000000E-02 0. -1.
         11    1    1    2    0    0  0.55270944550E+02  0.66768242531E+02  0.33593493517E+03  0.34693681873E+03  0.51100000000E-03 0. -1.
         22    1    1    2    0    0  0.46565184504E+01  0.95636120635E+01  0.63683017061E+02  0.64565257699E+02  0.00000000000E+00 0. -1.
          2    1    1    2  501    0 -0.59927463000E+02 -0.76331854595E+02  0.59037995334E+03  0.59830288496E+03  0.25500000000E-02 0. -1.
<mgrwt>
<rscale>  0 0.97045623E+02</rscale>
<asrwt>0</asrwt>
<pdfrwt beam="1">  1       11 0.10000000E+01 0.98180707E+02</pdfrwt>
<pdfrwt beam="2">  1        2 0.15234695E-02 0.97045623E+02</pdfrwt>
<totfact> 0.86762146E+03</totfact>
</mgrwt>
</event>
<event>
 5    1  0.2804411E-003  0.9856651E+02  0.7818608E-02  0.1287032E+00
         11   -1    0    0    0    0  0.00000000000E+00  0.00000000000E+00  0.10002270894E+04  0.10002270894E+04  0.51100000000E-03 0. -1.
          2   -1    0    0  501    0 -0.00000000000E+00 -0.00000000000E+00 -0.10740096305E+02  0.10740096608E+02  0.25500000000E-02 0. -1.
         11    1    1    2    0    0 -0.84996525025E+02 -0.82236309699E+01  0.26773885632E+03  0.28102692496E+03  0.51100000000E-03 0. -1.
         22    1    1    2    0    0 -0.11063343063E+02 -0.42322398003E+01  0.62301115110E+02  0.63417177148E+02  0.00000000000E+00 0.  1.
          2    1    1    2  501    0  0.96059868087E+02  0.12455870770E+02  0.65944702166E+03  0.66652308389E+03  0.25500000000E-02 0. -1.
<mgrwt>
<rscale>  0 0.96864064E+02</rscale>
<asrwt>0</asrwt>
<pdfrwt beam="1">  1       11 0.10000000E+01 0.98566509E+02</pdfrwt>
<pdfrwt beam="2">  1        2 0.16526977E-02 0.96864064E+02</pdfrwt>
<totfact> 0.77649478E+03</totfact>
</mgrwt>
</event>
<event>
 5    1  0.2804411E-003  0.6517551E+02  0.7818608E-02  0.1401621E+00
         11   -1    0    0    0    0  0.00000000000E+00  0.00000000000E+00  0.10003719898E+04  0.10003719898E+04  0.51100000000E-03 0. -1.
          2   -1    0    0  501    0 -0.00000000000E+00 -0.00000000000E+00 -0.21472961156E+02  0.21472961307E+02  0.25500000000E-02 0. -1.
         11    1    1    2    0    0  0.10644924780E+02 -0.32303797154E+02  0.70929203260E+01  0.34744197402E+02  0.51100000000E-03 0. -1.
         22    1    1    2    0    0 -0.10444864267E+02 -0.26802193231E+02  0.24025815906E+02  0.37479228668E+02  0.00000000000E+00 0.  1.
          2    1    1    2  501    0 -0.20006051230E+00  0.59105990385E+02  0.94778029246E+03  0.94962152508E+03  0.25500000000E-02 0. -1.
<mgrwt>
<rscale>  0 0.59106329E+02</rscale>
<asrwt>0</asrwt>
<pdfrwt beam="1">  1       11 0.10000000E+01 0.65175513E+02</pdfrwt>
<pdfrwt beam="2">  1        2 0.33047613E-02 0.59106329E+02</pdfrwt>
<totfact> 0.28944726E+03</totfact>
</mgrwt>
</event>
<event>
 5    1  0.2804411E-003  0.9949874E+02  0.7818608E-02  0.1706187E+00
         11   -1    0    0    0    0  0.00000000000E+00  0.00000000000E+00  0.10002853163E+04  0.10002853163E+04  0.51100000000E-03 0. -1.
          2   -1    0    0  501    0 -0.00000000000E+00 -0.00000000000E+00 -0.13844452594E+04  0.13844452594E+04  0.25500000000E-02 0.  1.
         11    1    1    2    0    0 -0.61332977281E+02 -0.71998185345E+02  0.55920972977E+03  0.56715165050E+03  0.51100000000E-03 0. -1.
         22    1    1    2    0    0  0.83354435699E+02  0.69914156942E+02  0.43024468302E+03  0.44378647857E+03  0.00000000000E+00 0. -1.
          2    1    1    2  501    0 -0.22021458418E+02  0.20840284027E+01 -0.13736143559E+04  0.13737924467E+04  0.25500000000E-02 0.  1.
<mgrwt>
<rscale>  0 0.22119851E+02</rscale>
<asrwt>0</asrwt>
<pdfrwt beam="1">  1       11 0.10000000E+01 0.99498741E+02</pdfrwt>
<pdfrwt beam="2">  1        2 0.21305234E+00 0.22119851E+02</pdfrwt>
<totfact> 0.23921975E+01</totfact>
</mgrwt>
</event>
<event>
 5    1  0.2804411E-003  0.8921393E+02  0.7818608E-02  0.1304767E+00
         11   -1    0    0    0    0  0.00000000000E+00  0.00000000000E+00  0.10002357559E+04  0.10002357559E+04  0.51100000000E-03 0.  1.
          2   -1    0    0  501    0 -0.00000000000E+00 -0.00000000000E+00 -0.11148655869E+02  0.11148656161E+02  0.25500000000E-02 0.  1.
         11    1    1    2    0    0  0.37092231214E+02 -0.81770371287E+02  0.28181254922E+03  0.29577109415E+03  0.51100000000E-03 0.  1.
         22    1    1    2    0    0  0.15933612600E+02  0.98924937243E+01  0.92312222341E+02  0.94198130746E+02  0.00000000000E+00 0. -1.
          2    1    1    2  501    0 -0.53025843814E+02  0.71877877562E+02  0.61496232850E+03  0.62141518720E+03  0.25500000000E-02 0.  1.
<mgrwt>
<rscale>  0 0.89213932E+02</rscale>
<asrwt>0</asrwt>
<pdfrwt beam="1">  1       11 0.10000000E+01 0.18754771E+02</pdfrwt>
<pdfrwt beam="2">  1        2 0.17155822E-02 0.89213932E+02</pdfrwt>
<totfact> 0.72997077E+03</totfact>
</mgrwt>
</event>
<event>
 5    1  0.7083437E-003  0.3315401E+03  0.7818608E-02  0.1071571E+00
         11   -1    0    0    0    0  0.00000000000E+00  0.00000000000E+00  0.10002509742E+04  0.10002509742E+04  0.51100000000E-03 0.  1.
          2   -1    0    0  501    0 -0.00000000000E+00 -0.00000000000E+00 -0.74662278883E+03  0.74662278883E+03  0.25500000000E-02 0.  1.
         11    1    1    2    0    0 -0.24785556896E+03 -0.19986511216E+03  0.87459164666E+03  0.93074647167E+03  0.51100000000E-03 0.  1.
         22    1    1    2    0    0 -0.80972668029E+01 -0.68770718587E+01  0.59421762504E+02  0.60363943759E+02  0.00000000000E+00 0.  1.
          2    1    1    2  501    0  0.25595283576E+03  0.20674218401E+03 -0.68038522380E+03  0.75576334759E+03  0.25500000000E-02 0.  1.
<mgrwt>
<rscale>  0 0.32902004E+03</rscale>
<asrwt>0</asrwt>
<pdfrwt beam="1">  1       11 0.10000000E+01 0.33154005E+03</pdfrwt>
<pdfrwt beam="2">  1        2 0.11489387E+00 0.32902004E+03</pdfrwt>
<totfact> 0.48035914E+01</totfact>
</mgrwt>
</event>
<event>
 5    1  0.2804411E-003  0.2299939E+03  0.7818608E-02  0.1129975E+00
         11   -1    0    0    0    0  0.00000000000E+00  0.00000000000E+00  0.10000971608E+04  0.10000971608E+04  0.51100000000E-03 0. -1.
          2   -1    0    0  501    0 -0.00000000000E+00 -0.00000000000E+00 -0.11271862925E+03  0.11271862928E+03  0.25500000000E-02 0. -1.
         11    1    1    2    0    0  0.17324674639E+03  0.11780374722E+02  0.57425340560E+03  0.59993348482E+03  0.51100000000E-03 0. -1.
         22    1    1    2    0    0  0.51472186608E+02  0.47141307671E+01  0.28048413949E+03  0.28520687497E+03  0.00000000000E+00 0. -1.
          2    1    1    2  501    0 -0.22471893300E+03 -0.16494505489E+02  0.32640986469E+02  0.22767543030E+03  0.25500000000E-02 0. -1.
<mgrwt>
<rscale>  0 0.22532347E+03</rscale>
<asrwt>0</asrwt>
<pdfrwt beam="1">  1       11 0.10000000E+01 0.22999388E+03</pdfrwt>
<pdfrwt beam="2">  1        2 0.17343012E-01 0.22532347E+03</pdfrwt>
<totfact> 0.40232096E+02</totfact>
</mgrwt>
</event>
<event>
 5    1  0.2804411E-003  0.6470796E+03  0.7818608E-02  0.9835977E-01
         11   -1    0    0    0    0  0.00000000000E+00  0.00000000000E+00  0.10005604612E+04  0.10005604612E+04  0.51100000000E-03 0. -1.
          2   -1    0    0  501    0 -0.00000000000E+00 -0.00000000000E+00 -0.90551146062E+03  0.90551146062E+03  0.25500000000E-02 0. -1.
         11    1    1    2    0    0  0.62210074859E+02  0.54299663871E+03  0.58342685046E+03  0.79943876120E+03  0.51100000000E-03 0. -1.
         22    1    1    2    0    0 -0.22355414033E+02  0.90421103567E+02  0.16894220481E+03  0.19291762250E+03  0.00000000000E+00 0.  1.
          2    1    1    2  501    0 -0.39854660826E+02 -0.63341774227E+03 -0.65732005472E+03  0.91371553809E+03  0.25500000000E-02 0. -1.
<mgrwt>
<rscale>  0 0.63467033E+03</rscale>
<asrwt>0</asrwt>
<pdfrwt beam="1">  1       11 0.10000000E+01 0.64707959E+03</pdfrwt>
<pdfrwt beam="2">  1        2 0.13938753E+00 0.63467033E+03</pdfrwt>
<totfact> 0.36331878E+01</totfact>
</mgrwt>
</event>
<event>
 5    1  0.2804411E-003  0.1657056E+03  0.7818608E-02  0.1182402E+00
         11   -1    0    0    0    0  0.00000000000E+00  0.00000000000E+00  0.10000392195E+04  0.10000392195E+04  0.51100000000E-03 0.  1.
         -2   -1    0    0    0  501 -0.00000000000E+00 -0.00000000000E+00 -0.64815254726E+02  0.64815254776E+02  0.25500000000E-02 0. -1.
         11    1    1    2    0    0  0.10814333353E+02 -0.28748093861E+02  0.66537932380E+02  0.73285054085E+02  0.51100000000E-03 0.  1.
         22    1    1    2    0    0  0.15464245578E+03  0.58658227605E+00  0.79215405146E+03  0.80710759781E+03  0.00000000000E+00 0.  1.
         -2    1    1    2    0  501 -0.16545678913E+03  0.28161511585E+02  0.76531980949E+02  0.18446182239E+03  0.25500000000E-02 0. -1.
<mgrwt>
<rscale>  0 0.16570562E+03</rscale>
<asrwt>0</asrwt>
<pdfrwt beam="1">  1       11 0.10000000E+01 0.30714861E+02</pdfrwt>
<pdfrwt beam="2">  1       -2 0.99719684E-02 0.16570562E+03</pdfrwt>
<totfact> 0.51878788E+02</totfact>
</mgrwt>
</event>
<event>
 5    1  0.2804411E-003  0.3732895E+03  0.7818608E-02  0.1056293E+00
         11   -1    0    0    0    0  0.00000000000E+00  0.00000000000E+00  0.10004810964E+04  0.10004810964E+04  0.51100000000E-03 0. -1.
          2   -1    0    0  501    0 -0.00000000000E+00 -0.00000000000E+00 -0.46909003788E+03  0.46909003789E+03  0.25500000000E-02 0. -1.
         11    1    1    2    0    0 -0.24913097429E+02  0.89477972122E+02  0.30749844815E+03  0.32121996441E+03  0.51100000000E-03 0. -1.
         22    1    1    2    0    0 -0.22794307253E+02  0.27324270757E+03  0.57766362790E+03  0.63943445691E+03  0.00000000000E+00 0. -1.
          2    1    1    2  501    0  0.47707404682E+02 -0.36272067969E+03 -0.35377101751E+03  0.50891671300E+03  0.25500000000E-02 0. -1.
<mgrwt>
<rscale>  0 0.36584462E+03</rscale>
<asrwt>0</asrwt>
<pdfrwt beam="1">  1       11 0.10000000E+01 0.37328945E+03</pdfrwt>
<pdfrwt beam="2">  1        2 0.72202416E-01 0.36584462E+03</pdfrwt>
<totfact> 0.82885312E+01</totfact>
</mgrwt>
</event>
<event>
 5    1  0.2804411E-003  0.1899776E+03  0.7818608E-02  0.1162108E+00
         11   -1    0    0    0    0  0.00000000000E+00  0.00000000000E+00  0.10000941249E+04  0.10000941249E+04  0.51100000000E-03 0. -1.
          2   -1    0    0  501    0 -0.00000000000E+00 -0.00000000000E+00 -0.13044705976E+03  0.13044705979E+03  0.25500000000E-02 0. -1.
         11    1    1    2    0    0 -0.13653226520E+03  0.22644240031E+02  0.68209351912E+03  0.69599237775E+03  0.51100000000E-03 0. -1.
         22    1    1    2    0    0 -0.41891360865E+02  0.29942765607E+02  0.23663336358E+03  0.24217102239E+03  0.00000000000E+00 0.  1.
          2    1    1    2  501    0  0.17842362607E+03 -0.52587005638E+02 -0.49079817540E+02  0.19237778457E+03  0.25500000000E-02 0. -1.
<mgrwt>
<rscale>  0 0.18601178E+03</rscale>
<asrwt>0</asrwt>
<pdfrwt beam="1">  1       11 0.10000000E+01 0.18997758E+03</pdfrwt>
<pdfrwt beam="2">  1        2 0.20070667E-01 0.18601178E+03</pdfrwt>
<totfact> 0.33793114E+02</totfact>
</mgrwt>
</event>
<event>
 5    1  0.2804411E-003  0.1143687E+03  0.7818608E-02  0.1257353E+00
         11   -1    0    0    0    0  0.00000000000E+00  0.00000000000E+00  0.99987445047E+03  0.99987445047E+03  0.51100000000E-03 0. -1.
         -2   -1    0    0    0  501 -0.00000000000E+00 -0.00000000000E+00 -0.12843837547E+02  0.12843837800E+02  0.25500000000E-02 0. -1.
         11    1    1    2    0    0 -0.62339875781E+01  0.84628766974E+02  0.33585290236E+03  0.34640736543E+03  0.51100000000E-03 0. -1.
         22    1    1    2    0    0  0.11649349285E+02  0.26995286191E+02  0.12896104653E+03  0.13227019444E+03  0.00000000000E+00 0. -1.
         -2    1    1    2    0  501 -0.54153617064E+01 -0.11162405317E+03  0.52221666404E+03  0.53404072840E+03  0.25500000000E-02 0. -1.
<mgrwt>
<rscale>  0 0.11175534E+03</rscale>
<asrwt>0</asrwt>
<pdfrwt beam="1">  1       11 0.10000000E+01 0.11436870E+03</pdfrwt>
<pdfrwt beam="2">  1       -2 0.19757269E-02 0.11175534E+03</pdfrwt>
<totfact> 0.56636582E+03</totfact>
</mgrwt>
</event>
<event>
 5    1  0.2804411E-003  0.4607665E+03  0.7818608E-02  0.1027244E+00
         11   -1    0    0    0    0  0.00000000000E+00  0.00000000000E+00  0.10002453591E+04  0.10002453591E+04  0.51100000000E-03 0. -1.
          2   -1    0    0  501    0 -0.00000000000E+00 -0.00000000000E+00 -0.26478095736E+03  0.26478095737E+03  0.25500000000E-02 0. -1.
         11    1    1    2    0    0  0.21485831836E+03  0.31087397575E+03  0.55544202481E+03  0.67180545449E+03  0.51100000000E-03 0. -1.
         22    1    1    2    0    0  0.74488247345E+01  0.82226438450E+02  0.10794306099E+03  0.13589840538E+03  0.00000000000E+00 0. -1.
          2    1    1    2  501    0 -0.22230714310E+03 -0.39310041420E+03  0.72079315944E+02  0.45732245660E+03  0.25500000000E-02 0. -1.
<mgrwt>
<rscale>  0 0.45160647E+03</rscale>
<asrwt>0</asrwt>
<pdfrwt beam="1">  1       11 0.10000000E+01 0.46076648E+03</pdfrwt>
<pdfrwt beam="2">  1        2 0.40745526E-01 0.45160647E+03</pdfrwt>
<totfact> 0.15564851E+02</totfact>
</mgrwt>
</event>
<event>
 5    1  0.2804411E-003  0.2520175E+03  0.7818608E-02  0.1114735E+00
         11   -1    0    0    0    0  0.00000000000E+00  0.00000000000E+00  0.10004653506E+04  0.10004653506E+04  0.51100000000E-03 0.  1.
          2   -1    0    0  501    0 -0.00000000000E+00 -0.00000000000E+00 -0.42280535686E+03  0.42280535687E+03  0.25500000000E-02 0.  1.
         11    1    1    2    0    0  0.87535558777E+02  0.18134852217E+03  0.68893322113E+03  0.71775953056E+03  0.51100000000E-03 0.  1.
         22    1    1    2    0    0  0.17530236710E+02  0.43020839062E+02  0.25727187656E+03  0.26143243919E+03  0.00000000000E+00 0.  1.
          2    1    1    2  501    0 -0.10506579549E+03 -0.22436936123E+03 -0.36854510395E+03  0.44407873771E+03  0.25500000000E-02 0.  1.
<mgrwt>
<rscale>  0 0.24775074E+03</rscale>
<asrwt>0</asrwt>
<pdfrwt beam="1">  1       11 0.10000000E+01 0.25201751E+03</pdfrwt>
<pdfrwt beam="2">  1        2 0.65077246E-01 0.24775074E+03</pdfrwt>
<totfact> 0.93459765E+01</totfact>
</mgrwt>
</event>
<event>
 5    1  0.2804411E-003  0.1472988E+03  0.7818608E-02  0.1203832E+00
         11   -1    0    0    0    0  0.00000000000E+00  0.00000000000E+00  0.10003182150E+04  0.10003182150E+04  0.51100000000E-03 0. -1.
          2   -1    0    0  501    0 -0.00000000000E+00 -0.00000000000E+00 -0.22461034427E+02  0.22461034572E+02  0.25500000000E-02 0. -1.
         11    1    1    2    0    0 -0.13149511235E+03 -0.58495756520E+02  0.60496729984E+03  0.62185058654E+03  0.51100000000E-03 0. -1.
         22    1    1    2    0    0  0.11197858405E+03  0.50971769665E+02  0.28213406815E+03  0.30779369227E+03  0.00000000000E+00 0. -1.
          2    1    1    2  501    0  0.19516528301E+02  0.75239868552E+01  0.90755812544E+02  0.93134970726E+02  0.25500000000E-02 0. -1.
<mgrwt>
<rscale>  0 0.14729878E+03</rscale>
<asrwt>0</asrwt>
<pdfrwt beam="1">  1       11 0.10000000E+01 0.14391914E+03</pdfrwt>
<pdfrwt beam="2">  1        2 0.34566433E-02 0.14729878E+03</pdfrwt>
<totfact> 0.30074655E+03</totfact>
</mgrwt>
</event>
<event>
 5    1  0.2804411E-003  0.2612748E+03  0.7818608E-02  0.1107844E+00
         11   -1    0    0    0    0  0.00000000000E+00  0.00000000000E+00  0.10000250659E+04  0.10000250659E+04  0.51100000000E-03 0. -1.
          2   -1    0    0  501    0 -0.00000000000E+00 -0.00000000000E+00 -0.70123348952E+02  0.70123348999E+02  0.25500000000E-02 0.  1.
         11    1    1    2    0    0 -0.24289413079E+03  0.16146072024E+02  0.32674559864E+03  0.40745667333E+03  0.51100000000E-03 0. -1.
         22    1    1    2    0    0 -0.15505893626E+02 -0.11137696982E+01  0.39358172359E+02  0.42317123620E+02  0.00000000000E+00 0. -1.
          2    1    1    2  501    0  0.25840002441E+03 -0.15032302326E+02  0.56379794597E+03  0.62037461797E+03  0.25500000000E-02 0.  1.
<mgrwt>
<rscale>  0 0.25883690E+03</rscale>
<asrwt>0</asrwt>
<pdfrwt beam="1">  1       11 0.10000000E+01 0.26127475E+03</pdfrwt>
<pdfrwt beam="2">  1        2 0.10788478E-01 0.25883690E+03</pdfrwt>
<totfact> 0.71582001E+02</totfact>
</mgrwt>
</event>
<event>
 5    1  0.2804411E-003  0.1373832E+03  0.7818608E-02  0.1222438E+00
         11   -1    0    0    0    0  0.00000000000E+00  0.00000000000E+00  0.10001946578E+04  0.10001946578E+04  0.51100000000E-03 0. -1.
          2   -1    0    0  501    0 -0.00000000000E+00 -0.00000000000E+00 -0.20845772544E+02  0.20845772700E+02  0.25500000000E-02 0. -1.
         11    1    1    2    0    0  0.21111609747E+02 -0.10792753382E+03  0.59663678618E+03  0.60668732247E+03  0.51100000000E-03 0. -1.
         22    1    1    2    0    0  0.12064557725E+02 -0.21322847300E+02  0.76546345332E+02  0.80371390145E+02  0.00000000000E+00 0.  1.
          2    1    1    2  501    0 -0.33176167472E+02  0.12925038112E+03  0.30616575370E+03  0.33398171785E+03  0.25500000000E-02 0. -1.
<mgrwt>
<rscale>  0 0.13344032E+03</rscale>
<asrwt>0</asrwt>
<pdfrwt beam="1">  1       11 0.10000000E+01 0.13738321E+03</pdfrwt>
<pdfrwt beam="2">  1        2 0.32076661E-02 0.13344032E+03</pdfrwt>
<totfact> 0.32924517E+03</totfact>
</mgrwt>
</event>
<event>
 5    1  0.2804411E-003  0.1556487E+03  0.7818608E-02  0.1204822E+00
         11   -1    0    0    0    0  0.00000000000E+00  0.00000000000E+00  0.10001646375E+04  0.10001646375E+04  0.51100000000E-03 0. -1.
          2   -1    0    0  501    0 -0.00000000000E+00 -0.00000000000E+00 -0.22887023979E+02  0.22887024121E+02  0.25500000000E-02 0. -1.
         11    1    1    2    0    0  0.58468280445E+02  0.11877990972E+03  0.41680828410E+03  0.43732865498E+03  0.51100000000E-03 0. -1.
         22    1    1    2    0    0 -0.11309603083E+02  0.19938377941E+02  0.59304826717E+02  0.63580724349E+02  0.00000000000E+00 0. -1.
          2    1    1    2  501    0 -0.47158677362E+02 -0.13871828766E+03  0.50116450271E+03  0.52214228230E+03  0.25500000000E-02 0. -1.
<mgrwt>
<rscale>  0 0.14651520E+03</rscale>
<asrwt>0</asrwt>
<pdfrwt beam="1">  1       11 0.10000000E+01 0.15564868E+03</pdfrwt>
<pdfrwt beam="2">  1        2 0.35216602E-02 0.14651520E+03</pdfrwt>
<totfact> 0.29319692E+03</totfact>
</mgrwt>
</event>
<event>
 5    1  0.2804411E-003  0.2135263E+03  0.7818608E-02  0.1141674E+00
         11   -1    0    0    0    0  0.00000000000E+00  0.00000000000E+00  0.10002417515E+04  0.10002417515E+04  0.51100000000E-03 0. -1.
         -2   -1    0    0    0  501 -0.00000000000E+00 -0.00000000000E+00 -0.14050358354E+03  0.14050358356E+03  0.25500000000E-02 0.  1.
         11    1    1    2    0    0 -0.17334615624E+02  0.14497602739E+03  0.57440409748E+03  0.59267073879E+03  0.51100000000E-03 0. -1.
         22    1    1    2    0    0  0.14254166003E+02  0.64864535705E+02  0.32737375024E+03  0.33404215540E+03  0.00000000000E+00 0. -1.
         -2    1    1    2    0  501  0.30804496204E+01 -0.20984056309E+03 -0.42039679713E+02  0.21403244092E+03  0.25500000000E-02 0.  1.
<mgrwt>
<rscale>  0 0.20986317E+03</rscale>
<asrwt>0</asrwt>
<pdfrwt beam="1">  1       11 0.10000000E+01 0.21352635E+03</pdfrwt>
<pdfrwt beam="2">  1       -2 0.21621161E-01 0.20986317E+03</pdfrwt>
<totfact> 0.14663211E+02</totfact>
</mgrwt>
</event>
<event>
 5    1  0.2804411E-003  0.1937370E+03  0.7818608E-02  0.1155133E+00
         11   -1    0    0    0    0  0.00000000000E+00  0.00000000000E+00  0.10002507731E+04  0.10002507731E+04  0.51100000000E-03 0. -1.
          2   -1    0    0  501    0 -0.00000000000E+00 -0.00000000000E+00 -0.59301473679E+02  0.59301473734E+02  0.25500000000E-02 0. -1.
         11    1    1    2    0    0 -0.12155346818E+03  0.12285954327E+03  0.54422482181E+03  0.57100820456E+03  0.51100000000E-03 0. -1.
         22    1    1    2    0    0  0.27223341828E+02  0.61053156319E+02  0.16502292880E+03  0.17804821051E+03  0.00000000000E+00 0.  1.
          2    1    1    2  501    0  0.94330126348E+02 -0.18391269959E+03  0.23170154876E+03  0.31049583171E+03  0.25500000000E-02 0. -1.
<mgrwt>
<rscale>  0 0.19373704E+03</rscale>
<asrwt>0</asrwt>
<pdfrwt beam="1">  1       11 0.10000000E+01 0.66847575E+02</pdfrwt>
<pdfrwt beam="2">  1        2 0.91255913E-02 0.19373704E+03</pdfrwt>
<totfact> 0.86903756E+02</totfact>
</mgrwt>
</event>
<event>
 5    1  0.2804411E-003  0.2408720E+03  0.7818608E-02  0.1126446E+00
         11   -1    0    0    0    0  0.00000000000E+00  0.00000000000E+00  0.10003955142E+04  0.10003955142E+04  0.51100000000E-03 0. -1.
          2   -1    0    0  501    0 -0.00000000000E+00 -0.00000000000E+00 -0.14617885007E+03  0.14617885009E+03  0.25500000000E-02 0. -1.
         11    1    1    2    0    0  0.10993723306E+02 -0.16686051158E+03  0.50330274889E+03  0.53035549334E+03  0.51100000000E-03 0. -1.
         22    1    1    2    0    0  0.94397424029E+01 -0.62506985685E+02  0.37900056874E+03  0.38423646769E+03  0.00000000000E+00 0.  1.
          2    1    1    2  501    0 -0.20433465709E+02  0.22936749727E+03 -0.28086653469E+02  0.23198240328E+03  0.25500000000E-02 0. -1.
<mgrwt>
<rscale>  0 0.23027587E+03</rscale>
<asrwt>0</asrwt>
<pdfrwt beam="1">  1       11 0.10000000E+01 0.24087198E+03</pdfrwt>
<pdfrwt beam="2">  1        2 0.22497948E-01 0.23027587E+03</pdfrwt>
<totfact> 0.29852785E+02</totfact>
</mgrwt>
</event>
<event>
 5    1  0.2804411E-003  0.2253056E+03  0.7818608E-02  0.1129988E+00
         11   -1    0    0    0    0  0.00000000000E+00  0.00000000000E+00  0.99968856607E+03  0.99968856607E+03  0.51100000000E-03 0. -1.
          2   -1    0    0  501    0 -0.00000000000E+00 -0.00000000000E+00 -0.81337488195E+02  0.81337488235E+02  0.25500000000E-02 0. -1.
         11    1    1    2    0    0  0.16243651906E+03 -0.11803034745E+03  0.48021769802E+03  0.52050535361E+03  0.51100000000E-03 0. -1.
         22    1    1    2    0    0 -0.31040344650E+02 -0.90242684090E+02  0.18019089704E+03  0.20390194802E+03  0.00000000000E+00 0. -1.
          2    1    1    2  501    0 -0.13139617441E+03  0.20827303154E+03  0.25794248281E+03  0.35661875268E+03  0.25500000000E-02 0. -1.
<mgrwt>
<rscale>  0 0.22530565E+03</rscale>
<asrwt>0</asrwt>
<pdfrwt beam="1">  1       11 0.10000000E+01 0.95431887E+02</pdfrwt>
<pdfrwt beam="2">  1        2 0.12509562E-01 0.22530565E+03</pdfrwt>
<totfact> 0.59344021E+02</totfact>
</mgrwt>
</event>
<event>
 5    1  0.2804411E-003  0.1884888E+03  0.7818608E-02  0.1162510E+00
         11   -1    0    0    0    0  0.00000000000E+00  0.00000000000E+00  0.10003052793E+04  0.10003052793E+04  0.51100000000E-03 0. -1.
          2   -1    0    0  501    0 -0.00000000000E+00 -0.00000000000E+00 -0.11473712294E+03  0.11473712297E+03  0.25500000000E-02 0.  1.
         11    1    1    2    0    0  0.13967030246E+03 -0.76311374320E+02  0.79762682232E+03  0.81335094942E+03  0.51100000000E-03 0. -1.
         22    1    1    2    0    0  0.28500733565E+02 -0.21629166832E+01  0.11105862786E+03  0.11467776090E+03  0.00000000000E+00 0.  1.
          2    1    1    2  501    0 -0.16817103603E+03  0.78474291004E+02 -0.23117293797E+02  0.18701369198E+03  0.25500000000E-02 0.  1.
<mgrwt>
<rscale>  0 0.18557939E+03</rscale>
<asrwt>0</asrwt>
<pdfrwt beam="1">  1       11 0.10000000E+01 0.18848883E+03</pdfrwt>
<pdfrwt beam="2">  1        2 0.17657253E-01 0.18557939E+03</pdfrwt>
<totfact> 0.39150133E+02</totfact>
</mgrwt>
</event>
<event>
 5    1  0.2804411E-003  0.1908078E+03  0.7818608E-02  0.1159081E+00
         11   -1    0    0    0    0  0.00000000000E+00  0.00000000000E+00  0.10002980980E+04  0.10002980980E+04  0.51100000000E-03 0. -1.
          2   -1    0    0  501    0 -0.00000000000E+00 -0.00000000000E+00 -0.30548911596E+03  0.30548911597E+03  0.25500000000E-02 0. -1.
         11    1    1    2    0    0  0.10917617332E+03  0.13658858649E+03  0.90160231933E+03  0.91840221090E+03  0.51100000000E-03 0. -1.
         22    1    1    2    0    0  0.13210079499E+02  0.78471048610E+01  0.59053269069E+02  0.61019438238E+02  0.00000000000E+00 0.  1.
          2    1    1    2  501    0 -0.12238625282E+03 -0.14443569135E+03 -0.26584660633E+03  0.32636556485E+03  0.25500000000E-02 0. -1.
<mgrwt>
<rscale>  0 0.18931472E+03</rscale>
<asrwt>0</asrwt>
<pdfrwt beam="1">  1       11 0.10000000E+01 0.19080778E+03</pdfrwt>
<pdfrwt beam="2">  1        2 0.47012334E-01 0.18931472E+03</pdfrwt>
<totfact> 0.13295574E+02</totfact>
</mgrwt>
</event>
<event>
 5    1  0.2804411E-003  0.1671241E+03  0.7818608E-02  0.1180881E+00
         11   -1    0    0    0    0  0.00000000000E+00  0.00000000000E+00  0.10004156907E+04  0.10004156907E+04  0.51100000000E-03 0.  1.
         -2   -1    0    0    0  501 -0.00000000000E+00 -0.00000000000E+00 -0.27726904587E+02  0.27726904704E+02  0.25500000000E-02 0.  1.
         11    1    1    2    0    0 -0.17318554684E+02 -0.16173033426E+03  0.55225699886E+03  0.57571210352E+03  0.51100000000E-03 0.  1.
         22    1    1    2    0    0  0.40347176839E+01  0.12323960225E+02  0.70864308885E+02  0.72041024535E+02  0.00000000000E+00 0.  1.
         -2    1    1    2    0  501  0.13283837000E+02  0.14940637403E+03  0.34956747839E+03  0.38038946736E+03  0.25500000000E-02 0.  1.
<mgrwt>
<rscale>  0 0.16712409E+03</rscale>
<asrwt>0</asrwt>
<pdfrwt beam="1">  1       11 0.10000000E+01 0.16265495E+03</pdfrwt>
<pdfrwt beam="2">  1       -2 0.42674507E-02 0.16712409E+03</pdfrwt>
<totfact> 0.19080214E+03</totfact>
</mgrwt>
</event>
<event>
 5    1  0.2804411E-003  0.2207755E+03  0.7818608E-02  0.1135539E+00
         11   -1    0    0    0    0  0.00000000000E+00  0.00000000000E+00  0.10000039796E+04  0.10000039796E+04  0.51100000000E-03 0. -1.
          2   -1    0    0  501    0 -0.00000000000E+00 -0.00000000000E+00 -0.83844650440E+02  0.83844650479E+02  0.25500000000E-02 0. -1.
         11    1    1    2    0    0 -0.15196409465E+03 -0.14350176011E+03  0.76710070075E+03  0.79506561132E+03  0.51100000000E-03 0. -1.
         22    1    1    2    0    0 -0.82992990238E+00 -0.11700619128E+02  0.46672770223E+02  0.48124222092E+02  0.00000000000E+00 0. -1.
          2    1    1    2  501    0  0.15279402455E+03  0.15520237923E+03  0.10238585822E+03  0.24065879670E+03  0.25500000000E-02 0. -1.
<mgrwt>
<rscale>  0 0.21779300E+03</rscale>
<asrwt>0</asrwt>
<pdfrwt beam="1">  1       11 0.10000000E+01 0.22077553E+03</pdfrwt>
<pdfrwt beam="2">  1        2 0.12899228E-01 0.21779300E+03</pdfrwt>
<totfact> 0.57098617E+02</totfact>
</mgrwt>
</event>
<event>
 5    1  0.2804411E-003  0.2158013E+03  0.7818608E-02  0.1137053E+00
         11   -1    0    0    0    0  0.00000000000E+00  0.00000000000E+00  0.10003641350E+04  0.10003641350E+04  0.51100000000E-03 0. -1.
          2   -1    0    0  501    0 -0.00000000000E+00 -0.00000000000E+00 -0.10714232110E+04  0.10714232110E+04  0.25500000000E-02 0. -1.
         11    1    1    2    0    0  0.11544677113E+03  0.78332765787E+02  0.78196166827E+03  0.79430978201E+03  0.51100000000E-03 0. -1.
         22    1    1    2    0    0  0.39095096412E+02  0.73875003106E+02  0.19241067919E+03  0.20978039020E+03  0.00000000000E+00 0.  1.
          2    1    1    2  501    0 -0.15454186754E+03 -0.15220776889E+03 -0.10454314235E+04  0.10676971738E+04  0.25500000000E-02 0. -1.
<mgrwt>
<rscale>  0 0.21580129E+03</rscale>
<asrwt>0</asrwt>
<pdfrwt beam="1">  1       11 0.10000000E+01 0.83581952E+02</pdfrwt>
<pdfrwt beam="2">  1        2 0.16489436E+00 0.21580129E+03</pdfrwt>
<totfact> 0.30073204E+01</totfact>
</mgrwt>
</event>
<event>
 5    1  0.2804411E-003  0.5466419E+02  0.7818608E-02  0.1427729E+00
         11   -1    0    0    0    0  0.00000000000E+00  0.00000000000E+00  0.10000974599E+04  0.10000974599E+04  0.51100000000E-03 0. -1.
          2   -1    0    0  501    0 -0.00000000000E+00 -0.00000000000E+00 -0.52824756038E+01  0.52824762193E+01  0.25500000000E-02 0. -1.
         11    1    1    2    0    0  0.25647637291E+02 -0.10390383309E+02  0.80542278469E+02  0.85163489743E+02  0.51100000000E-03 0. -1.
         22    1    1    2    0    0  0.26944798781E+02  0.10316406381E+01  0.83885045576E+02  0.88112356313E+02  0.00000000000E+00 0. -1.
          2    1    1    2  501    0 -0.52592436072E+02  0.93587426708E+01  0.83038766024E+03  0.83210409006E+03  0.25500000000E-02 0. -1.
<mgrwt>
<rscale>  0 0.53418633E+02</rscale>
<asrwt>0</asrwt>
<pdfrwt beam="1">  1       11 0.10000000E+01 0.54664192E+02</pdfrwt>
<pdfrwt beam="2">  1        2 0.81276778E-03 0.53418633E+02</pdfrwt>
<totfact> 0.18454047E+04</totfact>
</mgrwt>
</event>
<event>
 5    1  0.2804411E-003  0.2026440E+03  0.7818608E-02  0.1269572E+00
         11   -1    0    0    0    0  0.00000000000E+00  0.00000000000E+00  0.99998552960E+03  0.99998552960E+03  0.51100000000E-03 0.  1.
          2   -1    0    0  501    0 -0.00000000000E+00 -0.00000000000E+00 -0.91361028021E+02  0.91361028057E+02  0.25500000000E-02 0.  1.
         11    1    1    2    0    0  0.25699412867E+02  0.13482737813E+03  0.12139437050E+03  0.18323611790E+03  0.51100000000E-03 0.  1.
         22    1    1    2    0    0 -0.39776344230E+02 -0.23916056775E+03  0.76229257091E+03  0.79991868237E+03  0.00000000000E+00 0.  1.
          2    1    1    2  501    0  0.14076931363E+02  0.10433318962E+03  0.24937560165E+02  0.10819175739E+03  0.25500000000E-02 0.  1.
<mgrwt>
<rscale>  0 0.10527856E+03</rscale>
<asrwt>0</asrwt>
<pdfrwt beam="1">  1       11 0.10000000E+01 0.20264403E+03</pdfrwt>
<pdfrwt beam="2">  1        2 0.14055339E-01 0.10527856E+03</pdfrwt>
<totfact> 0.49904882E+02</totfact>
</mgrwt>
</event>
<event>
 5    1  0.2804411E-003  0.3949806E+02  0.7818608E-02  0.1585655E+00
         11   -1    0    0    0    0  0.00000000000E+00  0.00000000000E+00  0.10004894025E+04  0.10004894025E+04  0.51100000000E-03 0. -1.
          2   -1    0    0  501    0 -0.00000000000E+00 -0.00000000000E+00 -0.50006720024E+01  0.50006726526E+01  0.25500000000E-02 0. -1.
         11    1    1    2    0    0  0.30066668033E+02  0.97897827874E+01  0.11181808780E+03  0.11620296525E+03  0.51100000000E-03 0. -1.
         22    1    1    2    0    0 -0.31801248856E+02 -0.40897126904E+02  0.27610939719E+03  0.28092755941E+03  0.00000000000E+00 0. -1.
          2    1    1    2  501    0  0.17345808237E+01  0.31107344117E+02  0.60756124551E+03  0.60835955049E+03  0.25500000000E-02 0. -1.
<mgrwt>
<rscale>  0 0.31155668E+02</rscale>
<asrwt>0</asrwt>
<pdfrwt beam="1">  1       11 0.10000000E+01 0.39498062E+02</pdfrwt>
<pdfrwt beam="2">  1        2 0.76971070E-03 0.31155668E+02</pdfrwt>
<totfact> 0.17768980E+04</totfact>
</mgrwt>
</event>
<event>
 5    1  0.2804411E-003  0.2033739E+03  0.7818608E-02  0.1146923E+00
         11   -1    0    0    0    0  0.00000000000E+00  0.00000000000E+00  0.10009325942E+04  0.10009325942E+04  0.51100000000E-03 0. -1.
          2   -1    0    0  501    0 -0.00000000000E+00 -0.00000000000E+00 -0.12109321776E+04  0.12109321776E+04  0.25500000000E-02 0. -1.
         11    1    1    2    0    0 -0.12737914465E+03  0.40490298706E+02  0.24272221331E+03  0.27709020845E+03  0.51100000000E-03 0. -1.
         22    1    1    2    0    0  0.38475703839E+02  0.14363231671E+03  0.72466646852E+03  0.73976490373E+03  0.00000000000E+00 0. -1.
          2    1    1    2  501    0  0.88903440815E+02 -0.18412261541E+03 -0.11773882653E+04  0.11950096596E+04  0.25500000000E-02 0. -1.
<mgrwt>
<rscale>  0 0.20337387E+03</rscale>
<asrwt>0</asrwt>
<pdfrwt beam="1">  1       11 0.10000000E+01 0.13365968E+03</pdfrwt>
<pdfrwt beam="2">  1        2 0.18647099E+00 0.20337387E+03</pdfrwt>
<totfact> 0.25060831E+01</totfact>
</mgrwt>
</event>
<event>
 5    1  0.2804411E-003  0.2522740E+03  0.7818608E-02  0.1390683E+00
         11   -1    0    0    0    0  0.00000000000E+00  0.00000000000E+00  0.10006393924E+04  0.10006393924E+04  0.51100000000E-03 0. -1.
          2   -1    0    0  501    0 -0.00000000000E+00 -0.00000000000E+00 -0.11623665740E+03  0.11623665743E+03  0.25500000000E-02 0. -1.
         11    1    1    2    0    0 -0.24713850345E+03 -0.53665898064E+02  0.11711738478E+03  0.27870046702E+03  0.51100000000E-03 0. -1.
         22    1    1    2    0    0 -0.20837380423E+01  0.14964064998E+02 -0.11872383246E+02  0.19215064128E+02  0.00000000000E+00 0. -1.
          2    1    1    2  501    0  0.24922224149E+03  0.38701833065E+02  0.77915773351E+03  0.81896051872E+03  0.25500000000E-02 0. -1.
<mgrwt>
<rscale>  0 0.61737081E+02</rscale>
<asrwt>0</asrwt>
<pdfrwt beam="1">  1       11 0.10000000E+01 0.25227403E+03</pdfrwt>
<pdfrwt beam="2">  1        2 0.17893996E-01 0.61737081E+02</pdfrwt>
<totfact> 0.36909436E+02</totfact>
</mgrwt>
</event>
<event>
 5    1  0.2804411E-003  0.1960736E+03  0.7818608E-02  0.1347364E+00
         11   -1    0    0    0    0  0.00000000000E+00  0.00000000000E+00  0.99982629985E+03  0.99982629985E+03  0.51100000000E-03 0.  1.
          2   -1    0    0  501    0 -0.00000000000E+00 -0.00000000000E+00 -0.97773492610E+02  0.97773492643E+02  0.25500000000E-02 0.  1.
         11    1    1    2    0    0 -0.54524251624E+01 -0.19303364417E+03  0.80217589761E+03  0.82509265385E+03  0.51100000000E-03 0.  1.
         22    1    1    2    0    0 -0.14776333049E+02 -0.23595462276E+02  0.36475139823E+02  0.45885963905E+02  0.00000000000E+00 0.  1.
          2    1    1    2  501    0  0.20228758211E+02  0.21662910645E+03  0.63401769806E+02  0.22662117474E+03  0.25500000000E-02 0.  1.
<mgrwt>
<rscale>  0 0.73883417E+02</rscale>
<asrwt>0</asrwt>
<pdfrwt beam="1">  1       11 0.10000000E+01 0.19607356E+03</pdfrwt>
<pdfrwt beam="2">  1        2 0.15039463E-01 0.73883417E+02</pdfrwt>
<totfact> 0.45337418E+02</totfact>
</mgrwt>
</event>
<event>
 5    1  0.2804411E-003  0.1104405E+03  0.7818608E-02  0.1264530E+00
         11   -1    0    0    0    0  0.00000000000E+00  0.00000000000E+00  0.10000157986E+04  0.10000157986E+04  0.51100000000E-03 0. -1.
          2   -1    0    0  501    0 -0.00000000000E+00 -0.00000000000E+00 -0.13269518060E+02  0.13269518305E+02  0.25500000000E-02 0. -1.
         11    1    1    2    0    0 -0.16720654615E+02 -0.93219557908E+02  0.56900861976E+03  0.57683643750E+03  0.51100000000E-03 0. -1.
         22    1    1    2    0    0 -0.11259878753E+02 -0.10977637892E+02  0.91300532769E+02  0.92644917222E+02  0.00000000000E+00 0. -1.
          2    1    1    2  501    0  0.27980533368E+02  0.10419719580E+03  0.32643712797E+03  0.34380396214E+03  0.25500000000E-02 0. -1.
<mgrwt>
<rscale>  0 0.10788867E+03</rscale>
<asrwt>0</asrwt>
<pdfrwt beam="1">  1       11 0.10000000E+01 0.11044052E+03</pdfrwt>
<pdfrwt beam="2">  1        2 0.20414965E-02 0.10788867E+03</pdfrwt>
<totfact> 0.59119473E+03</totfact>
</mgrwt>
</event>
<event>
 5    1  0.2804411E-003  0.4335814E+02  0.7818608E-02  0.1492620E+00
         11   -1    0    0    0    0  0.00000000000E+00  0.00000000000E+00  0.10001887114E+04  0.10001887114E+04  0.51100000000E-03 0. -1.
         -2   -1    0    0    0  501 -0.00000000000E+00 -0.00000000000E+00 -0.41597377047E+01  0.41597384863E+01  0.25500000000E-02 0. -1.
         11    1    1    2    0    0 -0.39136803788E+01 -0.29061452572E+02  0.81154435213E+02  0.86289786618E+02  0.51100000000E-03 0. -1.
         22    1    1    2    0    0 -0.80540549066E+01 -0.11405775323E+02  0.44000582343E+02  0.46162872069E+02  0.00000000000E+00 0. -1.
         -2    1    1    2    0  501  0.11967735285E+02  0.40467227895E+02  0.87087395610E+03  0.87189579116E+03  0.25500000000E-02 0. -1.
<mgrwt>
<rscale>  0 0.42199801E+02</rscale>
<asrwt>0</asrwt>
<pdfrwt beam="1">  1       11 0.10000000E+01 0.43358141E+02</pdfrwt>
<pdfrwt beam="2">  1       -2 0.64008046E-03 0.42199801E+02</pdfrwt>
<totfact> 0.23459229E+04</totfact>
</mgrwt>
</event>
<event>
 5    1  0.2804411E-003  0.6880562E+03  0.7818608E-02  0.9769246E-01
         11   -1    0    0    0    0  0.00000000000E+00  0.00000000000E+00  0.10002013595E+04  0.10002013595E+04  0.51100000000E-03 0. -1.
          2   -1    0    0  501    0 -0.00000000000E+00 -0.00000000000E+00 -0.46235437198E+03  0.46235437199E+03  0.25500000000E-02 0. -1.
         11    1    1    2    0    0 -0.25092952333E+03  0.48037594905E+03  0.20442625690E+03  0.57923809665E+03  0.51100000000E-03 0. -1.
         22    1    1    2    0    0 -0.12347406322E+03  0.75726725592E+02  0.32312392582E+02  0.14840644181E+03  0.00000000000E+00 0.  1.
          2    1    1    2  501    0  0.37440358655E+03 -0.55610267464E+03  0.30110833799E+03  0.73491119299E+03  0.25500000000E-02 0. -1.
<mgrwt>
<rscale>  0 0.67039409E+03</rscale>
<asrwt>0</asrwt>
<pdfrwt beam="1">  1       11 0.10000000E+01 0.68805624E+03</pdfrwt>
<pdfrwt beam="2">  1        2 0.71145763E-01 0.67039409E+03</pdfrwt>
<totfact> 0.83548511E+01</totfact>
</mgrwt>
</event>
<event>
 5    1  0.2804411E-003  0.1983910E+03  0.7818608E-02  0.1153874E+00
         11   -1    0    0    0    0  0.00000000000E+00  0.00000000000E+00  0.10002464189E+04  0.10002464189E+04  0.51100000000E-03 0. -1.
          2   -1    0    0  501    0 -0.00000000000E+00 -0.00000000000E+00 -0.39080563673E+02  0.39080563757E+02  0.25500000000E-02 0. -1.
         11    1    1    2    0    0 -0.51041411042E+02  0.17970401810E+03  0.48754868885E+03  0.52211347785E+03  0.51100000000E-03 0. -1.
         22    1    1    2    0    0  0.31394597577E+01  0.95027849875E+01  0.47230500897E+02  0.48279181280E+02  0.00000000000E+00 0.  1.
          2    1    1    2  501    0  0.47901951285E+02 -0.18920680308E+03  0.42638666551E+03  0.46893432355E+03  0.25500000000E-02 0. -1.
<mgrwt>
<rscale>  0 0.19517636E+03</rscale>
<asrwt>0</asrwt>
<pdfrwt beam="1">  1       11 0.10000000E+01 0.19839104E+03</pdfrwt>
<pdfrwt beam="2">  1        2 0.60138758E-02 0.19517636E+03</pdfrwt>
<totfact> 0.14806674E+03</totfact>
</mgrwt>
</event>
<event>
 5    1  0.2804411E-003  0.1631961E+03  0.7818608E-02  0.1186462E+00
         11   -1    0    0    0    0  0.00000000000E+00  0.00000000000E+00  0.10003461480E+04  0.10003461480E+04  0.51100000000E-03 0. -1.
         -2   -1    0    0    0  501 -0.00000000000E+00 -0.00000000000E+00 -0.56740649293E+02  0.56740649350E+02  0.25500000000E-02 0.  1.
         11    1    1    2    0    0  0.14562806011E+03  0.35594576156E+02  0.81743461650E+03  0.83106790216E+03  0.51100000000E-03 0. -1.
         22    1    1    2    0    0  0.11961743909E+02  0.19306439502E+01  0.41494328838E+02  0.43227190854E+02  0.00000000000E+00 0. -1.
         -2    1    1    2    0  501 -0.15758980402E+03 -0.37525220106E+02  0.84676553354E+02  0.18279170432E+03  0.25500000000E-02 0.  1.
<mgrwt>
<rscale>  0 0.16199595E+03</rscale>
<asrwt>0</asrwt>
<pdfrwt beam="1">  1       11 0.10000000E+01 0.16319613E+03</pdfrwt>
<pdfrwt beam="2">  1       -2 0.87323521E-02 0.16199595E+03</pdfrwt>
<totfact> 0.63811152E+02</totfact>
</mgrwt>
</event>
<event>
 5    1  0.2804411E-003  0.3290518E+03  0.7818608E-02  0.1531613E+00
         11   -1    0    0    0    0  0.00000000000E+00  0.00000000000E+00  0.99962620453E+03  0.99962620453E+03  0.51100000000E-03 0.  1.
          2   -1    0    0  501    0 -0.00000000000E+00 -0.00000000000E+00 -0.11427024743E+04  0.11427024743E+04  0.25500000000E-02 0.  1.
         11    1    1    2    0    0 -0.23442178954E+03 -0.20842711152E+03  0.46419865610E+03  0.56024622137E+03  0.51100000000E-03 0.  1.
         22    1    1    2    0    0  0.25352231661E+03  0.24010321710E+03  0.42449277915E+03  0.54965192570E+03  0.00000000000E+00 0.  1.
          2    1    1    2  501    0 -0.19100527066E+02 -0.31676105575E+02 -0.10317677050E+04  0.10324305317E+04  0.25500000000E-02 0.  1.
<mgrwt>
<rscale>  0 0.36989266E+02</rscale>
<asrwt>0</asrwt>
<pdfrwt beam="1">  1       11 0.10000000E+01 0.32905181E+03</pdfrwt>
<pdfrwt beam="2">  1        2 0.17573466E+00 0.36989266E+02</pdfrwt>
<totfact> 0.30434560E+01</totfact>
</mgrwt>
</event>
<event>
 5    1  0.2804411E-003  0.8284410E+02  0.7818608E-02  0.1334344E+00
         11   -1    0    0    0    0  0.00000000000E+00  0.00000000000E+00  0.10001063566E+04  0.10001063566E+04  0.51100000000E-03 0. -1.
          2   -1    0    0  501    0 -0.00000000000E+00 -0.00000000000E+00 -0.15937921772E+02  0.15937921976E+02  0.25500000000E-02 0. -1.
         11    1    1    2    0    0  0.40537785931E+02 -0.37216101450E+02  0.75393974723E+02  0.93341318397E+02  0.51100000000E-03 0. -1.
         22    1    1    2    0    0  0.34565258036E+01 -0.27391301099E+02  0.31228237509E+02  0.41682535485E+02  0.00000000000E+00 0. -1.
          2    1    1    2  501    0 -0.43994311734E+02  0.64607402549E+02  0.87754622264E+03  0.88102042473E+03  0.25500000000E-02 0. -1.
<mgrwt>
<rscale>  0 0.78164032E+02</rscale>
<asrwt>0</asrwt>
<pdfrwt beam="1">  1       11 0.10000000E+01 0.82844100E+02</pdfrwt>
<pdfrwt beam="2">  1        2 0.24522487E-02 0.78164032E+02</pdfrwt>
<totfact> 0.44394036E+03</totfact>
</mgrwt>
</event>
<event>
 5    1  0.2804411E-003  0.4443977E+03  0.7818608E-02  0.1029406E+00
         11   -1    0    0    0    0  0.00000000000E+00  0.00000000000E+00  0.10005360093E+04  0.10005360093E+04  0.51100000000E-03 0. -1.
          2   -1    0    0  501    0 -0.00000000000E+00 -0.00000000000E+00 -0.10368531058E+04  0.10368531058E+04  0.25500000000E-02 0. -1.
         11    1    1    2    0    0  0.48607831267E+03 -0.12798641482E+03  0.70452976244E+03  0.86545643137E+03  0.51100000000E-03 0. -1.
         22    1    1    2    0    0 -0.62372222522E+02  0.70962263315E+01  0.15848484748E+03  0.17046435830E+03  0.00000000000E+00 0. -1.
          2    1    1    2  501    0 -0.42370609015E+03  0.12089018849E+03 -0.89933170645E+03  0.10014683254E+04  0.25500000000E-02 0. -1.
<mgrwt>
<rscale>  0 0.44439766E+03</rscale>
<asrwt>0</asrwt>
<pdfrwt beam="1">  1       11 0.10000000E+01 0.62774601E+02</pdfrwt>
<pdfrwt beam="2">  1        2 0.15960136E+00 0.44439766E+03</pdfrwt>
<totfact> 0.30416382E+01</totfact>
</mgrwt>
</event>
<event>
 5    1  0.2804411E-003  0.6266241E+02  0.7818608E-02  0.1386987E+00
         11   -1    0    0    0    0  0.00000000000E+00  0.00000000000E+00  0.10004659894E+04  0.10004659894E+04  0.51100000000E-03 0. -1.
          2   -1    0    0  501    0 -0.00000000000E+00 -0.00000000000E+00 -0.82224260527E+01  0.82224264481E+01  0.25500000000E-02 0. -1.
         11    1    1    2    0    0 -0.42251721049E+02  0.50779444191E+02  0.34519284516E+03  0.35145676866E+03  0.51100000000E-03 0. -1.
         22    1    1    2    0    0 -0.24870335646E+02 -0.40200020215E+02  0.26086010821E+03  0.26510860279E+03  0.00000000000E+00 0. -1.
          2    1    1    2  501    0  0.67122056696E+02 -0.10579423976E+02  0.38619060999E+03  0.39212304441E+03  0.25500000000E-02 0. -1.
<mgrwt>
<rscale>  0 0.62662407E+02</rscale>
<asrwt>0</asrwt>
<pdfrwt beam="1">  1       11 0.10000000E+01 0.47271294E+02</pdfrwt>
<pdfrwt beam="2">  1        2 0.12655781E-02 0.62662407E+02</pdfrwt>
<totfact> 0.10444575E+04</totfact>
</mgrwt>
</event>
<event>
 5    1  0.2804411E-003  0.1677873E+03  0.7818608E-02  0.1180175E+00
         11   -1    0    0    0    0  0.00000000000E+00  0.00000000000E+00  0.10001330240E+04  0.10001330240E+04  0.51100000000E-03 0. -1.
          2   -1    0    0  501    0 -0.00000000000E+00 -0.00000000000E+00 -0.61915374401E+02  0.61915374454E+02  0.25500000000E-02 0. -1.
         11    1    1    2    0    0 -0.12080655138E+02  0.51447284189E+02  0.41017346214E+02  0.66896845738E+02  0.51100000000E-03 0. -1.
         22    1    1    2    0    0  0.17740356984E+03 -0.49042281295E+02  0.75487878626E+03  0.77699366400E+03  0.00000000000E+00 0. -1.
          2    1    1    2  501    0 -0.16532291470E+03 -0.24050028942E+01  0.14232151712E+03  0.21815788871E+03  0.25500000000E-02 0. -1.
<mgrwt>
<rscale>  0 0.16778729E+03</rscale>
<asrwt>0</asrwt>
<pdfrwt beam="1">  1       11 0.10000000E+01 0.52846647E+02</pdfrwt>
<pdfrwt beam="2">  1        2 0.95267091E-02 0.16778729E+03</pdfrwt>
<totfact> 0.81718862E+02</totfact>
</mgrwt>
</event>
<event>
 5    1  0.2804411E-003  0.4748153E+02  0.7818608E-02  0.1459419E+00
         11   -1    0    0    0    0  0.00000000000E+00  0.00000000000E+00  0.10004288247E+04  0.10004288247E+04  0.51100000000E-03 0.  1.
          2   -1    0    0  501    0 -0.00000000000E+00 -0.00000000000E+00 -0.10550968008E+02  0.10550968316E+02  0.25500000000E-02 0.  1.
         11    1    1    2    0    0 -0.68509112534E+01 -0.10684141913E+02  0.23400308554E+02  0.26620674562E+02  0.51100000000E-03 0.  1.
         22    1    1    2    0    0  0.24643338336E+02 -0.40126500693E+02  0.59942183545E+02  0.76226606578E+02  0.00000000000E+00 0.  1.
          2    1    1    2  501    0 -0.17792427083E+02  0.50810642606E+02  0.90653536456E+03  0.90813251184E+03  0.25500000000E-02 0.  1.
<mgrwt>
<rscale>  0 0.47481528E+02</rscale>
<asrwt>0</asrwt>
<pdfrwt beam="1">  1       11 0.10000000E+01 0.12691967E+02</pdfrwt>
<pdfrwt beam="2">  1        2 0.16239219E-02 0.47481528E+02</pdfrwt>
<totfact> 0.71521861E+03</totfact>
</mgrwt>
</event>
<event>
 5    1  0.2804411E-003  0.1405846E+03  0.7818608E-02  0.1441622E+00
         11   -1    0    0    0    0  0.00000000000E+00  0.00000000000E+00  0.10003147087E+04  0.10003147087E+04  0.51100000000E-03 0.  1.
         -2   -1    0    0    0  501 -0.00000000000E+00 -0.00000000000E+00 -0.15917130782E+03  0.15917130784E+03  0.25500000000E-02 0.  1.
         11    1    1    2    0    0  0.43264825503E+02 -0.95787651073E+02  0.13318102415E+03  0.16965937763E+03  0.51100000000E-03 0.  1.
         22    1    1    2    0    0 -0.76090270588E+02  0.13442173509E+03  0.83702830444E+03  0.85116115664E+03  0.00000000000E+00 0.  1.
         -2    1    1    2    0  501  0.32825445085E+02 -0.38634084013E+02 -0.12906592767E+03  0.13866548231E+03  0.25500000000E-02 0.  1.
<mgrwt>
<rscale>  0 0.50696176E+02</rscale>
<asrwt>0</asrwt>
<pdfrwt beam="1">  1       11 0.10000000E+01 0.14058464E+03</pdfrwt>
<pdfrwt beam="2">  1       -2 0.24495599E-01 0.50696176E+02</pdfrwt>
<totfact> 0.11308858E+02</totfact>
</mgrwt>
</event>
<event>
 5    1  0.2804411E-003  0.1306924E+03  0.7818608E-02  0.1226432E+00
         11   -1    0    0    0    0  0.00000000000E+00  0.00000000000E+00  0.99986987255E+03  0.99986987255E+03  0.51100000000E-03 0.  1.
          2   -1    0    0  501    0 -0.00000000000E+00 -0.00000000000E+00 -0.24270203112E+02  0.24270203246E+02  0.25500000000E-02 0.  1.
         11    1    1    2    0    0 -0.28729849830E+02  0.14903340709E+02  0.67122648021E+02  0.74518210614E+02  0.51100000000E-03 0.  1.
         22    1    1    2    0    0 -0.62788973528E+02 -0.11185826474E+03  0.60010366726E+03  0.61366044197E+03  0.00000000000E+00 0.  1.
          2    1    1    2  501    0  0.91518823357E+02  0.96954924031E+02  0.30837335415E+03  0.33596142320E+03  0.25500000000E-02 0.  1.
<mgrwt>
<rscale>  0 0.13069244E+03</rscale>
<asrwt>0</asrwt>
<pdfrwt beam="1">  1       11 0.10000000E+01 0.32365335E+02</pdfrwt>
<pdfrwt beam="2">  1        2 0.37333914E-02 0.13069244E+03</pdfrwt>
<totfact> 0.26836572E+03</totfact>
</mgrwt>
</event>
<event>
 5    1  0.2804411E-003  0.2248438E+03  0.7818608E-02  0.1133698E+00
         11   -1    0    0    0    0  0.00000000000E+00  0.00000000000E+00  0.99981549403E+03  0.99981549403E+03  0.51100000000E-03 0.  1.
          2   -1    0    0  501    0 -0.00000000000E+00 -0.00000000000E+00 -0.75626597971E+02  0.75626598014E+02  0.25500000000E-02 0.  1.
         11    1    1    2    0    0  0.67011765301E+02  0.18168398820E+03  0.63194555011E+03  0.66094994255E+03  0.51100000000E-03 0.  1.
         22    1    1    2    0    0 -0.13566485486E+01  0.28550814315E+02  0.14909996389E+03  0.15181498189E+03  0.00000000000E+00 0.  1.
          2    1    1    2  501    0 -0.65655116753E+02 -0.21023480252E+03  0.14314338206E+03  0.26267716760E+03  0.25500000000E-02 0.  1.
<mgrwt>
<rscale>  0 0.22024819E+03</rscale>
<asrwt>0</asrwt>
<pdfrwt beam="1">  1       11 0.10000000E+01 0.22484378E+03</pdfrwt>
<pdfrwt beam="2">  1        2 0.11632714E-01 0.22024819E+03</pdfrwt>
<totfact> 0.64770968E+02</totfact>
</mgrwt>
</event>
<event>
 5    1  0.2804411E-003  0.6296603E+02  0.7818608E-02  0.1398014E+00
         11   -1    0    0    0    0  0.00000000000E+00  0.00000000000E+00  0.10004440017E+04  0.10004440017E+04  0.51100000000E-03 0. -1.
          2   -1    0    0  501    0 -0.00000000000E+00 -0.00000000000E+00 -0.81815896685E+01  0.81815900659E+01  0.25500000000E-02 0. -1.
         11    1    1    2    0    0 -0.33982683546E+02  0.70477835643E+01  0.70969055223E+02  0.79000638185E+02  0.51100000000E-03 0. -1.
         22    1    1    2    0    0 -0.25810804039E+02 -0.11468677798E+02  0.60741899307E+02  0.66987360801E+02  0.00000000000E+00 0. -1.
          2    1    1    2  501    0  0.59793487585E+02  0.44208942337E+01  0.86055145751E+03  0.86263759279E+03  0.25500000000E-02 0. -1.
<mgrwt>
<rscale>  0 0.59956697E+02</rscale>
<asrwt>0</asrwt>
<pdfrwt beam="1">  1       11 0.10000000E+01 0.62966025E+02</pdfrwt>
<pdfrwt beam="2">  1        2 0.12592650E-02 0.59956697E+02</pdfrwt>
<totfact> 0.10438998E+04</totfact>
</mgrwt>
</event>
<event>
 5    1  0.2804411E-003  0.4334129E+03  0.7818608E-02  0.1035793E+00
         11   -1    0    0    0    0  0.00000000000E+00  0.00000000000E+00  0.10004249995E+04  0.10004249995E+04  0.51100000000E-03 0. -1.
          2   -1    0    0  501    0 -0.00000000000E+00 -0.00000000000E+00 -0.44881671126E+03  0.44881671127E+03  0.25500000000E-02 0. -1.
         11    1    1    2    0    0 -0.25576507125E+03  0.49583321857E+02  0.51484170653E+03  0.57700629136E+03  0.51100000000E-03 0. -1.
         22    1    1    2    0    0 -0.14101280476E+03  0.99707079607E+02  0.31913693835E+03  0.36286980896E+03  0.00000000000E+00 0. -1.
          2    1    1    2  501    0  0.39677787601E+03 -0.14929040146E+03 -0.28237035661E+03  0.50936561050E+03  0.25500000000E-02 0. -1.
<mgrwt>
<rscale>  0 0.42393432E+03</rscale>
<asrwt>0</asrwt>
<pdfrwt beam="1">  1       11 0.10000000E+01 0.43341286E+03</pdfrwt>
<pdfrwt beam="2">  1        2 0.69078069E-01 0.42393432E+03</pdfrwt>
<totfact> 0.86936906E+01</totfact>
</mgrwt>
</event>
<event>
 5    1  0.2804411E-003  0.1189887E+03  0.7818608E-02  0.1244775E+00
         11   -1    0    0    0    0  0.00000000000E+00  0.00000000000E+00  0.10003572404E+04  0.10003572404E+04  0.51100000000E-03 0.  1.
          2   -1    0    0  501    0 -0.00000000000E+00 -0.00000000000E+00 -0.15901838067E+03  0.15901838069E+03  0.25500000000E-02 0.  1.
         11    1    1    2    0    0 -0.61380458789E+02  0.52902939204E+02  0.31059266506E+03  0.32098922924E+03  0.51100000000E-03 0.  1.
         22    1    1    2    0    0  0.67512108957E+02 -0.16972870446E+03  0.64770073301E+03  0.67296504925E+03  0.00000000000E+00 0.  1.
          2    1    1    2  501    0 -0.61316501686E+01  0.11682576526E+03 -0.11695453831E+03  0.16542134264E+03  0.25500000000E-02 0.  1.
<mgrwt>
<rscale>  0 0.11898869E+03</rscale>
<asrwt>0</asrwt>
<pdfrwt beam="1">  1       11 0.10000000E+01 0.81032597E+02</pdfrwt>
<pdfrwt beam="2">  1        2 0.24473105E-01 0.11898869E+03</pdfrwt>
<totfact> 0.26717461E+02</totfact>
</mgrwt>
</event>
<event>
 5    1  0.2804411E-003  0.8196018E+02  0.7818608E-02  0.1323579E+00
         11   -1    0    0    0    0  0.00000000000E+00  0.00000000000E+00  0.10003641543E+04  0.10003641543E+04  0.51100000000E-03 0.  1.
          2   -1    0    0  501    0 -0.00000000000E+00 -0.00000000000E+00 -0.16261401278E+02  0.16261401478E+02  0.25500000000E-02 0.  1.
         11    1    1    2    0    0 -0.71303988418E+02  0.88199945776E+01  0.20566769265E+03  0.21785603244E+03  0.51100000000E-03 0.  1.
         22    1    1    2    0    0  0.54666773374E+02  0.75144328758E+02  0.37346828073E+03  0.38485540527E+03  0.00000000000E+00 0.  1.
          2    1    1    2  501    0  0.16637215045E+02 -0.83964323336E+02  0.40496677969E+03  0.41391411811E+03  0.25500000000E-02 0.  1.
<mgrwt>
<rscale>  0 0.81960184E+02</rscale>
<asrwt>0</asrwt>
<pdfrwt beam="1">  1       11 0.10000000E+01 0.71847451E+02</pdfrwt>
<pdfrwt beam="2">  1        2 0.25026650E-02 0.81960184E+02</pdfrwt>
<totfact> 0.43460055E+03</totfact>
</mgrwt>
</event>
<event>
 5    1  0.2804411E-003  0.1512018E+03  0.7818608E-02  0.1199004E+00
         11   -1    0    0    0    0  0.00000000000E+00  0.00000000000E+00  0.10003226521E+04  0.10003226521E+04  0.51100000000E-03 0.  1.
         -2   -1    0    0    0  501 -0.00000000000E+00 -0.00000000000E+00 -0.50942357253E+02  0.50942357317E+02  0.25500000000E-02 0.  1.
         11    1    1    2    0    0 -0.61392240510E+02 -0.65488017953E+02  0.46246466610E+03  0.47109580245E+03  0.51100000000E-03 0.  1.
         22    1    1    2    0    0 -0.12512069742E+02 -0.11187806056E+03  0.25671887806E+03  0.28031738204E+03  0.00000000000E+00 0.  1.
         -2    1    1    2    0  501  0.73904310252E+02  0.17736607851E+03  0.23019675070E+03  0.29985182494E+03  0.25500000000E-02 0.  1.
<mgrwt>
<rscale>  0 0.15120178E+03</rscale>
<asrwt>0</asrwt>
<pdfrwt beam="1">  1       11 0.10000000E+01 0.89764624E+02</pdfrwt>
<pdfrwt beam="2">  1       -2 0.78398142E-02 0.15120178E+03</pdfrwt>
<totfact> 0.75103314E+02</totfact>
</mgrwt>
</event>
<event>
 5    1  0.2804411E-003  0.1061143E+03  0.7818608E-02  0.1490770E+00
         11   -1    0    0    0    0  0.00000000000E+00  0.00000000000E+00  0.10004512269E+04  0.10004512269E+04  0.51100000000E-03 0.  1.
          2   -1    0    0  501    0 -0.00000000000E+00 -0.00000000000E+00 -0.54671988600E+03  0.54671988601E+03  0.25500000000E-02 0.  1.
         11    1    1    2    0    0  0.88963572861E+02 -0.10022067462E+03  0.51680209889E+03  0.53389428760E+03  0.51100000000E-03 0.  1.
         22    1    1    2    0    0 -0.58740829316E+02  0.70380063611E+02  0.46982812502E+03  0.47868810873E+03  0.00000000000E+00 0.  1.
          2    1    1    2  501    0 -0.30222743545E+02  0.29840611005E+02 -0.53289888305E+03  0.53458871654E+03  0.25500000000E-02 0.  1.
<mgrwt>
<rscale>  0 0.42472065E+02</rscale>
<asrwt>0</asrwt>
<pdfrwt beam="1">  1       11 0.10000000E+01 0.10611429E+03</pdfrwt>
<pdfrwt beam="2">  1        2 0.84148702E-01 0.42472065E+02</pdfrwt>
<totfact> 0.72403764E+01</totfact>
</mgrwt>
</event>
<event>
 5    1  0.2804411E-003  0.3333208E+02  0.7818608E-02  0.1738704E+00
         11   -1    0    0    0    0  0.00000000000E+00  0.00000000000E+00  0.10000404964E+04  0.10000404964E+04  0.51100000000E-03 0. -1.
          2   -1    0    0  501    0 -0.00000000000E+00 -0.00000000000E+00 -0.32062487271E+01  0.32062497412E+01  0.25500000000E-02 0. -1.
         11    1    1    2    0    0  0.35734164379E+02  0.17946941570E+02  0.17983223729E+03  0.18422447391E+03  0.51100000000E-03 0. -1.
         22    1    1    2    0    0 -0.38417670296E+01 -0.11798876029E+02  0.57387294345E+02  0.58713492501E+02  0.00000000000E+00 0. -1.
          2    1    1    2  501    0 -0.31892397350E+02 -0.61480655417E+01  0.75961471601E+03  0.76030877971E+03  0.25500000000E-02 0. -1.
<mgrwt>
<rscale>  0 0.20337239E+02</rscale>
<asrwt>0</asrwt>
<pdfrwt beam="1">  1       11 0.10000000E+01 0.33332081E+02</pdfrwt>
<pdfrwt beam="2">  1        2 0.49328907E-03 0.20337239E+02</pdfrwt>
<totfact> 0.28714727E+04</totfact>
</mgrwt>
</event>
<event>
 5    1  0.2804411E-003  0.2338135E+03  0.7818608E-02  0.1130113E+00
         11   -1    0    0    0    0  0.00000000000E+00  0.00000000000E+00  0.10003873135E+04  0.10003873135E+04  0.51100000000E-03 0. -1.
          2   -1    0    0  501    0 -0.00000000000E+00 -0.00000000000E+00 -0.84019457379E+03  0.84019457379E+03  0.25500000000E-02 0. -1.
         11    1    1    2    0    0  0.14247110989E+03  0.15349600598E+03  0.85142058057E+03  0.87679874887E+03  0.51100000000E-03 0. -1.
         22    1    1    2    0    0  0.23880331385E+02 -0.17986569651E+01  0.11975764153E+03  0.12212861294E+03  0.00000000000E+00 0.  1.
          2    1    1    2  501    0 -0.16635144128E+03 -0.15169734901E+03 -0.81098548236E+03  0.84165452551E+03  0.25500000000E-02 0. -1.
<mgrwt>
<rscale>  0 0.22513304E+03</rscale>
<asrwt>0</asrwt>
<pdfrwt beam="1">  1       11 0.10000000E+01 0.23381346E+03</pdfrwt>
<pdfrwt beam="2">  1        2 0.12931076E+00 0.22513304E+03</pdfrwt>
<totfact> 0.41881026E+01</totfact>
</mgrwt>
</event>
<event>
 5    1  0.2804411E-003  0.2581063E+03  0.7818608E-02  0.1111476E+00
         11   -1    0    0    0    0  0.00000000000E+00  0.00000000000E+00  0.99995481927E+03  0.99995481928E+03  0.51100000000E-03 0. -1.
          2   -1    0    0  501    0 -0.00000000000E+00 -0.00000000000E+00 -0.55723181340E+03  0.55723181341E+03  0.25500000000E-02 0. -1.
         11    1    1    2    0    0  0.10994998249E+03  0.22048958309E+03  0.91184694595E+03  0.94454725014E+03  0.51100000000E-03 0. -1.
         22    1    1    2    0    0  0.11641207084E+02  0.12809296169E+01  0.41333732552E+02  0.42960865095E+02  0.00000000000E+00 0.  1.
          2    1    1    2  501    0 -0.12159118958E+03 -0.22177051270E+03 -0.51045767263E+03  0.56967851745E+03  0.25500000000E-02 0. -1.
<mgrwt>
<rscale>  0 0.25291615E+03</rscale>
<asrwt>0</asrwt>
<pdfrwt beam="1">  1       11 0.10000000E+01 0.25810632E+03</pdfrwt>
<pdfrwt beam="2">  1        2 0.85724096E-01 0.25291615E+03</pdfrwt>
<totfact> 0.68650346E+01</totfact>
</mgrwt>
</event>
<event>
 5    1  0.2804411E-003  0.1629725E+03  0.7818608E-02  0.1185381E+00
         11   -1    0    0    0    0  0.00000000000E+00  0.00000000000E+00  0.99998945259E+03  0.99998945259E+03  0.51100000000E-03 0. -1.
         -2   -1    0    0    0  501 -0.00000000000E+00 -0.00000000000E+00 -0.48502188439E+02  0.48502188506E+02  0.25500000000E-02 0.  1.
         11    1    1    2    0    0  0.16093709207E+03  0.12166574011E+02  0.68833208820E+03  0.70700059178E+03  0.51100000000E-03 0. -1.
         22    1    1    2    0    0  0.22273703791E+01 -0.26831372482E+02  0.12295077719E+03  0.12586412253E+03  0.00000000000E+00 0.  1.
         -2    1    1    2    0  501 -0.16316446245E+03  0.14664798471E+02  0.14020439876E+03  0.21562692679E+03  0.25500000000E-02 0.  1.
<mgrwt>
<rscale>  0 0.16297247E+03</rscale>
<asrwt>0</asrwt>
<pdfrwt beam="1">  1       11 0.10000000E+01 0.26923665E+02</pdfrwt>
<pdfrwt beam="2">  1       -2 0.74617962E-02 0.16297247E+03</pdfrwt>
<totfact> 0.81480927E+02</totfact>
</mgrwt>
</event>
<event>
 5    1  0.2804411E-003  0.1313795E+03  0.7818608E-02  0.1239162E+00
         11   -1    0    0    0    0  0.00000000000E+00  0.00000000000E+00  0.10001386234E+04  0.10001386234E+04  0.51100000000E-03 0. -1.
         -2   -1    0    0    0  501 -0.00000000000E+00 -0.00000000000E+00 -0.22050196008E+02  0.22050196156E+02  0.25500000000E-02 0.  1.
         11    1    1    2    0    0  0.27829602483E+02  0.10052556662E+03  0.60418635052E+03  0.61312398622E+03  0.51100000000E-03 0. -1.
         22    1    1    2    0    0  0.25220868745E+02  0.97990588483E+01  0.16282498705E+03  0.16505783890E+03  0.00000000000E+00 0. -1.
         -2    1    1    2    0  501 -0.53050471229E+02 -0.11032462547E+03  0.21107708984E+03  0.24400699445E+03  0.25500000000E-02 0.  1.
<mgrwt>
<rscale>  0 0.12241681E+03</rscale>
<asrwt>0</asrwt>
<pdfrwt beam="1">  1       11 0.10000000E+01 0.13137945E+03</pdfrwt>
<pdfrwt beam="2">  1       -2 0.33928080E-02 0.12241681E+03</pdfrwt>
<totfact> 0.26028218E+03</totfact>
</mgrwt>
</event>
<event>
 5    1  0.2804411E-003  0.3407724E+03  0.7818608E-02  0.1081556E+00
         11   -1    0    0    0    0  0.00000000000E+00  0.00000000000E+00  0.10004394128E+04  0.10004394128E+04  0.51100000000E-03 0. -1.
          2   -1    0    0  501    0 -0.00000000000E+00 -0.00000000000E+00 -0.19958388285E+04  0.19958388285E+04  0.25500000000E-02 0.  1.
         11    1    1    2    0    0 -0.13840139876E+03 -0.59286632187E+02  0.51972701965E+03  0.54109705866E+03  0.51100000000E-03 0. -1.
         22    1    1    2    0    0 -0.16862457240E+03  0.76158446030E+02  0.43932055307E+03  0.47669372103E+03  0.00000000000E+00 0. -1.
          2    1    1    2  501    0  0.30702597117E+03 -0.16871813844E+02 -0.19544469885E+04  0.19784874616E+04  0.25500000000E-02 0.  1.
<mgrwt>
<rscale>  0 0.30748920E+03</rscale>
<asrwt>0</asrwt>
<pdfrwt beam="1">  1       11 0.10000000E+01 0.34077239E+03</pdfrwt>
<pdfrwt beam="2">  1        2 0.30718704E+00 0.30748920E+03</pdfrwt>
<totfact> 0.92382659E+00</totfact>
</mgrwt>
</event>
<event>
 5    1  0.2804411E-003  0.3182389E+03  0.7818608E-02  0.1090994E+00
         11   -1    0    0    0    0  0.00000000000E+00  0.00000000000E+00  0.10004933572E+04  0.10004933572E+04  0.51100000000E-03 0. -1.
          2   -1    0    0  501    0 -0.00000000000E+00 -0.00000000000E+00 -0.10666489038E+03  0.10666489041E+03  0.25500000000E-02 0. -1.
         11    1    1    2    0    0  0.15953667660E+02  0.13504034189E+03  0.16537661552E+03  0.21410240169E+03  0.51100000000E-03 0. -1.
         22    1    1    2    0    0  0.46616531502E+02  0.14686720651E+03  0.50483754599E+03  0.52782954180E+03  0.00000000000E+00 0.  1.
          2    1    1    2  501    0 -0.62570199162E+02 -0.28190754840E+03  0.22361430529E+03  0.36522630410E+03  0.25500000000E-02 0. -1.
<mgrwt>
<rscale>  0 0.28876789E+03</rscale>
<asrwt>0</asrwt>
<pdfrwt beam="1">  1       11 0.10000000E+01 0.31823888E+03</pdfrwt>
<pdfrwt beam="2">  1        2 0.16418079E-01 0.28876789E+03</pdfrwt>
<totfact> 0.43247255E+02</totfact>
</mgrwt>
</event>
<event>
 5    1  0.2804411E-003  0.2119267E+03  0.7818608E-02  0.1159875E+00
         11   -1    0    0    0    0  0.00000000000E+00  0.00000000000E+00  0.10000116576E+04  0.10000116576E+04  0.51100000000E-03 0. -1.
         -2   -1    0    0    0  501 -0.00000000000E+00 -0.00000000000E+00 -0.21014145216E+03  0.21014145218E+03  0.25500000000E-02 0.  1.
         11    1    1    2    0    0  0.50357114330E+02  0.10915391737E+03  0.52682638319E+03  0.54036696296E+03  0.51100000000E-03 0. -1.
         22    1    1    2    0    0  0.90215803110E+02  0.16342845818E+02  0.41668265849E+03  0.42665022867E+03  0.00000000000E+00 0. -1.
         -2    1    1    2    0  501 -0.14057291744E+03 -0.12549676319E+03 -0.15363883623E+03  0.24313591815E+03  0.25500000000E-02 0.  1.
<mgrwt>
<rscale>  0 0.18844146E+03</rscale>
<asrwt>0</asrwt>
<pdfrwt beam="1">  1       11 0.10000000E+01 0.21192673E+03</pdfrwt>
<pdfrwt beam="2">  1       -2 0.32329830E-01 0.18844146E+03</pdfrwt>
<totfact> 0.71585037E+01</totfact>
</mgrwt>
</event>
<event>
 5    1  0.2804411E-003  0.2332912E+03  0.7818608E-02  0.1126988E+00
         11   -1    0    0    0    0  0.00000000000E+00  0.00000000000E+00  0.10003118413E+04  0.10003118413E+04  0.51100000000E-03 0. -1.
          2   -1    0    0  501    0 -0.00000000000E+00 -0.00000000000E+00 -0.94020697349E+02  0.94020697384E+02  0.25500000000E-02 0. -1.
         11    1    1    2    0    0  0.20254178676E+03  0.50632117352E+02  0.74797842888E+03  0.77656842375E+03  0.51100000000E-03 0. -1.
         22    1    1    2    0    0  0.22800498455E+02 -0.71150588160E+01  0.66351944147E+02  0.70519977906E+02  0.00000000000E+00 0. -1.
          2    1    1    2  501    0 -0.22534228522E+03 -0.43517058536E+02  0.91960770898E+02  0.24724413700E+03  0.25500000000E-02 0. -1.
<mgrwt>
<rscale>  0 0.22950573E+03</rscale>
<asrwt>0</asrwt>
<pdfrwt beam="1">  1       11 0.10000000E+01 0.23329124E+03</pdfrwt>
<pdfrwt beam="2">  1        2 0.14469233E-01 0.22950573E+03</pdfrwt>
<totfact> 0.49851321E+02</totfact>
</mgrwt>
</event>
<event>
 5    1  0.2804411E-003  0.1146363E+03  0.7818608E-02  0.1470606E+00
         11   -1    0    0    0    0  0.00000000000E+00  0.00000000000E+00  0.10002865477E+04  0.10002865477E+04  0.51100000000E-03 0. -1.
          2   -1    0    0  501    0 -0.00000000000E+00 -0.00000000000E+00 -0.53019628838E+02  0.53019628899E+02  0.25500000000E-02 0. -1.
         11    1    1    2    0    0 -0.57321611811E+02  0.94798530184E+02  0.24037991535E+02  0.11335939989E+03  0.51100000000E-03 0. -1.
         22    1    1    2    0    0 -0.16812392097E+02 -0.68171558753E+01  0.12622385615E+02  0.22101012666E+02  0.00000000000E+00 0. -1.
          2    1    1    2  501    0  0.74134003908E+02 -0.87981374309E+02  0.91060654173E+03  0.91784576406E+03  0.25500000000E-02 0. -1.
<mgrwt>
<rscale>  0 0.45603998E+02</rscale>
<asrwt>0</asrwt>
<pdfrwt beam="1">  1       11 0.10000000E+01 0.11463632E+03</pdfrwt>
<pdfrwt beam="2">  1        2 0.81592031E-02 0.45603998E+02</pdfrwt>
<totfact> 0.90256108E+02</totfact>
</mgrwt>
</event>
<event>
 5    1  0.2804411E-003  0.3118182E+03  0.7818608E-02  0.1081996E+00
         11   -1    0    0    0    0  0.00000000000E+00  0.00000000000E+00  0.10004342297E+04  0.10004342297E+04  0.51100000000E-03 0. -1.
          2   -1    0    0  501    0 -0.00000000000E+00 -0.00000000000E+00 -0.17475892491E+03  0.17475892493E+03  0.25500000000E-02 0. -1.
         11    1    1    2    0    0  0.24773986259E+03 -0.10965889530E+03  0.71795909079E+03  0.76737563741E+03  0.51100000000E-03 0. -1.
         22    1    1    2    0    0  0.23671607601E+02 -0.32918680708E+02  0.92340502758E+02  0.10085015119E+03  0.00000000000E+00 0. -1.
          2    1    1    2  501    0 -0.27141147019E+03  0.14257757601E+03  0.15375711284E+02  0.30696736608E+03  0.25500000000E-02 0. -1.
<mgrwt>
<rscale>  0 0.30658205E+03</rscale>
<asrwt>0</asrwt>
<pdfrwt beam="1">  1       11 0.10000000E+01 0.31181820E+03</pdfrwt>
<pdfrwt beam="2">  1        2 0.26897662E-01 0.30658205E+03</pdfrwt>
<totfact> 0.24556652E+02</totfact>
</mgrwt>
</event>
<event>
 5    1  0.2804411E-003  0.3150666E+02  0.7818608E-02  0.1592898E+00
         11   -1    0    0    0    0  0.00000000000E+00  0.00000000000E+00  0.10000743802E+04  0.10000743802E+04  0.51100000000E-03 0. -1.
          2   -1    0    0  501    0 -0.00000000000E+00 -0.00000000000E+00 -0.28628248473E+01  0.28628259829E+01  0.25500000000E-02 0. -1.
         11    1    1    2    0    0 -0.39024528216E+01 -0.11280041565E+02  0.26901909677E+02  0.29430956836E+02  0.51100000000E-03 0. -1.
         22    1    1    2    0    0 -0.11879938165E+02 -0.14789743399E+02  0.65712617160E+02  0.68396034203E+02  0.00000000000E+00 0.  1.
          2    1    1    2  501    0  0.15782390987E+02  0.26069784965E+02  0.90459702856E+03  0.90511021519E+03  0.25500000000E-02 0. -1.
<mgrwt>
<rscale>  0 0.30474868E+02</rscale>
<asrwt>0</asrwt>
<pdfrwt beam="1">  1       11 0.10000000E+01 0.31506660E+02</pdfrwt>
<pdfrwt beam="2">  1        2 0.44046743E-03 0.30474868E+02</pdfrwt>
<totfact> 0.37069743E+04</totfact>
</mgrwt>
</event>
<event>
 5    1  0.2804411E-003  0.1820313E+03  0.7818608E-02  0.1167174E+00
         11   -1    0    0    0    0  0.00000000000E+00  0.00000000000E+00  0.10001508384E+04  0.10001508384E+04  0.51100000000E-03 0. -1.
          2   -1    0    0  501    0 -0.00000000000E+00 -0.00000000000E+00 -0.34122962855E+02  0.34122962950E+02  0.25500000000E-02 0. -1.
         11    1    1    2    0    0  0.13993756167E+03 -0.95438627039E+02  0.52474373204E+03  0.55140460373E+03  0.51100000000E-03 0. -1.
         22    1    1    2    0    0  0.89421288192E+01 -0.68841618858E+01  0.58745722652E+02  0.59819840209E+02  0.00000000000E+00 0.  1.
          2    1    1    2  501    0 -0.14887969049E+03  0.10232278892E+03  0.38253842085E+03  0.42304935741E+03  0.25500000000E-02 0. -1.
<mgrwt>
<rscale>  0 0.18065192E+03</rscale>
<asrwt>0</asrwt>
<pdfrwt beam="1">  1       11 0.10000000E+01 0.18203125E+03</pdfrwt>
<pdfrwt beam="2">  1        2 0.52504783E-02 0.18065192E+03</pdfrwt>
<totfact> 0.17580351E+03</totfact>
</mgrwt>
</event>
<event>
 5    1  0.2804411E-003  0.2390380E+03  0.7818608E-02  0.1129052E+00
         11   -1    0    0    0    0  0.00000000000E+00  0.00000000000E+00  0.10000761561E+04  0.10000761561E+04  0.51100000000E-03 0.  1.
          2   -1    0    0  501    0 -0.00000000000E+00 -0.00000000000E+00 -0.83737508082E+02  0.83737508120E+02  0.25500000000E-02 0.  1.
         11    1    1    2    0    0 -0.34852221197E+02 -0.19377768580E+03  0.61767540604E+03  0.64829574737E+03  0.51100000000E-03 0.  1.
         22    1    1    2    0    0  0.24686495472E+02 -0.32599703056E+02  0.17017631303E+03  0.17502040228E+03  0.00000000000E+00 0.  1.
          2    1    1    2  501    0  0.10165725725E+02  0.22637738886E+03  0.12848692891E+03  0.26049751453E+03  0.25500000000E-02 0.  1.
<mgrwt>
<rscale>  0 0.22660553E+03</rscale>
<asrwt>0</asrwt>
<pdfrwt beam="1">  1       11 0.10000000E+01 0.23903797E+03</pdfrwt>
<pdfrwt beam="2">  1        2 0.12883674E-01 0.22660553E+03</pdfrwt>
<totfact> 0.57277330E+02</totfact>
</mgrwt>
</event>
<event>
 5    1  0.2804411E-003  0.1850257E+03  0.7818608E-02  0.1163026E+00
         11   -1    0    0    0    0  0.00000000000E+00  0.00000000000E+00  0.10002595917E+04  0.10002595917E+04  0.51100000000E-03 0.  1.
         -2   -1    0    0    0  501 -0.00000000000E+00 -0.00000000000E+00 -0.57844980787E+02  0.57844980843E+02  0.25500000000E-02 0. -1.
         11    1    1    2    0    0 -0.12878962144E+02  0.16593344845E+03  0.60880337396E+03  0.63114287220E+03  0.51100000000E-03 0.  1.
         22    1    1    2    0    0  0.42203222151E+02  0.24487341355E+02  0.16117886111E+03  0.16840239640E+03  0.00000000000E+00 0. -1.
         -2    1    1    2    0  501 -0.29324260007E+02 -0.19042078980E+03  0.17243237588E+03  0.25855930397E+03  0.25500000000E-02 0. -1.
<mgrwt>
<rscale>  0 0.18502571E+03</rscale>
<asrwt>0</asrwt>
<pdfrwt beam="1">  1       11 0.10000000E+01 0.48792846E+02</pdfrwt>
<pdfrwt beam="2">  1       -2 0.89015377E-02 0.18502571E+03</pdfrwt>
<totfact> 0.62429573E+02</totfact>
</mgrwt>
</event>
<event>
 5    1  0.2804411E-003  0.5587863E+03  0.7818608E-02  0.1003578E+00
         11   -1    0    0    0    0  0.00000000000E+00  0.00000000000E+00  0.99995762781E+03  0.99995762781E+03  0.51100000000E-03 0.  1.
          2   -1    0    0  501    0 -0.00000000000E+00 -0.00000000000E+00 -0.31351642050E+03  0.31351642051E+03  0.25500000000E-02 0.  1.
         11    1    1    2    0    0  0.38095069165E+03  0.45598572099E+02  0.10730439191E+03  0.39839288620E+03  0.51100000000E-03 0.  1.
         22    1    1    2    0    0  0.16013739504E+03 -0.45874258989E+02  0.11783895624E+03  0.20404522180E+03  0.00000000000E+00 0.  1.
          2    1    1    2  501    0 -0.54108808670E+03  0.27568689048E+00  0.46129785915E+03  0.71103594033E+03  0.25500000000E-02 0.  1.
<mgrwt>
<rscale>  0 0.54108816E+03</rscale>
<asrwt>0</asrwt>
<pdfrwt beam="1">  1       11 0.10000000E+01 0.55878632E+03</pdfrwt>
<pdfrwt beam="2">  1        2 0.48231250E-01 0.54108816E+03</pdfrwt>
<totfact> 0.12928398E+02</totfact>
</mgrwt>
</event>
<event>
 5    1  0.2804411E-003  0.6126621E+02  0.7818608E-02  0.1536341E+00
         11   -1    0    0    0    0  0.00000000000E+00  0.00000000000E+00  0.10007380138E+04  0.10007380138E+04  0.51100000000E-03 0.  1.
          2   -1    0    0  501    0 -0.00000000000E+00 -0.00000000000E+00 -0.61530282733E+01  0.61530288017E+01  0.25500000000E-02 0.  1.
         11    1    1    2    0    0 -0.55484518841E+02  0.17964908694E+02  0.26821822816E+03  0.27448549632E+03  0.51100000000E-03 0.  1.
         22    1    1    2    0    0 -0.84197249616E+01 -0.19945645128E+02  0.79776346137E+02  0.82661877132E+02  0.00000000000E+00 0.  1.
          2    1    1    2  501    0  0.63904243803E+02  0.19807364335E+01  0.64659041124E+03  0.64974366916E+03  0.25500000000E-02 0.  1.
<mgrwt>
<rscale>  0 0.36419911E+02</rscale>
<asrwt>0</asrwt>
<pdfrwt beam="1">  1       11 0.10000000E+01 0.61266206E+02</pdfrwt>
<pdfrwt beam="2">  1        2 0.94731837E-03 0.36419911E+02</pdfrwt>
<totfact> 0.13945350E+04</totfact>
</mgrwt>
</event>
<event>
 5    1  0.2804411E-003  0.1500720E+03  0.7818608E-02  0.1200385E+00
         11   -1    0    0    0    0  0.00000000000E+00  0.00000000000E+00  0.10001994362E+04  0.10001994362E+04  0.51100000000E-03 0. -1.
          2   -1    0    0  501    0 -0.00000000000E+00 -0.00000000000E+00 -0.41906166157E+04  0.41906166157E+04  0.25500000000E-02 0. -1.
         11    1    1    2    0    0 -0.98760123977E+01 -0.48782469714E+02  0.29999005719E+03  0.30409093933E+03  0.51100000000E-03 0. -1.
         22    1    1    2    0    0  0.14670770249E+03  0.11027944959E+03  0.68472652809E+03  0.70889711894E+03  0.00000000000E+00 0. -1.
          2    1    1    2  501    0 -0.13683169009E+03 -0.61496979874E+02 -0.41751337649E+04  0.41778279936E+04  0.25500000000E-02 0. -1.
<mgrwt>
<rscale>  0 0.15007199E+03</rscale>
<asrwt>0</asrwt>
<pdfrwt beam="1">  1       11 0.10000000E+01 0.49772130E+02</pdfrwt>
<pdfrwt beam="2">  1        2 0.64483881E+00 0.15007199E+03</pdfrwt>
<totfact> 0.44790392E-01</totfact>
</mgrwt>
</event>
<event>
 5    1  0.2804411E-003  0.6491751E+02  0.7818608E-02  0.1509958E+00
         11   -1    0    0    0    0  0.00000000000E+00  0.00000000000E+00  0.10001360362E+04  0.10001360362E+04  0.51100000000E-03 0. -1.
          2   -1    0    0  501    0 -0.00000000000E+00 -0.00000000000E+00 -0.82954601724E+01  0.82954605643E+01  0.25500000000E-02 0. -1.
         11    1    1    2    0    0 -0.29591432431E-01 -0.64070580594E+02  0.19280261456E+03  0.20316960490E+03  0.51100000000E-03 0. -1.
         22    1    1    2    0    0  0.24233224828E+02  0.24455638597E+01  0.93357469018E+02  0.96482366210E+02  0.00000000000E+00 0. -1.
          2    1    1    2  501    0 -0.24203633396E+02  0.61625016734E+02  0.70568049247E+03  0.70877952568E+03  0.25500000000E-02 0. -1.
<mgrwt>
<rscale>  0 0.39763682E+02</rscale>
<asrwt>0</asrwt>
<pdfrwt beam="1">  1       11 0.10000000E+01 0.64917512E+02</pdfrwt>
<pdfrwt beam="2">  1        2 0.12763982E-02 0.39763682E+02</pdfrwt>
<totfact> 0.95474411E+03</totfact>
</mgrwt>
</event>
<event>
 5    1  0.2804411E-003  0.1252066E+03  0.7818608E-02  0.1241232E+00
         11   -1    0    0    0    0  0.00000000000E+00  0.00000000000E+00  0.99968109503E+03  0.99968109503E+03  0.51100000000E-03 0.  1.
          2   -1    0    0  501    0 -0.00000000000E+00 -0.00000000000E+00 -0.20080764763E+02  0.20080764925E+02  0.25500000000E-02 0.  1.
         11    1    1    2    0    0  0.27105519730E+02 -0.18084223343E+02  0.68652394774E+02  0.75992760459E+02  0.51100000000E-03 0.  1.
         22    1    1    2    0    0  0.36510252405E+02 -0.85004663210E+02  0.17530070650E+03  0.19821485564E+03  0.00000000000E+00 0.  1.
          2    1    1    2  501    0 -0.63615772135E+02  0.10308888655E+03  0.73564722900E+03  0.74555424386E+03  0.25500000000E-02 0.  1.
<mgrwt>
<rscale>  0 0.12113746E+03</rscale>
<asrwt>0</asrwt>
<pdfrwt beam="1">  1       11 0.10000000E+01 0.12520663E+03</pdfrwt>
<pdfrwt beam="2">  1        2 0.30883631E-02 0.12113746E+03</pdfrwt>
<totfact> 0.34297544E+03</totfact>
</mgrwt>
</event>
<event>
 5    1  0.2804411E-003  0.6148033E+02  0.7818608E-02  0.1405161E+00
         11   -1    0    0    0    0  0.00000000000E+00  0.00000000000E+00  0.10000992162E+04  0.10000992162E+04  0.51100000000E-03 0.  1.
          2   -1    0    0  501    0 -0.00000000000E+00 -0.00000000000E+00 -0.46087169230E+01  0.46087176284E+01  0.25500000000E-02 0.  1.
         11    1    1    2    0    0 -0.22250863802E+02 -0.44149914782E+02  0.20857214821E+03  0.21435171313E+03  0.51100000000E-03 0.  1.
         22    1    1    2    0    0 -0.11239780607E+02 -0.35559761684E+01  0.62887039627E+02  0.63982477192E+02  0.00000000000E+00 0. -1.
          2    1    1    2  501    0  0.33490644409E+02  0.47705890950E+02  0.72403131141E+03  0.72637374347E+03  0.25500000000E-02 0.  1.
<mgrwt>
<rscale>  0 0.58287866E+02</rscale>
<asrwt>0</asrwt>
<pdfrwt beam="1">  1       11 0.10000000E+01 0.61480329E+02</pdfrwt>
<pdfrwt beam="2">  1        2 0.70910375E-03 0.58287866E+02</pdfrwt>
<totfact> 0.22566520E+04</totfact>
</mgrwt>
</event>
<event>
 5    1  0.2804411E-003  0.2403171E+03  0.7818608E-02  0.1220876E+00
         11   -1    0    0    0    0  0.00000000000E+00  0.00000000000E+00  0.99996256428E+03  0.99996256428E+03  0.51100000000E-03 0. -1.
          2   -1    0    0  501    0 -0.00000000000E+00 -0.00000000000E+00 -0.16536098977E+03  0.16536098979E+03  0.25500000000E-02 0. -1.
         11    1    1    2    0    0 -0.29148684148E+02 -0.20737867069E+03  0.24362048823E+03  0.32125768649E+03  0.51100000000E-03 0. -1.
         22    1    1    2    0    0 -0.95766596452E+02  0.25733986280E+03  0.64350666376E+03  0.69963981611E+03  0.00000000000E+00 0.  1.
          2    1    1    2  501    0  0.12491528060E+03 -0.49961192112E+02 -0.52525577483E+02  0.14442605146E+03  0.25500000000E-02 0. -1.
<mgrwt>
<rscale>  0 0.13453605E+03</rscale>
<asrwt>0</asrwt>
<pdfrwt beam="1">  1       11 0.10000000E+01 0.24031706E+03</pdfrwt>
<pdfrwt beam="2">  1        2 0.25439199E-01 0.13453605E+03</pdfrwt>
<totfact> 0.25685339E+02</totfact>
</mgrwt>
</event>
<event>
 5    1  0.2804411E-003  0.1040722E+03  0.7818608E-02  0.1669849E+00
         11   -1    0    0    0    0  0.00000000000E+00  0.00000000000E+00  0.10003162005E+04  0.10003162005E+04  0.51100000000E-03 0. -1.
         -2   -1    0    0    0  501 -0.00000000000E+00 -0.00000000000E+00 -0.20874303847E+03  0.20874303848E+03  0.25500000000E-02 0. -1.
         11    1    1    2    0    0  0.10213657946E+03  0.41071965520E+02  0.50045854934E+03  0.51242321066E+03  0.51100000000E-03 0. -1.
         22    1    1    2    0    0 -0.82883448026E+02 -0.56052795145E+02  0.48804712061E+03  0.49819832771E+03  0.00000000000E+00 0. -1.
         -2    1    1    2    0  501 -0.19253131435E+02  0.14980829626E+02 -0.19693250794E+03  0.19843770059E+03  0.25500000000E-02 0. -1.
<mgrwt>
<rscale>  0 0.24394842E+02</rscale>
<asrwt>0</asrwt>
<pdfrwt beam="1">  1       11 0.10000000E+01 0.10407216E+03</pdfrwt>
<pdfrwt beam="2">  1       -2 0.32124467E-01 0.24394842E+02</pdfrwt>
<totfact> 0.68881775E+01</totfact>
</mgrwt>
</event>
<event>
 5    1  0.2804411E-003  0.3076073E+02  0.7818608E-02  0.1601404E+00
         11   -1    0    0    0    0  0.00000000000E+00  0.00000000000E+00  0.10004453565E+04  0.10004453565E+04  0.51100000000E-03 0. -1.
         -2   -1    0    0    0  501 -0.00000000000E+00 -0.00000000000E+00 -0.29623574473E+01  0.29623585448E+01  0.25500000000E-02 0. -1.
         11    1    1    2    0    0 -0.47386690577E+01  0.12014582511E+02  0.44244609067E+02  0.46091112040E+02  0.51100000000E-03 0. -1.
         22    1    1    2    0    0 -0.11937247137E+02  0.12564583236E+02  0.39974033614E+02  0.43569369796E+02  0.00000000000E+00 0. -1.
         -2    1    1    2    0  501  0.16675916195E+02 -0.24579165747E+02  0.91326435641E+03  0.91374723325E+03  0.25500000000E-02 0. -1.
<mgrwt>
<rscale>  0 0.29702215E+02</rscale>
<asrwt>0</asrwt>
<pdfrwt beam="1">  1       11 0.10000000E+01 0.30760725E+02</pdfrwt>
<pdfrwt beam="2">  1       -2 0.45595034E-03 0.29702215E+02</pdfrwt>
<totfact> 0.34284841E+04</totfact>
</mgrwt>
</event>
<event>
 5    1  0.2804411E-003  0.1249314E+03  0.7818608E-02  0.1235177E+00
         11   -1    0    0    0    0  0.00000000000E+00  0.00000000000E+00  0.10000682507E+04  0.10000682507E+04  0.51100000000E-03 0. -1.
          2   -1    0    0  501    0 -0.00000000000E+00 -0.00000000000E+00 -0.53706555732E+02  0.53706555793E+02  0.25500000000E-02 0. -1.
         11    1    1    2    0    0  0.30736844347E+01  0.23954615183E+02  0.14315604227E+03  0.14517893637E+03  0.51100000000E-03 0. -1.
         22    1    1    2    0    0  0.11139386340E+03 -0.72374388180E+02  0.76802062603E+03  0.77942435610E+03  0.00000000000E+00 0. -1.
          2    1    1    2  501    0 -0.11446754784E+03  0.48419772997E+02  0.35185026642E+02  0.12917151401E+03  0.25500000000E-02 0. -1.
<mgrwt>
<rscale>  0 0.12493136E+03</rscale>
<asrwt>0</asrwt>
<pdfrwt beam="1">  1       11 0.10000000E+01 0.24151007E+02</pdfrwt>
<pdfrwt beam="2">  1        2 0.82631107E-02 0.12493136E+03</pdfrwt>
<totfact> 0.95842198E+02</totfact>
</mgrwt>
</event>
<event>
 5    1  0.2804411E-003  0.2012271E+03  0.7818608E-02  0.1148708E+00
         11   -1    0    0    0    0  0.00000000000E+00  0.00000000000E+00  0.10001030700E+04  0.10001030700E+04  0.51100000000E-03 0. -1.
          2   -1    0    0  501    0 -0.00000000000E+00 -0.00000000000E+00 -0.77159654795E+02  0.77159654837E+02  0.25500000000E-02 0. -1.
         11    1    1    2    0    0 -0.16569436903E+03 -0.56744570720E+01  0.36625186102E+03  0.40202891574E+03  0.51100000000E-03 0. -1.
         22    1    1    2    0    0 -0.44182999738E+02 -0.87896950019E+02  0.35858794359E+03  0.37183776648E+03  0.00000000000E+00 0. -1.
          2    1    1    2  501    0  0.20987736877E+03  0.93571407091E+02  0.19810361062E+03  0.30339604265E+03  0.25500000000E-02 0. -1.
<mgrwt>
<rscale>  0 0.20122712E+03</rscale>
<asrwt>0</asrwt>
<pdfrwt beam="1">  1       11 0.10000000E+01 0.98376884E+02</pdfrwt>
<pdfrwt beam="2">  1        2 0.11871939E-01 0.20122712E+03</pdfrwt>
<totfact> 0.62925781E+02</totfact>
</mgrwt>
</event>
<event>
 5    1  0.2804411E-003  0.2367081E+03  0.7818608E-02  0.1128470E+00
         11   -1    0    0    0    0  0.00000000000E+00  0.00000000000E+00  0.10001844465E+04  0.10001844465E+04  0.51100000000E-03 0. -1.
          2   -1    0    0  501    0 -0.00000000000E+00 -0.00000000000E+00 -0.31568947960E+03  0.31568947961E+03  0.25500000000E-02 0. -1.
         11    1    1    2    0    0 -0.15258600646E+03  0.76737224624E+02  0.70822528031E+03  0.72852874939E+03  0.51100000000E-03 0. -1.
         22    1    1    2    0    0 -0.64718629209E+02 -0.96698136091E+01  0.23437743315E+03  0.24334088730E+03  0.00000000000E+00 0. -1.
          2    1    1    2  501    0  0.21730463567E+03 -0.67067411015E+02 -0.25810774656E+03  0.34400428943E+03  0.25500000000E-02 0. -1.
<mgrwt>
<rscale>  0 0.22741887E+03</rscale>
<asrwt>0</asrwt>
<pdfrwt beam="1">  1       11 0.10000000E+01 0.23670808E+03</pdfrwt>
<pdfrwt beam="2">  1        2 0.48576569E-01 0.22741887E+03</pdfrwt>
<totfact> 0.12839642E+02</totfact>
</mgrwt>
</event>
<event>
 5    1  0.2804411E-003  0.4369024E+02  0.7818608E-02  0.1482688E+00
         11   -1    0    0    0    0  0.00000000000E+00  0.00000000000E+00  0.10001297906E+04  0.10001297906E+04  0.51100000000E-03 0.  1.
          2   -1    0    0  501    0 -0.00000000000E+00 -0.00000000000E+00 -0.79140823865E+01  0.79140827973E+01  0.25500000000E-02 0.  1.
         11    1    1    2    0    0  0.76847723889E+00  0.30955360745E+02  0.44720058305E+02  0.54394011906E+02  0.51100000000E-03 0.  1.
         22    1    1    2    0    0  0.43056562702E+02 -0.13451074649E+02  0.21739472240E+03  0.22202536866E+03  0.00000000000E+00 0.  1.
          2    1    1    2  501    0 -0.43825039941E+02 -0.17504286096E+02  0.73010092751E+03  0.73162449284E+03  0.25500000000E-02 0.  1.
<mgrwt>
<rscale>  0 0.43690241E+02</rscale>
<asrwt>0</asrwt>
<pdfrwt beam="1">  1       11 0.10000000E+01 0.30964914E+02</pdfrwt>
<pdfrwt beam="2">  1        2 0.12177092E-02 0.43690241E+02</pdfrwt>
<totfact> 0.10339085E+04</totfact>
</mgrwt>
</event>
<event>
 5    1  0.2804411E-003  0.3056152E+02  0.7818608E-02  0.1626956E+00
         11   -1    0    0    0    0  0.00000000000E+00  0.00000000000E+00  0.10002101164E+04  0.10002101164E+04  0.51100000000E-03 0. -1.
          2   -1    0    0  501    0 -0.00000000000E+00 -0.00000000000E+00 -0.14086161687E+02  0.14086161918E+02  0.25500000000E-02 0. -1.
         11    1    1    2    0    0 -0.15879190268E+02  0.34308721131E+01 -0.48909233637E+01  0.16965868638E+02  0.51100000000E-03 0. -1.
         22    1    1    2    0    0 -0.11124737811E+02  0.19900851110E+01  0.78043826087E+01  0.13734213411E+02  0.00000000000E+00 0.  1.
          2    1    1    2  501    0  0.27003928080E+02 -0.54209572241E+01  0.98321049551E+03  0.98359619632E+03  0.25500000000E-02 0. -1.
<mgrwt>
<rscale>  0 0.27542674E+02</rscale>
<asrwt>0</asrwt>
<pdfrwt beam="1">  1       11 0.10000000E+01 0.30561525E+02</pdfrwt>
<pdfrwt beam="2">  1        2 0.21675571E-02 0.27542674E+02</pdfrwt>
<totfact> 0.44759741E+03</totfact>
</mgrwt>
</event>
<event>
 5    1  0.2804411E-003  0.4435488E+03  0.7818608E-02  0.1029663E+00
         11   -1    0    0    0    0  0.00000000000E+00  0.00000000000E+00  0.10002760432E+04  0.10002760432E+04  0.51100000000E-03 0.  1.
         -2   -1    0    0    0  501 -0.00000000000E+00 -0.00000000000E+00 -0.28298063067E+03  0.28298063069E+03  0.25500000000E-02 0. -1.
         11    1    1    2    0    0  0.33083070672E+03 -0.28147496558E+03  0.63400824996E+03  0.76853339145E+03  0.51100000000E-03 0.  1.
         22    1    1    2    0    0  0.19034030095E+02  0.38085475997E+01  0.64840612307E+02  0.67683855836E+02  0.00000000000E+00 0. -1.
         -2    1    1    2    0  501 -0.34986473681E+03  0.27766641798E+03  0.18446550290E+02  0.44703942663E+03  0.25500000000E-02 0. -1.
<mgrwt>
<rscale>  0 0.44354884E+03</rscale>
<asrwt>0</asrwt>
<pdfrwt beam="1">  1       11 0.10000000E+01 0.19411320E+02</pdfrwt>
<pdfrwt beam="2">  1       -2 0.43547498E-01 0.44354884E+03</pdfrwt>
<totfact> 0.40812571E+01</totfact>
</mgrwt>
</event>
<event>
 5    1  0.2804411E-003  0.1578036E+03  0.7818608E-02  0.1210207E+00
         11   -1    0    0    0    0  0.00000000000E+00  0.00000000000E+00  0.10001562189E+04  0.10001562189E+04  0.51100000000E-03 0. -1.
         -2   -1    0    0    0  501 -0.00000000000E+00 -0.00000000000E+00 -0.30792697870E+02  0.30792697975E+02  0.25500000000E-02 0.  1.
         11    1    1    2    0    0  0.16078491969E+01  0.94882901034E+02  0.43355806346E+03  0.44382197385E+03  0.51100000000E-03 0. -1.
         22    1    1    2    0    0  0.49549023342E+02  0.37952955008E+02  0.33631758567E+03  0.34206001073E+03  0.00000000000E+00 0. -1.
         -2    1    1    2    0  501 -0.51156872539E+02 -0.13283585604E+03  0.19948787188E+03  0.24506693227E+03  0.25500000000E-02 0.  1.
<mgrwt>
<rscale>  0 0.14234602E+03</rscale>
<asrwt>0</asrwt>
<pdfrwt beam="1">  1       11 0.10000000E+01 0.15780361E+03</pdfrwt>
<pdfrwt beam="2">  1       -2 0.47380781E-02 0.14234602E+03</pdfrwt>
<totfact> 0.16081227E+03</totfact>
</mgrwt>
</event>
<event>
 5    1  0.2804411E-003  0.1167321E+03  0.7818608E-02  0.1248587E+00
         11   -1    0    0    0    0  0.00000000000E+00  0.00000000000E+00  0.10001774742E+04  0.10001774742E+04  0.51100000000E-03 0. -1.
          2   -1    0    0  501    0 -0.00000000000E+00 -0.00000000000E+00 -0.26276706493E+02  0.26276706617E+02  0.25500000000E-02 0. -1.
         11    1    1    2    0    0  0.35923201202E+02 -0.16531665757E+02  0.80762350906E+02  0.89924021715E+02  0.51100000000E-03 0. -1.
         22    1    1    2    0    0 -0.13585613005E+03 -0.31356786909E+02  0.70095223760E+03  0.71468466861E+03  0.00000000000E+00 0. -1.
          2    1    1    2  501    0  0.99932928848E+02  0.47888452666E+02  0.19218617921E+03  0.22184549049E+03  0.25500000000E-02 0. -1.
<mgrwt>
<rscale>  0 0.11673212E+03</rscale>
<asrwt>0</asrwt>
<pdfrwt beam="1">  1       11 0.10000000E+01 0.39544581E+02</pdfrwt>
<pdfrwt beam="2">  1        2 0.40432876E-02 0.11673212E+03</pdfrwt>
<totfact> 0.23894133E+03</totfact>
</mgrwt>
</event>
<event>
 5    1  0.2804411E-003  0.7432674E+02  0.7818608E-02  0.1345969E+00
         11   -1    0    0    0    0  0.00000000000E+00  0.00000000000E+00  0.99993721111E+03  0.99993721111E+03  0.51100000000E-03 0. -1.
          2   -1    0    0  501    0 -0.00000000000E+00 -0.00000000000E+00 -0.15082958730E+02  0.15082958945E+02  0.25500000000E-02 0. -1.
         11    1    1    2    0    0 -0.22106954294E+01  0.42683209834E+02  0.45646498880E+02  0.62532762903E+02  0.51100000000E-03 0. -1.
         22    1    1    2    0    0 -0.57688215995E+02  0.29290033905E+02  0.36288252415E+03  0.36860488695E+03  0.00000000000E+00 0. -1.
          2    1    1    2  501    0  0.59898911425E+02 -0.71973243739E+02  0.57632522935E+03  0.58388252020E+03  0.25500000000E-02 0. -1.
<mgrwt>
<rscale>  0 0.74326744E+02</rscale>
<asrwt>0</asrwt>
<pdfrwt beam="1">  1       11 0.10000000E+01 0.42740442E+02</pdfrwt>
<pdfrwt beam="2">  1        2 0.23203094E-02 0.74326744E+02</pdfrwt>
<totfact> 0.47485589E+03</totfact>
</mgrwt>
</event>
<event>
 5    1  0.2804411E-003  0.2017536E+03  0.7818608E-02  0.1151456E+00
         11   -1    0    0    0    0  0.00000000000E+00  0.00000000000E+00  0.99968669781E+03  0.99968669781E+03  0.51100000000E-03 0. -1.
         -2   -1    0    0    0  501 -0.00000000000E+00 -0.00000000000E+00 -0.16156914556E+03  0.16156914558E+03  0.25500000000E-02 0. -1.
         11    1    1    2    0    0  0.13717480867E+03  0.91308464749E+02  0.71693829593E+03  0.73563216626E+03  0.51100000000E-03 0. -1.
         22    1    1    2    0    0  0.18976099173E+02  0.30397234548E+02  0.20683070058E+03  0.20991194085E+03  0.00000000000E+00 0. -1.
         -2    1    1    2    0  501 -0.15615090784E+03 -0.12170569930E+03 -0.85651444259E+02  0.21571173628E+03  0.25500000000E-02 0. -1.
<mgrwt>
<rscale>  0 0.19797824E+03</rscale>
<asrwt>0</asrwt>
<pdfrwt beam="1">  1       11 0.10000000E+01 0.20175356E+03</pdfrwt>
<pdfrwt beam="2">  1       -2 0.24849003E-01 0.19797824E+03</pdfrwt>
<totfact> 0.11490767E+02</totfact>
</mgrwt>
</event>
<event>
 5    1  0.2804411E-003  0.6497159E+03  0.7818608E-02  0.9807312E-01
         11   -1    0    0    0    0  0.00000000000E+00  0.00000000000E+00  0.10003459310E+04  0.10003459310E+04  0.51100000000E-03 0.  1.
          2   -1    0    0  501    0 -0.00000000000E+00 -0.00000000000E+00 -0.49343715670E+03  0.49343715671E+03  0.25500000000E-02 0.  1.
         11    1    1    2    0    0  0.26312813450E+03 -0.60232010409E+03  0.11034185821E+03  0.66648424485E+03  0.51100000000E-03 0.  1.
         22    1    1    2    0    0 -0.37677109014E+02  0.24936828495E+01  0.12632732625E+03  0.13184982501E+03  0.00000000000E+00 0. -1.
          2    1    1    2  501    0 -0.22545102549E+03  0.59982642124E+03  0.27023958985E+03  0.69544901786E+03  0.25500000000E-02 0.  1.
<mgrwt>
<rscale>  0 0.64971586E+03</rscale>
<asrwt>0</asrwt>
<pdfrwt beam="1">  1       11 0.10000000E+01 0.37759542E+02</pdfrwt>
<pdfrwt beam="2">  1        2 0.75939667E-01 0.64971586E+03</pdfrwt>
<totfact> 0.77558586E+01</totfact>
</mgrwt>
</event>
<event>
 5    1  0.2804411E-003  0.1007493E+03  0.7818608E-02  0.1302942E+00
         11   -1    0    0    0    0  0.00000000000E+00  0.00000000000E+00  0.10004838516E+04  0.10004838516E+04  0.51100000000E-03 0.  1.
          2   -1    0    0  501    0 -0.00000000000E+00 -0.00000000000E+00 -0.22741327558E+02  0.22741327701E+02  0.25500000000E-02 0.  1.
         11    1    1    2    0    0  0.60415529177E+02 -0.86787001629E+02  0.27506210229E+03  0.29468827587E+03  0.51100000000E-03 0.  1.
         22    1    1    2    0    0  0.47097907863E+02  0.65075511573E+02  0.24222248769E+03  0.25519554987E+03  0.00000000000E+00 0.  1.
          2    1    1    2  501    0 -0.10751343704E+03  0.21711490056E+02  0.46045793404E+03  0.47334135354E+03  0.25500000000E-02 0.  1.
<mgrwt>
<rscale>  0 0.89962576E+02</rscale>
<asrwt>0</asrwt>
<pdfrwt beam="1">  1       11 0.10000000E+01 0.10074928E+03</pdfrwt>
<pdfrwt beam="2">  1        2 0.35003585E-02 0.89962576E+02</pdfrwt>
<totfact> 0.28153426E+03</totfact>
</mgrwt>
</event>
<event>
 5    1  0.2804411E-003  0.1862462E+03  0.7818608E-02  0.1171707E+00
         11   -1    0    0    0    0  0.00000000000E+00  0.00000000000E+00  0.10002171194E+04  0.10002171194E+04  0.51100000000E-03 0.  1.
         -2   -1    0    0    0  501 -0.00000000000E+00 -0.00000000000E+00 -0.62041455015E+02  0.62041455068E+02  0.25500000000E-02 0.  1.
         11    1    1    2    0    0 -0.12878085793E+03  0.44629541932E+02  0.68738834624E+03  0.70077032181E+03  0.51100000000E-03 0.  1.
         22    1    1    2    0    0 -0.26188538822E+02  0.38851280009E+02  0.15323834635E+03  0.16024123164E+03  0.00000000000E+00 0.  1.
         -2    1    1    2    0  501  0.15496939675E+03 -0.83480821941E+02  0.97548971779E+02  0.20124702101E+03  0.25500000000E-02 0.  1.
<mgrwt>
<rscale>  0 0.17602432E+03</rscale>
<asrwt>0</asrwt>
<pdfrwt beam="1">  1       11 0.10000000E+01 0.18624623E+03</pdfrwt>
<pdfrwt beam="2">  1       -2 0.95469113E-02 0.17602432E+03</pdfrwt>
<totfact> 0.55760540E+02</totfact>
</mgrwt>
</event>
<event>
 5    1  0.2804411E-003  0.3760071E+02  0.7818608E-02  0.1697124E+00
         11   -1    0    0    0    0  0.00000000000E+00  0.00000000000E+00  0.10001580733E+04  0.10001580733E+04  0.51100000000E-03 0. -1.
          2   -1    0    0  501    0 -0.00000000000E+00 -0.00000000000E+00 -0.40522250263E+01  0.40522258286E+01  0.25500000000E-02 0. -1.
         11    1    1    2    0    0  0.29239588197E+02 -0.53339545812E+01  0.74574598603E+02  0.80279358160E+02  0.51100000000E-03 0. -1.
         22    1    1    2    0    0  0.95019278333E+01  0.98038625772E+01  0.60688586306E+02  0.62205360395E+02  0.00000000000E+00 0. -1.
          2    1    1    2  501    0 -0.38741516030E+02 -0.44699079960E+01  0.86084266332E+03  0.86172558053E+03  0.25500000000E-02 0. -1.
<mgrwt>
<rscale>  0 0.22657436E+02</rscale>
<asrwt>0</asrwt>
<pdfrwt beam="1">  1       11 0.10000000E+01 0.37600711E+02</pdfrwt>
<pdfrwt beam="2">  1        2 0.62351782E-03 0.22657436E+02</pdfrwt>
<totfact> 0.21746314E+04</totfact>
</mgrwt>
</event>
<event>
 5    1  0.2804411E-003  0.4711577E+03  0.7818608E-02  0.1027162E+00
         11   -1    0    0    0    0  0.00000000000E+00  0.00000000000E+00  0.99908394343E+03  0.99908394343E+03  0.51100000000E-03 0. -1.
          2   -1    0    0  501    0 -0.00000000000E+00 -0.00000000000E+00 -0.30628167141E+04  0.30628167141E+04  0.25500000000E-02 0.  1.
         11    1    1    2    0    0 -0.52036441580E+02  0.40192387832E+03  0.85007894868E+03  0.94174562075E+03  0.51100000000E-03 0. -1.
         22    1    1    2    0    0 -0.46375270623E+02  0.39112883851E+02  0.75515449115E+02  0.96866229738E+02  0.00000000000E+00 0. -1.
          2    1    1    2  501    0  0.98411712204E+02 -0.44103676217E+03 -0.29893271685E+04  0.30232888070E+04  0.25500000000E-02 0.  1.
<mgrwt>
<rscale>  0 0.45188305E+03</rscale>
<asrwt>0</asrwt>
<pdfrwt beam="1">  1       11 0.10000000E+01 0.47115771E+03</pdfrwt>
<pdfrwt beam="2">  1        2 0.47077091E+00 0.45188305E+03</pdfrwt>
<totfact> 0.22379692E+00</totfact>
</mgrwt>
</event>
<event>
 5    1  0.2804411E-003  0.1127898E+03  0.7818608E-02  0.1255489E+00
         11   -1    0    0    0    0  0.00000000000E+00  0.00000000000E+00  0.10000941030E+04  0.10000941030E+04  0.51100000000E-03 0.  1.
          2   -1    0    0  501    0 -0.00000000000E+00 -0.00000000000E+00 -0.48521556331E+02  0.48521556398E+02  0.25500000000E-02 0. -1.
         11    1    1    2    0    0 -0.15042871663E+02  0.11039399468E+03  0.48749273201E+03  0.50006228194E+03  0.51100000000E-03 0.  1.
         22    1    1    2    0    0  0.87778231173E+02 -0.16763292108E+02  0.40749696342E+03  0.41718077739E+03  0.00000000000E+00 0.  1.
          2    1    1    2  501    0 -0.72735359510E+02 -0.93630702575E+02  0.56582851235E+02  0.13137260007E+03  0.25500000000E-02 0. -1.
<mgrwt>
<rscale>  0 0.11278979E+03</rscale>
<asrwt>0</asrwt>
<pdfrwt beam="1">  1       11 0.10000000E+01 0.89364567E+02</pdfrwt>
<pdfrwt beam="2">  1        2 0.74655571E-02 0.11278979E+03</pdfrwt>
<totfact> 0.10808639E+03</totfact>
</mgrwt>
</event>
<event>
 5    1  0.2804411E-003  0.1132076E+03  0.7818608E-02  0.1258702E+00
         11   -1    0    0    0    0  0.00000000000E+00  0.00000000000E+00  0.10001609842E+04  0.10001609842E+04  0.51100000000E-03 0.  1.
          2   -1    0    0  501    0 -0.00000000000E+00 -0.00000000000E+00 -0.12741344973E+02  0.12741345229E+02  0.25500000000E-02 0.  1.
         11    1    1    2    0    0 -0.70512333574E+02  0.69243792046E+02  0.47666743755E+03  0.48680441446E+03  0.51100000000E-03 0.  1.
         22    1    1    2    0    0 -0.13928579253E+02  0.28255937059E+01  0.81063297225E+02  0.82299741535E+02  0.00000000000E+00 0.  1.
          2    1    1    2  501    0  0.84440912826E+02 -0.72069385752E+02  0.42968890444E+03  0.44379817341E+03  0.25500000000E-02 0.  1.
<mgrwt>
<rscale>  0 0.11101470E+03</rscale>
<asrwt>0</asrwt>
<pdfrwt beam="1">  1       11 0.10000000E+01 0.11320763E+03</pdfrwt>
<pdfrwt beam="2">  1        2 0.19605224E-02 0.11101470E+03</pdfrwt>
<totfact> 0.62676415E+03</totfact>
</mgrwt>
</event>
<event>
 5    1  0.2804411E-003  0.1287014E+03  0.7818608E-02  0.1233094E+00
         11   -1    0    0    0    0  0.00000000000E+00  0.00000000000E+00  0.10002180177E+04  0.10002180177E+04  0.51100000000E-03 0. -1.
          2   -1    0    0  501    0 -0.00000000000E+00 -0.00000000000E+00 -0.16640337046E+02  0.16640337241E+02  0.25500000000E-02 0. -1.
         11    1    1    2    0    0 -0.11754206606E+03 -0.90542760104E+00  0.39576406568E+03  0.41285124776E+03  0.51100000000E-03 0. -1.
         22    1    1    2    0    0 -0.85483211119E+01 -0.58670872499E+01  0.22667607738E+02  0.24926230104E+02  0.00000000000E+00 0. -1.
          2    1    1    2  501    0  0.12609038717E+03  0.67725148509E+01  0.56514600727E+03  0.57908087711E+03  0.25500000000E-02 0. -1.
<mgrwt>
<rscale>  0 0.12627214E+03</rscale>
<asrwt>0</asrwt>
<pdfrwt beam="1">  1       11 0.10000000E+01 0.12870142E+03</pdfrwt>
<pdfrwt beam="2">  1        2 0.25606099E-02 0.12627214E+03</pdfrwt>
<totfact> 0.44318602E+03</totfact>
</mgrwt>
</event>
